Title
82299
    1SAPS     N    1   3.618   1.920  11.095 -0.1617 -0.1374 -0.2526
    1SAPS   HN1    2   3.536   1.916  11.031 -1.9609 -0.1062  1.9262
    1SAPS   HN2    3   3.601   1.867  11.183 -0.9058 -0.2665 -0.4682
    1SAPS   HN3    4   3.634   2.019  11.120 -1.0994 -0.3270  1.2108
    1SAPS   C12    5   3.742   1.864  11.037  0.2386 -0.5267 -0.0787
    1SAPS  H12A    6   3.782   1.937  10.969  1.3917  0.5591  1.6709
    1SAPS   C13    7   3.854   1.835  11.134  0.1355  0.4855  0.0135
    1SAPS  O13A    8   3.833   1.851  11.257 -0.4436 -0.3050  0.3047
    1SAPS  O13B    9   3.971   1.811  11.087  0.4442  0.1169 -0.1878
    1SAPS   C11   10   3.703   1.724  10.968  0.7436 -0.0892  0.3197
    1SAPS  H11A   11   3.796   1.676  10.930  0.2244  0.0079 -1.1298
    1SAPS  H11B   12   3.636   1.748  10.883  0.5349 -1.6192  0.0214
    1SAPS     P   13   3.616   1.479  11.049  0.1095  0.2950 -0.5457
    1SAPS   O13   14   3.747   1.415  11.077  0.3149  0.0752  0.2951
    1SAPS   O14   15   3.507   1.443  11.141  0.3300 -0.0409 -0.2853
    1SAPS   O12   16   3.630   1.641  11.057 -0.0018 -0.1772  0.6804
    1SAPS   O11   17   3.569   1.453  10.899  0.0051 -0.1421  0.1831
    1SAPS    C1   18   3.454   1.521  10.851  0.1818 -0.5509 -0.1309
    1SAPS    HA   19   3.364   1.489  10.909  1.5227  2.0968  3.8846
    1SAPS    HB   20   3.446   1.630  10.873 -0.6781 -0.5957 -0.1844
    1SAPS    C2   21   3.425   1.497  10.697 -0.3627  0.3902 -0.0908
    1SAPS    HS   22   3.408   1.388  10.687 -0.2648  0.2875  0.7356
    1SAPS   O21   23   3.546   1.539  10.622 -0.3414  0.1908  0.1056
    1SAPS   C21   24   3.643   1.446  10.611 -0.2811 -0.1498 -0.5036
    1SAPS   O22   25   3.627   1.324  10.637 -0.1699 -0.3135 -0.1519
    1SAPS   C22   26   3.766   1.513  10.553 -0.0438  0.2403  0.4692
    1SAPS   H2R   27   3.808   1.583  10.627 -0.2709  0.1363  0.7001
    1SAPS   H2S   28   3.833   1.432  10.516 -0.1155  0.3273  0.1421
    1SAPS    C3   29   3.300   1.567  10.644  0.0988 -0.4362 -0.3256
    1SAPS    HX   30   3.309   1.674  10.672  2.6239 -0.4825 -0.7325
    1SAPS    HY   31   3.216   1.524  10.703  1.0951  0.0186  1.5021
    1SAPS   O31   32   3.294   1.536  10.500 -0.2489  0.0166 -0.3583
    1SAPS   C31   33   3.328   1.633  10.421  0.3273  0.1291  0.0792
    1SAPS   O32   34   3.334   1.753  10.451  0.0309 -0.0628  0.4096
    1SAPS   C32   35   3.349   1.588  10.277 -0.0489  0.3470  0.3548
    1SAPS   H2X   36   3.267   1.522  10.242  2.1242 -1.4253 -1.7183
    1SAPS   H2Y   37   3.437   1.521  10.275 -0.1048  0.2910 -0.4388
    1SAPS   C23   38   3.740   1.595  10.419 -1.3479  0.2139  0.6056
    1SAPS   H3R   39   3.689   1.690  10.444 -3.9117 -0.3191 -1.9961
    1SAPS   H3S   40   3.681   1.533  10.347 -0.7919  0.6138 -0.2125
    1SAPS   C24   41   3.874   1.643  10.353 -0.3696  0.5169  0.3131
    1SAPS   H4R   42   3.835   1.715  10.278  0.1007 -0.6545 -1.0874
    1SAPS   H4S   43   3.929   1.568  10.292  2.5680  2.6998  0.0595
    1SAPS   C25   44   3.973   1.719  10.439 -0.7538  0.3144  0.0951
    1SAPS   H5R   45   3.983   1.683  10.543  2.9508  2.1145  0.5100
    1SAPS   C26   46   4.069   1.806  10.395 -0.7293 -0.3342  0.2608
    1SAPS   H6R   47   4.140   1.849  10.467 -0.0078 -1.2085  0.1042
    1SAPS   C27   48   4.074   1.865  10.256  0.2360  0.0853 -0.7610
    1SAPS   H7R   49   4.128   1.962  10.264  2.6211 -1.0751 -1.7418
    1SAPS   H7S   50   3.970   1.873  10.217 -0.2968 -3.5384 -0.4485
    1SAPS   C28   51   4.162   1.789  10.162 -0.0199 -0.7395 -0.4849
    1SAPS   H8R   52   4.253   1.743  10.204  0.5980  0.9787  0.1330
    1SAPS   C29   53   4.151   1.790  10.026  0.2647  0.0617  0.2887
    1SAPS   H9R   54   4.209   1.712   9.975 -1.3674 -1.4978  0.6702
    1SAPS  C210   55   4.048   1.871   9.950  0.0374  0.1834  0.8025
    1SAPS  H10R   56   4.100   1.896   9.855  2.5465  1.1834  2.3353
    1SAPS  H10S   57   4.030   1.966  10.004 -2.4196  0.5933 -0.5834
    1SAPS  C211   58   3.921   1.790   9.928 -0.0512 -0.3988 -0.2441
    1SAPS  H11R   59   3.893   1.720  10.008  1.5290 -0.9458 -0.1340
    1SAPS  C212   60   3.836   1.788   9.826 -0.5592 -0.0230  0.7610
    1SAPS  H12R   61   3.751   1.719   9.813  1.1067 -1.7132 -2.1902
    1SAPS  C213   62   3.853   1.881   9.709  0.7725 -0.3043  0.0309
    1SAPS  H13R   63   3.959   1.901   9.683  1.1120  0.6650  1.9938
    1SAPS  H13S   64   3.809   1.983   9.716 -0.3672 -0.8345  0.9936
    1SAPS  C214   65   3.784   1.825   9.590  0.3786 -0.5739 -0.6195
    1SAPS  H14R   66   3.686   1.778   9.608 -0.4399  0.2897 -2.5854
    1SAPS  C215   67   3.814   1.842   9.460 -0.4646 -0.0369 -0.2823
    1SAPS  H15R   68   3.755   1.794   9.381 -1.8009  0.6384  0.2867
    1SAPS  C216   69   3.929   1.918   9.408 -0.1554 -0.5409 -0.4146
    1SAPS  H16R   70   4.021   1.883   9.459 -1.3361 -1.5591  1.0985
    1SAPS  H16S   71   3.904   2.025   9.422 -0.1921 -0.6067  0.0303
    1SAPS  C217   72   3.951   1.895   9.257 -0.2624  0.7178 -0.4068
    1SAPS  H17R   73   3.951   1.788   9.225  0.1649  0.9794 -1.3193
    1SAPS  H17S   74   4.056   1.923   9.235 -0.2170  2.4501  1.7239
    1SAPS  C218   75   3.850   1.984   9.170 -0.0231 -0.8423  0.0152
    1SAPS  H18R   76   3.902   2.082   9.165  0.5995 -1.2271 -2.8964
    1SAPS  H18S   77   3.744   1.990   9.203 -0.1808 -2.1303 -0.1872
    1SAPS  C219   78   3.857   1.949   9.017  0.2297  0.4039 -0.1322
    1SAPS  H19R   79   3.803   1.853   9.001 -1.2993  1.4993 -1.7842
    1SAPS  H19S   80   3.962   1.938   8.983 -0.5989  2.3657 -3.8499
    1SAPS  C220   81   3.791   2.059   8.931 -0.6472 -0.3070 -0.3118
    1SAPS  H20R   82   3.701   2.097   8.984  0.1229  0.2336  0.6289
    1SAPS  H20S   83   3.771   2.012   8.832 -4.2581 -0.2234  0.2283
    1SAPS  H20T   84   3.841   2.158   8.922 -2.3420  0.5403 -0.9778
    1SAPS   C33   85   3.369   1.691  10.165  0.8022 -0.0905 -0.3952
    1SAPS   H3X   86   3.475   1.726  10.163 -0.0950  2.9224 -0.0208
    1SAPS   H3Y   87   3.306   1.782  10.172  0.6236 -0.0236 -2.2625
    1SAPS   C34   88   3.337   1.632  10.024  0.3588  0.0678  0.3365
    1SAPS   H4X   89   3.233   1.603   9.997 -0.0979  1.3149  0.6420
    1SAPS   H4Y   90   3.394   1.537  10.016 -0.9642 -0.7239  0.0118
    1SAPS   C35   91   3.376   1.729   9.907 -0.2527 -0.5679 -0.0210
    1SAPS   H5X   92   3.484   1.747   9.923 -0.9379  0.6206  5.3692
    1SAPS   H5Y   93   3.324   1.826   9.918  2.9965  1.5285 -1.7452
    1SAPS   C36   94   3.339   1.666   9.768 -0.6968 -0.1918 -0.9492
    1SAPS   H6X   95   3.232   1.635   9.774 -0.8859  0.4012 -1.2336
    1SAPS   H6Y   96   3.410   1.581   9.753  1.0744  1.1281 -0.4282
    1SAPS   C37   97   3.358   1.760   9.647  1.0378  0.5975 -0.7175
    1SAPS   H7X   98   3.464   1.792   9.651  1.1682  0.1128 -0.2329
    1SAPS   H7Y   99   3.290   1.848   9.657  0.1047  0.0847 -2.2512
    1SAPS   C38  100   3.315   1.687   9.517 -0.4968 -0.1924 -0.1444
    1SAPS   H8X  101   3.288   1.764   9.441  0.2098 -0.9741 -1.2262
    1SAPS   H8Y  102   3.226   1.623   9.537 -2.3656  2.1506 -0.4638
    1SAPS   C39  103   3.431   1.598   9.470 -0.3076  0.5977 -0.0462
    1SAPS   H9X  104   3.438   1.500   9.522 -0.1834  0.8142  0.3408
    1SAPS   H9Y  105   3.530   1.641   9.493 -0.5266  1.3881 -0.5480
    1SAPS  C310  106   3.430   1.581   9.319  0.4224  0.0702  0.2637
    1SAPS  H10X  107   3.331   1.543   9.287 -0.4725  1.7003  0.9478
    1SAPS  H10Y  108   3.510   1.509   9.291  0.4317  0.1409  0.1071
    1SAPS  C311  109   3.458   1.709   9.243 -0.5944  0.2381  0.3684
    1SAPS  H11X  110   3.535   1.767   9.299  0.5324 -2.0807  1.3213
    1SAPS  H11Y  111   3.360   1.763   9.245 -1.3190 -1.0497  0.6369
    1SAPS  C312  112   3.519   1.683   9.108  0.2610  0.2985  0.2472
    1SAPS  H12X  113   3.628   1.666   9.124  0.0666 -1.4712 -0.1545
    1SAPS  H12Y  114   3.506   1.771   9.041 -1.5478  0.5776  0.9140
    1SAPS  C313  115   3.455   1.570   9.030 -0.4465 -0.0323  0.1888
    1SAPS  H13X  116   3.347   1.558   9.054 -0.5849 -0.8920 -0.7675
    1SAPS  H13Y  117   3.497   1.472   9.061 -0.8924 -0.1262  0.5004
    1SAPS  C314  118   3.475   1.595   8.882 -0.3268  0.0249  0.2353
    1SAPS  H14X  119   3.585   1.597   8.861  0.5594 -1.2229  3.9891
    1SAPS  H14Y  120   3.444   1.698   8.854 -0.9404  0.4628  2.3623
    1SAPS  C315  121   3.417   1.481   8.797 -0.0681  0.4363 -0.0668
    1SAPS  H15X  122   3.446   1.377   8.823 -0.2435  0.4235  0.0847
    1SAPS  H15Y  123   3.460   1.503   8.698 -1.0082 -0.6774 -0.7490
    1SAPS  C316  124   3.268   1.481   8.775  0.0470  1.0597 -0.2487
    1SAPS  H16X  125   3.270   1.421   8.682  0.4088  2.0620 -0.9101
    1SAPS  H16Y  126   3.217   1.579   8.762 -0.1253  1.1484  1.0216
    1SAPS  C317  127   3.174   1.413   8.871  0.4611 -0.3043  0.2784
    1SAPS  H17X  128   3.161   1.469   8.966  2.4992  1.2001 -0.2547
    1SAPS  H17Y  129   3.216   1.314   8.899 -1.6281 -1.8875 -1.8081
    1SAPS  C318  130   3.031   1.401   8.817 -0.4122 -0.3956  0.3124
    1SAPS  H18X  131   3.033   1.340   8.724 -0.7189 -0.3820  0.2970
    1SAPS  H18Y  132   2.982   1.500   8.811  1.2141  0.6660  2.6033
    1SAPS  H18Z  133   2.975   1.344   8.895 -0.0313 -2.7335 -1.0161
    2SAPS     N  134   3.370   2.287  11.211  0.4915 -0.3464  0.2380
    2SAPS   HN1  135   3.276   2.331  11.209  0.5813 -0.1959 -0.8727
    2SAPS   HN2  136   3.348   2.187  11.194 -0.9728 -0.2376  1.2977
    2SAPS   HN3  137   3.426   2.295  11.299  1.9174  0.5215 -0.7128
    2SAPS   C12  138   3.464   2.336  11.102 -0.3641  0.3409 -0.8221
    2SAPS  H12A  139   3.482   2.443  11.109 -0.2837  0.5574 -3.3737
    2SAPS   C13  140   3.592   2.258  11.100  0.3503 -0.2598  0.5133
    2SAPS  O13A  141   3.624   2.175  11.184 -0.4310  0.0126  0.5826
    2SAPS  O13B  142   3.668   2.286  10.999 -0.6477  0.2275 -0.4238
    2SAPS   C11  143   3.388   2.314  10.970 -0.0242 -0.3815  0.3992
    2SAPS  H11A  144   3.368   2.207  10.946 -1.0502  0.3833 -2.6549
    2SAPS  H11B  145   3.456   2.357  10.892  0.3849  0.2815  1.1099
    2SAPS     P  146   3.242   2.526  10.925  0.3506  0.2618  0.2591
    2SAPS   O13  147   3.104   2.546  10.882  0.3232  0.1773  0.1266
    2SAPS   O14  148   3.303   2.614  11.021 -0.1638  0.3078  0.6049
    2SAPS   O12  149   3.263   2.374  10.970  0.2152 -0.5897  0.2516
    2SAPS   O11  150   3.334   2.534  10.802 -0.1924  0.2739  0.3577
    2SAPS    C1  151   3.296   2.488  10.674  0.8638  0.2640  0.0876
    2SAPS    HA  152   3.225   2.403  10.671  0.8792  0.1261  1.9178
    2SAPS    HB  153   3.252   2.573  10.619  1.1746  0.4976  0.1941
    2SAPS    C2  154   3.429   2.443  10.593  0.2674 -0.4527  0.4848
    2SAPS    HS  155   3.484   2.385  10.671  0.4995  0.0635  0.7177
    2SAPS   O21  156   3.506   2.557  10.563 -0.6148  0.1364  0.0572
    2SAPS   C21  157   3.632   2.522  10.542 -0.0039 -0.6888  0.1099
    2SAPS   O22  158   3.687   2.418  10.573  0.5021  0.3619  0.5446
    2SAPS   C22  159   3.701   2.630  10.467  0.1806 -0.5289  0.3234
    2SAPS   H2R  160   3.643   2.645  10.373  0.3232 -2.1786 -0.0567
    2SAPS   H2S  161   3.706   2.717  10.536  1.8674 -1.7778  1.8483
    2SAPS    C3  162   3.399   2.362  10.467 -0.1522  0.1100 -0.5913
    2SAPS    HX  163   3.341   2.273  10.499  0.1336  0.8841  2.3299
    2SAPS    HY  164   3.490   2.316  10.422 -1.1425 -1.4933 -1.0247
    2SAPS   O31  165   3.322   2.433  10.370  0.5538  0.1247  0.1669
    2SAPS   C31  166   3.386   2.469  10.259 -1.0286  0.1265 -0.9257
    2SAPS   O32  167   3.506   2.448  10.241 -0.3670  1.0287  0.1583
    2SAPS   C32  168   3.285   2.499  10.149  0.6103 -0.2344 -0.0672
    2SAPS   H2X  169   3.295   2.608  10.131  0.3907 -0.5756 -2.6017
    2SAPS   H2Y  170   3.181   2.500  10.186 -0.0043  1.4904 -1.6572
    2SAPS   C23  171   3.850   2.609  10.441  0.5285 -0.2485 -0.2358
    2SAPS   H3R  172   3.858   2.509  10.392  1.2612 -0.1221 -0.3957
    2SAPS   H3S  173   3.914   2.602  10.531  2.2384  1.8156 -1.1900
    2SAPS   C24  174   3.904   2.717  10.348  0.2423  0.5684 -0.3814
    2SAPS   H4R  175   3.832   2.727  10.265  1.0325  1.1684 -1.0187
    2SAPS   H4S  176   4.002   2.691  10.303  0.2895 -1.4944  0.7819
    2SAPS   C25  177   3.911   2.846  10.428  0.1471  0.2463  0.2216
    2SAPS   H5R  178   3.953   2.822  10.528  0.4616 -0.1752 -0.0065
    2SAPS   C26  179   3.860   2.968  10.400  0.5159  0.2299 -0.8622
    2SAPS   H6R  180   3.869   3.051  10.472  0.0717 -0.3782 -0.0799
    2SAPS   C27  181   3.782   2.999  10.276  0.5628 -0.5737 -0.6189
    2SAPS   H7R  182   3.836   2.990  10.179  0.3686  1.1424 -0.9179
    2SAPS   H7S  183   3.761   3.108  10.282  0.3452 -0.6629  0.4161
    2SAPS   C28  184   3.646   2.935  10.270  1.1841 -0.5725  0.5587
    2SAPS   H8R  185   3.608   2.916  10.372  0.8315 -0.2808  0.4831
    2SAPS   C29  186   3.573   2.903  10.163 -0.2462  0.4774  0.3417
    2SAPS   H9R  187   3.480   2.847  10.182  0.4361 -0.5548  0.7085
    2SAPS  C210  188   3.613   2.926  10.019  0.4800 -0.7329 -0.4126
    2SAPS  H10R  189   3.712   2.974  10.008  0.5664 -0.2421  1.9978
    2SAPS  H10S  190   3.542   3.000   9.978  0.5388 -1.3018 -1.5813
    2SAPS  C211  191   3.610   2.798   9.939 -0.5195  0.1657 -0.2079
    2SAPS  H11R  192   3.674   2.719   9.979 -1.2789 -0.8984 -1.0331
    2SAPS  C212  193   3.551   2.771   9.823 -0.1222 -0.0962 -0.1925
    2SAPS  H12R  194   3.556   2.670   9.782 -0.6619  0.1796 -0.9660
    2SAPS  C213  195   3.461   2.858   9.739  0.7096  0.0624 -0.0738
    2SAPS  H13R  196   3.431   2.935   9.813  1.9205 -1.9518  2.6937
    2SAPS  H13S  197   3.368   2.800   9.719  1.1877 -0.6183 -0.3904
    2SAPS  C214  198   3.517   2.931   9.614 -0.1718  0.3684 -0.3854
    2SAPS  H14R  199   3.580   3.020   9.630  1.9792 -1.0991 -0.2118
    2SAPS  C215  200   3.472   2.911   9.494 -0.3095  0.3573  0.7163
    2SAPS  H15R  201   3.519   2.971   9.414  0.3710  0.2509  1.0251
    2SAPS  C216  202   3.359   2.814   9.447 -0.2927 -0.3871 -0.5078
    2SAPS  H16R  203   3.279   2.823   9.523  1.6963  2.3588  1.4975
    2SAPS  H16S  204   3.403   2.712   9.441  0.5975  0.0365 -1.6548
    2SAPS  C217  205   3.294   2.833   9.315 -0.6481 -0.2256  0.8602
    2SAPS  H17R  206   3.206   2.767   9.298 -0.2341 -0.6386  0.2730
    2SAPS  H17S  207   3.370   2.823   9.234  1.8785  2.7629  2.6401
    2SAPS  C218  208   3.222   2.964   9.285  0.7022  0.4052 -0.6192
    2SAPS  H18R  209   3.300   3.039   9.260  2.2023 -1.2893 -1.1801
    2SAPS  H18S  210   3.177   3.001   9.380 -0.1574 -2.2060  0.0668
    2SAPS  C219  211   3.100   2.950   9.189 -0.2650 -0.2645 -0.9429
    2SAPS  H19R  212   3.037   3.037   9.218 -0.2832 -0.3586 -0.6947
    2SAPS  H19S  213   3.058   2.848   9.201  1.5233 -0.8456  0.9557
    2SAPS  C220  214   3.134   2.953   9.040  0.2373  0.0000 -0.2203
    2SAPS  H20R  215   3.188   3.048   9.019 -0.3918  0.7292  1.3523
    2SAPS  H20S  216   3.043   2.946   8.977 -0.0271 -2.3659  0.3360
    2SAPS  H20T  217   3.199   2.867   9.013  0.7132  0.5907 -1.0153
    2SAPS   C33  218   3.309   2.434  10.013 -0.4111  0.2619  0.0862
    2SAPS   H3X  219   3.270   2.330  10.007  0.4704 -0.0334 -0.8592
    2SAPS   H3Y  220   3.418   2.434   9.993 -0.6471  0.7854 -1.3315
    2SAPS   C34  221   3.242   2.513   9.904  0.5774 -0.0133  0.2604
    2SAPS   H4X  222   3.286   2.614   9.893 -0.4624  0.1677 -5.0710
    2SAPS   H4Y  223   3.134   2.522   9.931  0.8042 -0.1444  1.2399
    2SAPS   C35  224   3.253   2.451   9.766 -0.0252 -0.3107  0.1958
    2SAPS   H5X  225   3.213   2.348   9.769  4.4458 -2.3898 -1.9573
    2SAPS   H5Y  226   3.360   2.444   9.735 -0.1615  0.8600 -0.6162
    2SAPS   C36  227   3.186   2.538   9.663  0.0834 -0.0804 -0.3219
    2SAPS   H6X  228   3.241   2.632   9.643 -1.2484  0.4337 -1.7314
    2SAPS   H6Y  229   3.085   2.571   9.696  0.3998 -0.3428  1.0056
    2SAPS   C37  230   3.169   2.453   9.528 -0.0457 -0.5179 -0.4079
    2SAPS   H7X  231   3.114   2.359   9.546 -0.3058  0.1297  2.7168
    2SAPS   H7Y  232   3.267   2.437   9.479 -0.4740  2.1192 -2.3263
    2SAPS   C38  233   3.082   2.517   9.424  0.4902 -0.5628  0.2808
    2SAPS   H8X  234   3.125   2.613   9.388  1.6019 -1.3897 -0.6248
    2SAPS   H8Y  235   2.983   2.546   9.467  1.3239 -0.3825  2.1670
    2SAPS   C39  236   3.043   2.437   9.296 -0.1243  0.0059  0.1333
    2SAPS   H9X  237   2.943   2.456   9.252  0.7625  2.1197 -1.1061
    2SAPS   H9Y  238   3.069   2.329   9.308  0.3621 -0.0482 -1.2054
    2SAPS  C310  239   3.126   2.485   9.172  0.2902  0.5260  0.6009
    2SAPS  H10X  240   3.232   2.464   9.197  0.0052 -4.1967 -1.0129
    2SAPS  H10Y  241   3.106   2.589   9.139  0.6205  0.5410  0.4395
    2SAPS  C311  242   3.105   2.395   9.047 -0.0405 -0.8716 -0.1868
    2SAPS  H11X  243   3.008   2.422   9.000 -0.2904  0.1188  0.8374
    2SAPS  H11Y  244   3.101   2.287   9.073  0.3766 -0.9397 -0.3950
    2SAPS  C312  245   3.207   2.427   8.937 -0.3682  0.0498  0.0086
    2SAPS  H12X  246   3.148   2.389   8.851 -1.7916  1.5589  0.2741
    2SAPS  H12Y  247   3.304   2.372   8.948  0.0270  0.8039  0.3414
    2SAPS  C313  248   3.227   2.574   8.909 -0.1222 -0.4762 -0.3623
    2SAPS  H13X  249   3.288   2.621   8.989  0.2049 -1.5414  0.0299
    2SAPS  H13Y  250   3.125   2.618   8.906  0.2521  0.3464 -1.0716
    2SAPS  C314  251   3.296   2.593   8.768  0.3319  0.2465 -0.5857
    2SAPS  H14X  252   3.286   2.699   8.738  0.2201  1.0511  2.0562
    2SAPS  H14Y  253   3.237   2.537   8.691 -0.7163 -0.1339  0.4491
    2SAPS  C315  254   3.439   2.561   8.762 -0.7206 -0.5701 -0.1485
    2SAPS  H15X  255   3.461   2.452   8.752  1.7256 -0.3640  1.9303
    2SAPS  H15Y  256   3.494   2.595   8.852 -0.3244  0.6640 -0.8500
    2SAPS  C316  257   3.515   2.637   8.645 -0.3124  0.4043 -0.5469
    2SAPS  H16X  258   3.516   2.747   8.660 -0.0319  0.4185 -0.6706
    2SAPS  H16Y  259   3.450   2.630   8.555 -2.3917  4.4239  0.3995
    2SAPS  C317  260   3.662   2.599   8.629  0.1343 -0.0483 -0.2335
    2SAPS  H17X  261   3.706   2.638   8.535  1.2247  2.2366  1.1213
    2SAPS  H17Y  262   3.669   2.489   8.624 -3.6469 -0.3449 -2.1037
    2SAPS  C318  263   3.757   2.651   8.738 -0.4463 -0.2709 -0.4126
    2SAPS  H18X  264   3.861   2.633   8.704 -0.1627  1.0907 -0.3190
    2SAPS  H18Y  265   3.732   2.600   8.834  1.6282 -0.2090  0.2098
    2SAPS  H18Z  266   3.738   2.761   8.739 -2.4640 -0.5416  2.1563
    3SAPS     N  267   5.165   3.307  11.164  0.5917 -0.0645  0.9692
    3SAPS   HN1  268   5.105   3.226  11.191 -1.4178  1.0913  0.1642
    3SAPS   HN2  269   5.246   3.293  11.100  1.3286 -0.4935  1.9676
    3SAPS   HN3  270   5.214   3.330  11.253  1.5744 -1.5965  0.8636
    3SAPS   C12  271   5.101   3.421  11.102  0.0807  0.3850  0.1362
    3SAPS  H12A  272   5.047   3.470  11.181 -0.0476  0.3309  0.0811
    3SAPS   C13  273   5.199   3.520  11.039  0.0996 -0.2236  0.5362
    3SAPS  O13A  274   5.324   3.499  11.028 -0.2953  0.6042  0.0173
    3SAPS  O13B  275   5.160   3.642  11.028 -0.5702  0.3779 -0.4689
    3SAPS   C11  276   5.000   3.371  10.998  0.1682  0.2343  0.5567
    3SAPS  H11A  277   5.052   3.320  10.914  1.2778  0.3923  1.1241
    3SAPS  H11B  278   4.959   3.469  10.967 -0.6379  0.2133  1.5031
    3SAPS     P  279   4.784   3.237  10.953 -0.1376 -0.2270 -0.4847
    3SAPS   O13  280   4.786   3.090  10.938  0.0228 -0.1119  0.1671
    3SAPS   O14  281   4.656   3.296  11.005  0.0883  0.1496 -0.2999
    3SAPS   O12  282   4.900   3.281  11.048 -0.1386 -0.1895 -0.2179
    3SAPS   O11  283   4.820   3.310  10.815  0.2194 -0.0838  0.1248
    3SAPS    C1  284   4.719   3.388  10.745  0.0149  0.1577  0.1155
    3SAPS    HA  285   4.663   3.447  10.820  2.4717  4.2850 -0.9488
    3SAPS    HB  286   4.783   3.451  10.678  0.6468 -1.4037 -0.8091
    3SAPS    C2  287   4.625   3.297  10.655 -0.5816 -0.2240 -0.1746
    3SAPS    HS  288   4.579   3.221  10.721 -1.9012  0.1605 -0.6258
    3SAPS   O21  289   4.701   3.251  10.548 -0.0888  0.0161  0.8084
    3SAPS   C21  290   4.696   3.123  10.525  0.3234 -0.2515  1.0027
    3SAPS   O22  291   4.632   3.044  10.590 -0.9621 -0.3549 -0.5991
    3SAPS   C22  292   4.770   3.092  10.397 -0.3292 -0.1158  0.0063
    3SAPS   H2R  293   4.765   3.182  10.332  0.0510  2.0266  2.7800
    3SAPS   H2S  294   4.876   3.095  10.427 -0.0495 -0.2550 -0.9277
    3SAPS    C3  295   4.502   3.384  10.610 -0.4066 -0.3289  0.2117
    3SAPS    HX  296   4.553   3.467  10.558  0.7826 -0.7912  0.6179
    3SAPS    HY  297   4.446   3.428  10.696  0.9320 -0.4286  1.1614
    3SAPS   O31  298   4.425   3.308  10.511 -0.3715  0.1142 -0.3542
    3SAPS   C31  299   4.333   3.235  10.571 -0.1867 -0.1390 -0.1948
    3SAPS   O32  300   4.308   3.233  10.691 -0.6047  0.1208  0.6006
    3SAPS   C32  301   4.262   3.146  10.466  0.2575  0.0378 -0.0463
    3SAPS   H2X  302   4.151   3.150  10.476  0.2390 -1.6799  0.7399
    3SAPS   H2Y  303   4.310   3.049  10.489  0.2953  0.4496  1.8402
    3SAPS   C23  304   4.726   2.970  10.329  0.3027 -0.0866 -0.3737
    3SAPS   H3R  305   4.714   2.885  10.398 -1.1130 -1.4062 -2.1416
    3SAPS   H3S  306   4.814   2.938  10.270 -0.1411 -2.5384  0.1975
    3SAPS   C24  307   4.606   2.970  10.236 -0.2225  0.0912 -0.3218
    3SAPS   H4R  308   4.618   3.057  10.167  0.7426  2.3386  2.4923
    3SAPS   H4S  309   4.512   2.980  10.294  0.7732 -0.2954  1.4202
    3SAPS   C25  310   4.600   2.836  10.182 -0.4935 -0.5811  0.3077
    3SAPS   H5R  311   4.568   2.756  10.251  1.0579  0.6388  2.5620
    3SAPS   C26  312   4.623   2.811  10.053  0.6527  0.7185  0.3890
    3SAPS   H6R  313   4.632   2.705  10.027  0.2948  0.9174 -0.5762
    3SAPS   C27  314   4.646   2.899   9.937  0.4986 -0.9200  0.6277
    3SAPS   H7R  315   4.743   2.885   9.884  0.7022  1.0006  0.4160
    3SAPS   H7S  316   4.658   3.004   9.971  0.4250  0.1773 -2.4002
    3SAPS   C28  317   4.539   2.898   9.823 -0.3267  0.4870 -0.4165
    3SAPS   H8R  318   4.438   2.915   9.863 -0.2508 -0.0174  0.0004
    3SAPS   C29  319   4.560   2.886   9.688 -0.8648 -0.3370 -0.1824
    3SAPS   H9R  320   4.472   2.889   9.622 -0.4581  0.2454 -0.7078
    3SAPS  C210  321   4.699   2.858   9.623  0.7522 -0.4310  0.0771
    3SAPS  H10R  322   4.690   2.756   9.579 -1.2741  0.1131 -0.8776
    3SAPS  H10S  323   4.785   2.865   9.694  0.8689 -0.6561 -0.0382
    3SAPS  C211  324   4.739   2.961   9.512  0.0133 -0.3132  0.0297
    3SAPS  H11R  325   4.730   3.068   9.533 -1.7439 -0.3897 -0.1544
    3SAPS  C212  326   4.780   2.930   9.386 -0.1091 -0.4458 -0.8746
    3SAPS  H12R  327   4.804   3.018   9.324  1.2996 -0.5974 -0.5863
    3SAPS  C213  328   4.785   2.791   9.326 -0.0982  0.4637 -0.4405
    3SAPS  H13R  329   4.687   2.758   9.283 -0.7823 -0.8975  1.9980
    3SAPS  H13S  330   4.805   2.720   9.408 -2.8307 -0.6713 -0.6341
    3SAPS  C214  331   4.896   2.788   9.211  0.1199  0.5714 -0.1076
    3SAPS  H14R  332   4.990   2.753   9.255 -0.0893  0.6795  0.4322
    3SAPS  C215  333   4.895   2.813   9.080  0.0476  0.6142 -0.0664
    3SAPS  H15R  334   4.987   2.814   9.018 -0.3207 -2.0026 -0.7750
    3SAPS  C216  335   4.768   2.861   9.008  0.2574 -0.6153 -0.5629
    3SAPS  H16R  336   4.676   2.820   9.056 -0.2998 -2.1765 -2.8463
    3SAPS  H16S  337   4.765   2.820   8.905 -0.7170 -1.0346 -0.3767
    3SAPS  C217  338   4.760   3.014   9.004  0.2555 -0.4129  0.3394
    3SAPS  H17R  339   4.851   3.058   8.957  0.9366 -1.5130  0.5670
    3SAPS  H17S  340   4.774   3.045   9.110 -1.1571  1.6058 -0.0212
    3SAPS  C218  341   4.629   3.068   8.947  0.5979  0.5060 -0.2791
    3SAPS  H18R  342   4.604   3.166   8.993 -1.7882  0.1009 -0.6223
    3SAPS  H18S  343   4.545   3.002   8.977  1.8535 -1.1123 -0.1591
    3SAPS  C219  344   4.624   3.073   8.801 -0.3313  0.4662  0.4891
    3SAPS  H19R  345   4.650   2.976   8.753 -1.8686 -0.4726  1.4785
    3SAPS  H19S  346   4.701   3.144   8.764  1.0303 -0.5632  1.2588
    3SAPS  C220  347   4.486   3.089   8.739 -0.8986  0.2385 -0.0038
    3SAPS  H20R  348   4.431   2.994   8.754 -1.8177  0.3200 -2.3304
    3SAPS  H20S  349   4.487   3.115   8.631  0.4839 -1.8652 -0.5446
    3SAPS  H20T  350   4.427   3.161   8.800  1.1933  0.5299  1.7563
    3SAPS   C33  351   4.300   3.170  10.316  0.7344  0.1936  0.0636
    3SAPS   H3X  352   4.411   3.169  10.309  0.6847 -1.6083 -1.2033
    3SAPS   H3Y  353   4.271   3.276  10.300  0.9196  0.3395  0.6634
    3SAPS   C34  354   4.226   3.092  10.210 -0.1202 -0.7128  1.1416
    3SAPS   H4X  355   4.119   3.118  10.226  0.4262  1.9066  1.0609
    3SAPS   H4Y  356   4.247   2.984  10.200  1.0636 -0.3258 -0.9719
    3SAPS   C35  357   4.256   3.141  10.072  0.8841 -0.2211  0.0644
    3SAPS   H5X  358   4.366   3.152  10.059  0.8630 -0.0902 -0.0009
    3SAPS   H5Y  359   4.219   3.245  10.061 -0.5891 -0.8864 -1.6624
    3SAPS   C36  360   4.197   3.054   9.962  0.1578  0.4819 -0.5299
    3SAPS   H6X  361   4.228   2.948   9.958 -1.8158 -0.1284 -1.0562
    3SAPS   H6Y  362   4.215   3.101   9.863 -5.4487 -0.7276 -2.4914
    3SAPS   C37  363   4.044   3.038   9.977  0.2943 -0.3965  0.1403
    3SAPS   H7X  364   4.000   3.132  10.015  0.2471  0.3164 -1.6092
    3SAPS   H7Y  365   4.028   2.958  10.053  0.8332 -0.3618  0.2949
    3SAPS   C38  366   3.976   3.004   9.850  0.3340  0.3625  1.2877
    3SAPS   H8X  367   3.876   2.959   9.867  1.7837 -2.6948  2.3324
    3SAPS   H8Y  368   4.034   2.921   9.804  1.5611  1.6205  0.4986
    3SAPS   C39  369   3.965   3.122   9.750  0.8480 -0.8624 -0.2267
    3SAPS   H9X  370   4.059   3.148   9.698  0.6059 -0.2124 -0.3420
    3SAPS   H9Y  371   3.935   3.215   9.802  2.7111  0.3917 -1.3191
    3SAPS  C310  372   3.869   3.097   9.632  0.1903  0.3714  0.0511
    3SAPS  H10X  373   3.852   3.192   9.576  1.4913 -0.3890 -1.7396
    3SAPS  H10Y  374   3.777   3.043   9.662  0.4906 -0.8782 -1.1829
    3SAPS  C311  375   3.945   3.016   9.528 -0.1138  0.3160  0.1618
    3SAPS  H11X  376   4.005   2.940   9.584  0.7610  1.4633  0.8419
    3SAPS  H11Y  377   4.021   3.073   9.471  0.2776 -0.6547 -0.3140
    3SAPS  C312  378   3.860   2.934   9.424 -0.3486  0.0348 -0.3482
    3SAPS  H12X  379   3.776   2.887   9.479  1.4931 -1.5413  1.2581
    3SAPS  H12Y  380   3.926   2.856   9.380 -0.0578  0.2304 -0.2685
    3SAPS  C313  381   3.814   3.029   9.311 -0.0640 -0.6051  0.2284
    3SAPS  H13X  382   3.893   3.101   9.283 -1.2148  1.1711  1.3682
    3SAPS  H13Y  383   3.736   3.092   9.359 -1.7834 -0.4907 -2.4858
    3SAPS  C314  384   3.759   2.953   9.192 -0.2119 -1.2257  0.4446
    3SAPS  H14X  385   3.696   2.872   9.232  0.4109 -3.3111 -2.4690
    3SAPS  H14Y  386   3.841   2.894   9.145 -1.5275 -2.0975 -0.8393
    3SAPS  C315  387   3.688   3.036   9.083  0.5148  0.5357 -0.5434
    3SAPS  H15X  388   3.753   3.094   9.015 -0.7642  2.0968 -0.5093
    3SAPS  H15Y  389   3.631   3.115   9.136  3.2066  1.7288  0.7651
    3SAPS  C316  390   3.590   2.945   8.996 -0.0608  0.0934  0.2585
    3SAPS  H16X  391   3.528   2.877   9.058  1.5910 -0.9132  0.8597
    3SAPS  H16Y  392   3.660   2.887   8.931 -1.0903  0.6281 -1.3971
    3SAPS  C317  393   3.504   3.038   8.914 -0.0004  0.2575 -0.4093
    3SAPS  H17X  394   3.568   3.122   8.880 -2.1608  1.4943 -1.6060
    3SAPS  H17Y  395   3.428   3.070   8.988  3.3368 -0.1159  3.5141
    3SAPS  C318  396   3.428   2.977   8.793 -0.1637  0.1245  0.1576
    3SAPS  H18X  397   3.348   3.044   8.755 -0.6737 -1.3258 -1.4690
    3SAPS  H18Y  398   3.380   2.883   8.827 -0.4492 -0.4631 -1.7671
    3SAPS  H18Z  399   3.491   2.956   8.704 -2.1787  1.6620 -1.7651
    4SAPS     N  400   6.819   5.379  10.751 -0.3642  0.1561  0.0537
    4SAPS   HN1  401   6.920   5.403  10.747 -0.1229 -0.9168 -1.9356
    4SAPS   HN2  402   6.818   5.290  10.697 -1.1193 -1.0923  2.0351
    4SAPS   HN3  403   6.752   5.436  10.696 -2.5672 -1.2338  1.1671
    4SAPS   C12  404   6.773   5.351  10.881  0.2257 -0.0715  0.3446
    4SAPS  H12A  405   6.850   5.285  10.918  0.2800  0.8034  1.8803
    4SAPS   C13  406   6.764   5.471  10.977  0.3351 -0.5495  0.0570
    4SAPS  O13A  407   6.808   5.585  10.949  0.3051 -0.1975  0.0459
    4SAPS  O13B  408   6.699   5.454  11.088 -0.1429 -0.1657  0.2220
    4SAPS   C11  409   6.633   5.283  10.866  0.7929 -0.3325 -0.0402
    4SAPS  H11A  410   6.594   5.260  10.968 -1.0219  1.6438 -0.2198
    4SAPS  H11B  411   6.640   5.187  10.812 -1.6287 -0.9951  0.7100
    4SAPS     P  412   6.383   5.330  10.790  0.2845  0.1130 -0.2587
    4SAPS   O13  413   6.352   5.247  10.902  0.0315  0.0184 -0.0219
    4SAPS   O14  414   6.310   5.456  10.771  0.4599 -0.0453  0.3427
    4SAPS   O12  415   6.540   5.369  10.797 -0.2950  0.3984  0.8477
    4SAPS   O11  416   6.379   5.245  10.657  0.2907  0.2639  0.3381
    4SAPS    C1  417   6.449   5.296  10.538 -0.1876  0.5746  0.0757
    4SAPS    HA  418   6.430   5.403  10.513 -0.0624  0.2002 -1.7121
    4SAPS    HB  419   6.558   5.274  10.548  0.0177  0.6838 -1.6399
    4SAPS    C2  420   6.407   5.221  10.405 -0.0440 -0.4230 -0.5248
    4SAPS    HS  421   6.298   5.230  10.388  0.2679  0.6278 -2.1483
    4SAPS   O21  422   6.450   5.083  10.409 -0.1126 -0.4315  0.4836
    4SAPS   C21  423   6.392   4.994  10.332  0.0356  0.1640  0.6405
    4SAPS   O22  424   6.287   5.000  10.272  0.5393 -0.2566  0.5797
    4SAPS   C22  425   6.476   4.868  10.346 -0.9170  0.0395  0.0203
    4SAPS   H2R  426   6.563   4.882  10.279  0.3506 -0.5955  1.4717
    4SAPS   H2S  427   6.515   4.857  10.449  1.2725  0.8603 -0.6583
    4SAPS    C3  428   6.470   5.299  10.281 -0.0532  0.2976 -0.4777
    4SAPS    HX  429   6.580   5.291  10.287  0.1963  1.4991 -2.5867
    4SAPS    HY  430   6.446   5.408  10.286  0.0142  0.4237 -2.2348
    4SAPS   O31  431   6.427   5.250  10.153  0.2526  0.2670  0.3649
    4SAPS   C31  432   6.304   5.278  10.113 -0.6798 -0.3495  0.3900
    4SAPS   O32  433   6.215   5.325  10.179 -0.2270 -0.5095 -0.4402
    4SAPS   C32  434   6.304   5.239   9.968  0.1296  0.3677  0.2423
    4SAPS   H2X  435   6.304   5.128   9.972  1.1487  0.3787  0.6399
    4SAPS   H2Y  436   6.396   5.263   9.912 -0.8335 -0.4762 -1.8192
    4SAPS   C23  437   6.412   4.741  10.284  0.6420 -0.0328 -0.5631
    4SAPS   H3R  438   6.306   4.743  10.319  0.5752  1.3009 -0.8076
    4SAPS   H3S  439   6.469   4.653  10.320 -1.1251 -1.0944 -0.2007
    4SAPS   C24  440   6.401   4.750  10.132 -0.5407 -0.8585 -0.6334
    4SAPS   H4R  441   6.382   4.851  10.090 -0.1321 -1.3703 -2.1238
    4SAPS   H4S  442   6.308   4.694  10.110 -1.2244 -0.1597  0.3920
    4SAPS   C25  443   6.525   4.702  10.065  0.2447 -0.0229  0.4537
    4SAPS   H5R  444   6.613   4.682  10.128 -1.3271 -1.5280  2.2734
    4SAPS   C26  445   6.542   4.695   9.930  0.1942 -0.4528 -0.7666
    4SAPS   H6R  446   6.641   4.674   9.886 -0.0815 -0.3739 -1.4330
    4SAPS   C27  447   6.431   4.711   9.826  0.8437  0.5947 -0.3253
    4SAPS   H7R  448   6.469   4.762   9.735 -2.0144 -0.3522 -2.1582
    4SAPS   H7S  449   6.354   4.773   9.877  0.9630 -0.5635  1.3526
    4SAPS   C28  450   6.383   4.569   9.789 -0.4161 -0.6182  0.0911
    4SAPS   H8R  451   6.309   4.536   9.863  0.3576  0.2547  1.2774
    4SAPS   C29  452   6.416   4.496   9.680 -0.1940 -0.5605  0.3685
    4SAPS   H9R  453   6.386   4.390   9.684  0.1692 -0.6484  3.2511
    4SAPS  C210  454   6.513   4.544   9.576 -0.7302 -0.4554 -0.2433
    4SAPS  H10R  455   6.597   4.588   9.633 -1.0502  0.5457 -0.5308
    4SAPS  H10S  456   6.458   4.624   9.523 -0.6639  0.8293  1.5444
    4SAPS  C211  457   6.557   4.435   9.483 -0.4349  0.8270 -0.4225
    4SAPS  H11R  458   6.596   4.340   9.523  0.5846  1.3789 -0.0788
    4SAPS  C212  459   6.555   4.439   9.345  0.0758 -0.4330  0.5817
    4SAPS  H12R  460   6.609   4.355   9.299  2.6559  0.5085  1.6798
    4SAPS  C213  461   6.508   4.549   9.257  0.0427 -0.6991 -0.3092
    4SAPS  H13R  462   6.578   4.557   9.172  0.9623  1.1268  0.5719
    4SAPS  H13S  463   6.509   4.650   9.303 -0.3040 -0.4109 -0.9196
    4SAPS  C214  464   6.374   4.529   9.193 -0.7670 -0.0598  0.3032
    4SAPS  H14R  465   6.356   4.422   9.174  1.3785 -0.5550  0.8398
    4SAPS  C215  466   6.286   4.629   9.162  0.6211 -0.4959 -1.1518
    4SAPS  H15R  467   6.185   4.594   9.139 -0.9612  2.9744 -0.2325
    4SAPS  C216  468   6.291   4.775   9.179  0.4553 -0.3680  0.1740
    4SAPS  H16R  469   6.264   4.825   9.083  1.8130  0.9490  0.4423
    4SAPS  H16S  470   6.397   4.794   9.206 -0.1494  1.0328  1.7746
    4SAPS  C217  471   6.201   4.823   9.289  0.3516 -0.6972  0.0779
    4SAPS  H17R  472   6.237   4.783   9.386 -0.5239  1.8447  1.5390
    4SAPS  H17S  473   6.094   4.795   9.273 -0.0015  0.3731  0.5059
    4SAPS  C218  474   6.194   4.982   9.295 -0.4036 -0.3020  0.5785
    4SAPS  H18R  475   6.124   5.016   9.374  1.0835  1.2408  1.2815
    4SAPS  H18S  476   6.163   5.020   9.195 -2.8367 -0.7604  1.1052
    4SAPS  C219  477   6.324   5.061   9.339 -0.1838 -0.3362 -0.3264
    4SAPS  H19R  478   6.306   5.170   9.340  1.7077  0.0074  0.4063
    4SAPS  H19S  479   6.392   5.058   9.250  0.1812  3.1119 -0.2885
    4SAPS  C220  480   6.384   5.012   9.472 -0.4451  0.5789  0.6250
    4SAPS  H20R  481   6.335   5.044   9.566 -2.9333  0.8251 -0.6761
    4SAPS  H20S  482   6.487   5.053   9.478  0.1474 -0.6021 -0.8511
    4SAPS  H20T  483   6.387   4.901   9.481  1.8126  0.5994  0.6126
    4SAPS   C33  484   6.182   5.301   9.895  0.2413 -0.2595  0.4021
    4SAPS   H3X  485   6.199   5.411   9.892  0.1282 -0.1105  2.9283
    4SAPS   H3Y  486   6.085   5.286   9.948 -0.4203 -0.6237 -0.8638
    4SAPS   C34  487   6.160   5.250   9.752 -0.8134 -0.1587 -0.8291
    4SAPS   H4X  488   6.101   5.156   9.760 -1.8928  0.3483 -2.3267
    4SAPS   H4Y  489   6.258   5.236   9.701 -0.6876 -2.2885 -0.0826
    4SAPS   C35  490   6.071   5.335   9.662 -0.1140  0.0371  0.1507
    4SAPS   H5X  491   6.121   5.434   9.655  2.4278 -1.1018  0.9652
    4SAPS   H5Y  492   5.970   5.360   9.702 -0.2525  1.3561 -0.9572
    4SAPS   C36  493   6.064   5.282   9.517 -0.2350 -0.5917 -0.7174
    4SAPS   H6X  494   6.056   5.171   9.511 -1.6670 -0.7359  2.1756
    4SAPS   H6Y  495   6.169   5.295   9.482  0.1149  0.1046  0.5307
    4SAPS   C37  496   5.955   5.343   9.433  0.8394  0.3419 -0.2935
    4SAPS   H7X  497   5.951   5.454   9.447  1.9553  0.2813  0.7109
    4SAPS   H7Y  498   5.865   5.287   9.466  2.3185 -3.3948 -2.1194
    4SAPS   C38  499   5.978   5.310   9.280 -0.1203  0.2736  0.3989
    4SAPS   H8X  500   5.985   5.200   9.268  0.2179  0.4629 -1.3541
    4SAPS   H8Y  501   6.073   5.357   9.246 -0.9102  0.6001 -1.4558
    4SAPS   C39  502   5.854   5.328   9.192 -0.2947  0.9005  0.4448
    4SAPS   H9X  503   5.827   5.436   9.187 -0.7918  0.8222  1.2436
    4SAPS   H9Y  504   5.769   5.286   9.250  0.0679  0.8974  0.9848
    4SAPS  C310  505   5.867   5.261   9.057 -0.1598  0.1862  0.3872
    4SAPS  H10X  506   5.857   5.151   9.054 -2.1421  0.3350  0.7667
    4SAPS  H10Y  507   5.962   5.286   9.003 -1.2777 -1.0066 -2.3238
    4SAPS  C311  508   5.775   5.312   8.953 -0.5510  0.3999 -0.8370
    4SAPS  H11X  509   5.669   5.302   8.985 -0.0680  1.9169  1.4513
    4SAPS  H11Y  510   5.776   5.239   8.869 -0.6593 -2.2224  1.3074
    4SAPS  C312  511   5.797   5.455   8.906 -0.8494  0.1761 -0.3245
    4SAPS  H12X  512   5.885   5.451   8.838 -0.8705 -0.1699 -0.3333
    4SAPS  H12Y  513   5.815   5.520   8.994  1.4388  0.5706 -1.0283
    4SAPS  C313  514   5.679   5.511   8.815 -0.7684  0.6528 -0.3006
    4SAPS  H13X  515   5.714   5.608   8.772 -0.5635  0.3587 -0.8091
    4SAPS  H13Y  516   5.601   5.542   8.888  0.1180 -2.9219  2.4515
    4SAPS  C314  517   5.611   5.416   8.718  0.2193 -0.1540 -0.8339
    4SAPS  H14X  518   5.508   5.451   8.697 -0.7973 -0.0869  3.3201
    4SAPS  H14Y  519   5.600   5.315   8.764  2.1046  0.2637  0.7280
    4SAPS  C315  520   5.694   5.399   8.590 -0.0975 -0.2871  0.4521
    4SAPS  H15X  521   5.790   5.353   8.621 -0.2500 -0.4880  0.6237
    4SAPS  H15Y  522   5.706   5.504   8.554  0.3915  0.1429  1.8026
    4SAPS  C316  523   5.627   5.316   8.482  0.0130  0.0347  0.2150
    4SAPS  H16X  524   5.690   5.351   8.397  1.7613 -3.5225 -0.1214
    4SAPS  H16Y  525   5.517   5.326   8.471  0.1395  0.8367 -0.4898
    4SAPS  C317  526   5.644   5.164   8.494  0.1385 -0.2291 -0.0680
    4SAPS  H17X  527   5.584   5.128   8.580  1.6173 -0.6351  0.8277
    4SAPS  H17Y  528   5.750   5.150   8.521  0.4460 -0.6974 -1.4396
    4SAPS  C318  529   5.621   5.079   8.370  1.1667 -0.0877  0.7480
    4SAPS  H18X  530   5.697   5.100   8.292  0.9978  1.8884  1.0596
    4SAPS  H18Y  531   5.519   5.108   8.335  0.9248  0.6781  2.0409
    4SAPS  H18Z  532   5.623   4.970   8.389 -0.5840 -0.2624  0.1508
    5SAPS     N  533   3.388   3.273  11.305 -0.0449  0.2797 -0.4112
    5SAPS   HN1  534   3.372   3.248  11.405  1.3861  0.5427 -0.0799
    5SAPS   HN2  535   3.303   3.243  11.255 -1.0874  0.5706  1.1094
    5SAPS   HN3  536   3.467   3.217  11.268 -0.0558 -0.4080  0.5783
    5SAPS   C12  537   3.407   3.414  11.286  0.3430  0.5594 -0.1388
    5SAPS  H12A  538   3.321   3.471  11.317  0.1992  0.4808 -0.3904
    5SAPS   C13  539   3.539   3.473  11.347 -0.2918  0.6690  0.1460
    5SAPS  O13A  540   3.593   3.406  11.438 -0.6076 -0.4048  0.1816
    5SAPS  O13B  541   3.551   3.602  11.347 -0.0260  0.6329 -0.2113
    5SAPS   C11  542   3.425   3.444  11.137 -0.5503 -0.2256  0.6676
    5SAPS  H11A  543   3.512   3.384  11.103 -1.7453 -1.9863  0.6066
    5SAPS  H11B  544   3.446   3.552  11.121  0.9412 -0.4874  0.7012
    5SAPS     P  545   3.255   3.492  10.944  0.3496  0.0269  0.0955
    5SAPS   O13  546   3.229   3.399  10.829  0.8669  0.2568  0.0493
    5SAPS   O14  547   3.144   3.566  11.004  0.0676 -0.7264  0.3496
    5SAPS   O12  548   3.311   3.403  11.060 -0.3373  0.1387 -0.2400
    5SAPS   O11  549   3.368   3.586  10.908 -0.2574 -0.2435  0.1769
    5SAPS    C1  550   3.363   3.723  10.893  0.3127 -0.2698  0.4825
    5SAPS    HA  551   3.313   3.780  10.974  2.0105  0.5633  1.0093
    5SAPS    HB  552   3.471   3.752  10.897  0.5902 -0.9928 -0.9247
    5SAPS    C2  553   3.313   3.790  10.755 -1.0576  0.3623 -0.0969
    5SAPS    HS  554   3.214   3.742  10.746 -0.9892  0.3132 -0.5722
    5SAPS   O21  555   3.408   3.770  10.648  0.1867  0.9460  0.6641
    5SAPS   C21  556   3.433   3.653  10.595  0.1946  0.2651 -0.6233
    5SAPS   O22  557   3.374   3.545  10.619  0.7654 -0.4115  0.5210
    5SAPS   C22  558   3.546   3.669  10.494 -1.0624 -0.9982 -0.1386
    5SAPS   H2R  559   3.538   3.585  10.422  0.5906 -0.9051 -0.4636
    5SAPS   H2S  560   3.535   3.766  10.440  1.6969 -0.5521 -0.0369
    5SAPS    C3  561   3.284   3.949  10.756 -1.1086  0.2768 -0.3551
    5SAPS    HX  562   3.372   3.995  10.808  0.3622 -2.2499 -0.4577
    5SAPS    HY  563   3.196   3.967  10.822 -1.4763  0.1097 -0.7976
    5SAPS   O31  564   3.255   3.997  10.626 -0.0762 -0.2374 -0.2199
    5SAPS   C31  565   3.353   4.066  10.564 -0.0498  0.4170  0.6768
    5SAPS   O32  566   3.464   4.091  10.611 -0.4557  0.1115  0.0794
    5SAPS   C32  567   3.312   4.096  10.419  0.0067 -0.4479 -0.2131
    5SAPS   H2X  568   3.342   4.199  10.391  0.1097 -0.3521  0.2365
    5SAPS   H2Y  569   3.201   4.095  10.413  0.0154  1.0169 -1.0979
    5SAPS   C23  570   3.684   3.663  10.559  0.1088  0.1025  0.3001
    5SAPS   H3R  571   3.758   3.665  10.477  2.1753 -1.0635  2.0220
    5SAPS   H3S  572   3.695   3.566  10.611  1.6298 -0.7164 -1.4601
    5SAPS   C24  573   3.717   3.780  10.652 -0.8182 -0.2195  0.5324
    5SAPS   H4R  574   3.809   3.755  10.709 -0.9299 -0.3297  0.6687
    5SAPS   H4S  575   3.642   3.783  10.735 -0.2300  2.9298  1.0710
    5SAPS   C25  576   3.715   3.919  10.595  0.0349  0.1188  0.0688
    5SAPS   H5R  577   3.622   3.934  10.538 -0.2963 -0.7334  0.3746
    5SAPS   C26  578   3.797   4.024  10.598 -0.7582  0.2375 -0.5805
    5SAPS   H6R  579   3.765   4.119  10.553  0.3626 -0.1358 -2.2368
    5SAPS   C27  580   3.923   4.016  10.680 -0.2518 -0.8004  0.2157
    5SAPS   H7R  581   3.941   3.914  10.721 -0.3031 -1.5046 -1.4055
    5SAPS   H7S  582   3.902   4.072  10.773  2.8064  1.1108 -0.0839
    5SAPS   C28  583   4.047   4.068  10.614 -0.1281  0.0572  0.8263
    5SAPS   H8R  584   4.076   3.998  10.535 -1.0484  0.0180  0.5118
    5SAPS   C29  585   4.133   4.170  10.647 -0.1840  0.4474  0.2980
    5SAPS   H9R  586   4.219   4.195  10.582 -1.2295  0.5845 -1.0880
    5SAPS  C210  587   4.115   4.257  10.767 -1.0255 -0.4534  0.2761
    5SAPS  H10R  588   4.024   4.234  10.826 -3.1713  1.0649 -2.1822
    5SAPS  H10S  589   4.088   4.359  10.730 -0.0337 -0.3480 -0.1975
    5SAPS  C211  590   4.245   4.273  10.853  0.4006 -0.5625 -0.0258
    5SAPS  H11R  591   4.325   4.329  10.801  0.0431 -0.2852 -0.2786
    5SAPS  C212  592   4.259   4.212  10.972  0.1879 -0.0396 -0.8664
    5SAPS  H12R  593   4.345   4.250  11.029  0.1222  0.6095 -1.1880
    5SAPS  C213  594   4.154   4.134  11.047  0.3615 -0.2813  0.5385
    5SAPS  H13R  595   4.089   4.085  10.972 -1.6462  0.8178  1.4912
    5SAPS  H13S  596   4.069   4.196  11.083 -0.6593  0.4059 -2.7869
    5SAPS  C214  597   4.199   4.042  11.155 -0.2006  0.2203  0.2393
    5SAPS  H14R  598   4.289   3.987  11.123  1.0561  2.4065 -0.1403
    5SAPS  C215  599   4.161   4.031  11.288 -0.4042  0.2577  0.0361
    5SAPS  H15R  600   4.206   3.952  11.351  0.4704  0.2199 -0.6118
    5SAPS  C216  601   4.051   4.108  11.352  0.0949 -0.5039  0.1869
    5SAPS  H16R  602   4.023   4.200  11.297  0.5131 -0.5650 -0.1247
    5SAPS  H16S  603   4.075   4.141  11.455 -2.5345 -0.1897  0.7816
    5SAPS  C217  604   3.928   4.017  11.346  0.0093 -0.3758  0.0914
    5SAPS  H17R  605   3.847   4.050  11.414 -0.9874  2.0730 -2.1007
    5SAPS  H17S  606   3.959   3.912  11.365 -3.3386 -1.4594  0.1526
    5SAPS  C218  607   3.874   4.011  11.201  0.2008 -0.6445  0.4236
    5SAPS  H18R  608   3.823   4.105  11.173  0.8070 -0.6553 -0.7664
    5SAPS  H18S  609   3.949   3.982  11.125 -1.8668  0.5332 -2.2080
    5SAPS  C219  610   3.771   3.902  11.197  0.8324  0.3764  0.0247
    5SAPS  H19R  611   3.693   3.933  11.270 -1.2254 -1.9488 -1.0375
    5SAPS  H19S  612   3.817   3.805  11.226 -0.2455  0.5010  2.3814
    5SAPS  C220  613   3.711   3.881  11.054 -0.0026  0.5306 -1.0658
    5SAPS  H20R  614   3.797   3.851  10.990  0.6303  0.3186 -0.1353
    5SAPS  H20S  615   3.673   3.977  11.013  0.0294  0.4130 -1.3753
    5SAPS  H20T  616   3.623   3.812  11.050  0.1343  0.3886 -1.6637
    5SAPS   C33  617   3.374   4.011  10.302  0.3069  0.1973 -0.0170
    5SAPS   H3X  618   3.362   3.903  10.325 -1.5928  0.2831 -0.3707
    5SAPS   H3Y  619   3.482   4.035  10.302 -0.1455  2.9634  2.9855
    5SAPS   C34  620   3.311   4.032  10.167 -0.1309  0.2722  0.2193
    5SAPS   H4X  621   3.331   4.138  10.139  2.4813  0.2968  1.8471
    5SAPS   H4Y  622   3.200   4.022  10.166  0.0505 -2.4023 -0.3457
    5SAPS   C35  623   3.345   3.935  10.041  0.7649 -0.5058  0.2522
    5SAPS   H5X  624   3.300   3.833  10.047 -0.4814  0.0172  0.0804
    5SAPS   H5Y  625   3.455   3.925  10.052  0.8270 -0.8023 -0.5976
    5SAPS   C36  626   3.310   3.996   9.906  0.0227 -0.0294  0.4106
    5SAPS   H6X  627   3.314   4.107   9.903 -0.3041  0.0787  2.3604
    5SAPS   H6Y  628   3.203   3.967   9.891  0.0812 -0.5035  0.8764
    5SAPS   C37  629   3.404   3.946   9.803  0.2942 -0.2870  0.9476
    5SAPS   H7X  630   3.422   3.836   9.805  1.3545 -0.2279 -1.6449
    5SAPS   H7Y  631   3.506   3.984   9.824  0.1768 -0.8758  2.7587
    5SAPS   C38  632   3.355   3.993   9.662  0.1900 -0.2360  0.3751
    5SAPS   H8X  633   3.356   4.104   9.655 -0.4927 -0.3133 -1.4254
    5SAPS   H8Y  634   3.253   3.951   9.649 -0.2929  0.2262  2.3115
    5SAPS   C39  635   3.451   3.947   9.545 -0.1175  0.6216  0.6788
    5SAPS   H9X  636   3.452   3.836   9.546 -1.6962  0.5140 -1.7433
    5SAPS   H9Y  637   3.550   3.997   9.542 -0.0642  0.4809 -0.6824
    5SAPS  C310  638   3.388   3.981   9.409  0.1685 -0.0249  0.8685
    5SAPS  H10X  639   3.393   4.090   9.389 -0.2480 -0.1284  0.1636
    5SAPS  H10Y  640   3.281   3.948   9.412 -0.4456  1.8558  0.6614
    5SAPS  C311  641   3.451   3.915   9.281  1.0769  0.8638 -0.9840
    5SAPS  H11X  642   3.439   3.805   9.283 -1.2477  1.0726  0.6117
    5SAPS  H11Y  643   3.558   3.943   9.273  1.1180  0.2135 -4.7258
    5SAPS  C312  644   3.391   3.965   9.145  0.1039 -0.5881 -0.6602
    5SAPS  H12X  645   3.455   3.930   9.060 -0.1591 -1.3149 -0.5655
    5SAPS  H12Y  646   3.404   4.075   9.138  2.5148 -0.6477  1.3186
    5SAPS  C313  647   3.251   3.914   9.118 -0.2831  1.0008  0.2925
    5SAPS  H13X  648   3.187   3.987   9.173 -0.9925 -1.3332  2.8101
    5SAPS  H13Y  649   3.236   3.818   9.172  0.7993  0.3834 -0.4720
    5SAPS  C314  650   3.222   3.891   8.966 -0.4118 -0.1435 -0.3201
    5SAPS  H14X  651   3.111   3.884   8.959 -0.7233  0.8580  2.4085
    5SAPS  H14Y  652   3.272   3.801   8.925  0.0390 -0.0509  0.0268
    5SAPS  C315  653   3.269   4.012   8.876  0.1493  0.0974  0.2300
    5SAPS  H15X  654   3.377   4.035   8.889 -0.2315  1.9341  0.3440
    5SAPS  H15Y  655   3.206   4.095   8.914 -0.1588  0.6682 -1.4391
    5SAPS  C316  656   3.233   3.989   8.724 -0.1832 -0.6706 -0.3673
    5SAPS  H16X  657   3.294   3.905   8.685 -1.8326 -1.9744 -0.2514
    5SAPS  H16Y  658   3.267   4.074   8.661 -2.1546  0.5244  0.0903
    5SAPS  C317  659   3.088   3.957   8.687 -0.5164  0.0013 -0.6192
    5SAPS  H17X  660   3.022   4.035   8.729  1.5069  0.0832  2.7000
    5SAPS  H17Y  661   3.061   3.861   8.735 -0.1947  0.0604 -0.3200
    5SAPS  C318  662   3.079   3.942   8.536  0.2578 -0.1306 -0.1329
    5SAPS  H18X  663   3.091   4.045   8.496 -0.2446  0.8721  2.1383
    5SAPS  H18Y  664   2.982   3.903   8.498 -0.6611  2.3781 -0.5898
    5SAPS  H18Z  665   3.160   3.877   8.495  0.6773  0.1729  0.2074
    6SAPS     N  666   1.287   3.256  10.978 -0.2219  0.7283  0.7530
    6SAPS   HN1  667   1.251   3.287  11.071  1.3410 -1.6192  2.2455
    6SAPS   HN2  668   1.354   3.179  10.995 -0.3413  0.1755 -1.1240
    6SAPS   HN3  669   1.344   3.333  10.937 -1.1845  0.7796 -0.5664
    6SAPS   C12  670   1.169   3.231  10.886 -0.6018 -0.2967  0.0241
    6SAPS  H12A  671   1.107   3.151  10.923 -0.4835 -0.7189 -0.6707
    6SAPS   C13  672   1.075   3.346  10.874  0.0379  0.0841 -0.2797
    6SAPS  O13A  673   1.081   3.453  10.944 -0.1043 -0.7558  0.0835
    6SAPS  O13B  674   0.973   3.326  10.795 -0.1507 -0.5723 -0.2078
    6SAPS   C11  675   1.221   3.183  10.750  0.0428  0.3333  0.0807
    6SAPS  H11A  676   1.301   3.257  10.727  0.3324  0.2162  0.7063
    6SAPS  H11B  677   1.135   3.196  10.680 -1.9960 -0.2790  2.3341
    6SAPS     P  678   1.199   2.927  10.699  0.0483 -0.2830  0.2410
    6SAPS   O13  679   1.289   2.812  10.722  0.1875 -0.3013 -0.1160
    6SAPS   O14  680   1.058   2.922  10.751 -0.1522  0.1732 -0.5486
    6SAPS   O12  681   1.272   3.049  10.761 -1.0616 -0.4200 -0.0040
    6SAPS   O11  682   1.184   2.951  10.546  0.3422  0.3448  0.3204
    6SAPS    C1  683   1.284   2.943  10.444  0.2346  0.1061  0.1728
    6SAPS    HA  684   1.360   2.867  10.471 -0.5184  0.2737  3.1382
    6SAPS    HB  685   1.243   2.911  10.346  0.2550  0.4199  0.0621
    6SAPS    C2  686   1.358   3.073  10.414  0.3740 -0.0647  0.2421
    6SAPS    HS  687   1.382   3.121  10.511  0.7883 -0.5376  0.3728
    6SAPS   O21  688   1.292   3.150  10.315  0.2990  0.1146  0.2095
    6SAPS   C21  689   1.218   3.249  10.354  0.2758 -0.0300 -0.3221
    6SAPS   O22  690   1.200   3.288  10.469 -0.4899  0.1148  0.0005
    6SAPS   C22  691   1.150   3.328  10.236  0.3176  0.2329  0.2882
    6SAPS   H2R  692   1.117   3.256  10.159 -0.8588  0.6822  0.3395
    6SAPS   H2S  693   1.059   3.369  10.286 -0.0701 -0.1100 -0.1353
    6SAPS    C3  694   1.507   3.040  10.368 -0.2622  0.1296 -0.0916
    6SAPS    HX  695   1.500   2.949  10.304 -0.9208  0.9523 -1.2465
    6SAPS    HY  696   1.562   3.014  10.460 -2.0363  1.3877  1.4086
    6SAPS   O31  697   1.577   3.142  10.292  0.4662  0.1825  0.2103
    6SAPS   C31  698   1.623   3.243  10.365 -0.0542  0.0318  0.3516
    6SAPS   O32  699   1.596   3.248  10.486 -0.6189 -0.6926  0.3015
    6SAPS   C32  700   1.698   3.351  10.277 -0.4096 -0.3829 -0.2578
    6SAPS   H2X  701   1.638   3.443  10.259  2.2772  1.6407  0.5030
    6SAPS   H2Y  702   1.711   3.304  10.178  1.0140 -0.7501  0.0848
    6SAPS   C23  703   1.244   3.431  10.178 -0.0128 -0.0821  0.0464
    6SAPS   H3R  704   1.252   3.515  10.250 -2.9487 -0.1762  0.6139
    6SAPS   H3S  705   1.181   3.464  10.092 -0.2563 -1.6392 -0.4022
    6SAPS   C24  706   1.384   3.388  10.145  0.4386  0.0239  0.0512
    6SAPS   H4R  707   1.384   3.288  10.096 -1.2318  0.1434 -0.2509
    6SAPS   H4S  708   1.436   3.383  10.243 -0.7093 -0.4617  0.6534
    6SAPS   C25  709   1.459   3.490  10.065 -0.0225 -0.2950  0.5617
    6SAPS   H5R  710   1.489   3.573  10.131 -1.1367  0.9512 -0.4594
    6SAPS   C26  711   1.479   3.485   9.930  0.0575 -0.3918 -0.3056
    6SAPS   H6R  712   1.537   3.565   9.881 -1.3618 -0.0298 -1.4531
    6SAPS   C27  713   1.455   3.382   9.823  0.1848  0.1257 -0.1267
    6SAPS   H7R  714   1.468   3.284   9.873 -1.6298 -0.2491 -0.2992
    6SAPS   H7S  715   1.531   3.394   9.744  0.2424  2.7565  0.2385
    6SAPS   C28  716   1.311   3.381   9.770 -0.4155  0.1690 -0.2193
    6SAPS   H8R  717   1.238   3.400   9.850  0.2630 -2.7052  1.1923
    6SAPS   C29  718   1.282   3.365   9.640 -0.3527 -0.6381  0.1316
    6SAPS   H9R  719   1.175   3.375   9.617  0.4732 -0.2366 -4.3242
    6SAPS  C210  720   1.372   3.341   9.519 -0.8468  0.4995  0.1471
    6SAPS  H10R  721   1.478   3.359   9.546 -0.3369  1.4101 -2.1724
    6SAPS  H10S  722   1.357   3.420   9.442  1.4315  0.4831 -0.3942
    6SAPS  C211  723   1.328   3.210   9.458  0.2347 -0.0629 -0.3076
    6SAPS  H11R  724   1.295   3.137   9.534 -0.4484 -0.3754 -0.8912
    6SAPS  C212  725   1.336   3.185   9.331 -0.2055  0.5250  0.5582
    6SAPS  H12R  726   1.306   3.087   9.290  0.4555  0.3507  0.4669
    6SAPS  C213  727   1.384   3.285   9.225 -0.1060 -0.1432 -0.3879
    6SAPS  H13R  728   1.434   3.236   9.139 -2.3489 -1.6762 -0.8960
    6SAPS  H13S  729   1.460   3.353   9.269 -1.1301  0.2176  0.8814
    6SAPS  C214  730   1.269   3.361   9.173  0.4352 -0.2253  0.5615
    6SAPS  H14R  731   1.208   3.413   9.248 -2.0761  0.6235 -1.8731
    6SAPS  C215  732   1.228   3.376   9.041 -0.3227  0.2492  0.0586
    6SAPS  H15R  733   1.153   3.452   9.014 -0.2194  0.8399  1.3390
    6SAPS  C216  734   1.293   3.311   8.922  0.1868  0.2615  0.0367
    6SAPS  H16R  735   1.378   3.250   8.959  0.1950  1.0040  1.3398
    6SAPS  H16S  736   1.341   3.386   8.855  1.0187 -0.5520 -0.2976
    6SAPS  C217  737   1.206   3.227   8.841 -0.6230  0.6143  0.5800
    6SAPS  H17R  738   1.112   3.279   8.815 -0.6789 -0.3677 -1.3873
    6SAPS  H17S  739   1.168   3.144   8.904 -0.3402  0.3123  0.3636
    6SAPS  C218  740   1.265   3.178   8.710 -0.5560  0.4759  0.0642
    6SAPS  H18R  741   1.361   3.129   8.733 -0.3886 -0.6101 -2.6368
    6SAPS  H18S  742   1.294   3.269   8.654  0.3503  0.1105 -0.0614
    6SAPS  C219  743   1.186   3.086   8.623  0.1156 -0.9303 -0.1001
    6SAPS  H19R  744   1.133   3.013   8.688 -1.3484  1.2869  1.3696
    6SAPS  H19S  745   1.252   3.025   8.559 -2.0565 -2.4687 -1.0025
    6SAPS  C220  746   1.076   3.157   8.540  0.3301 -0.0288 -0.0376
    6SAPS  H20R  747   1.004   3.217   8.599 -1.5071 -0.3129 -1.8659
    6SAPS  H20S  748   1.026   3.085   8.472  1.4876 -0.0345 -0.9190
    6SAPS  H20T  749   1.126   3.230   8.473  0.5586  1.6942  1.9051
    6SAPS   C33  750   1.832   3.384  10.344  0.1860 -0.7570  0.3282
    6SAPS   H3X  751   1.887   3.288  10.356  0.3107 -0.9073 -1.2395
    6SAPS   H3Y  752   1.829   3.433  10.443  0.8028 -0.0504  0.0001
    6SAPS   C34  753   1.914   3.468  10.246  0.6185 -0.1350  0.0226
    6SAPS   H4X  754   1.842   3.542  10.205  0.2669 -0.0498  0.7618
    6SAPS   H4Y  755   1.952   3.403  10.165  2.9496  0.6347  0.4426
    6SAPS   C35  756   2.032   3.533  10.331  0.7823  0.1394  0.2215
    6SAPS   H5X  757   2.104   3.454  10.361 -1.5525 -1.5145  1.8429
    6SAPS   H5Y  758   1.984   3.585  10.417  2.2915  2.0871 -0.0408
    6SAPS   C36  759   2.111   3.647  10.253  0.7860 -0.2406 -0.0588
    6SAPS   H6X  760   2.146   3.730  10.319 -0.7065  0.1878  0.2438
    6SAPS   H6Y  761   2.030   3.700  10.197  0.5607 -0.4849  0.0321
    6SAPS   C37  762   2.225   3.595  10.175  0.3122 -0.2810 -0.3483
    6SAPS   H7X  763   2.193   3.522  10.097  0.8209 -0.3731 -0.4706
    6SAPS   H7Y  764   2.297   3.547  10.244  0.1119 -0.6898 -0.4211
    6SAPS   C38  765   2.304   3.697  10.096 -0.6599 -0.5035 -0.6676
    6SAPS   H8X  766   2.384   3.636  10.050 -2.2744 -1.6223 -2.1420
    6SAPS   H8Y  767   2.352   3.764  10.170 -0.4365 -3.6609  2.2236
    6SAPS   C39  768   2.218   3.768   9.993 -0.7061  0.1149 -0.1850
    6SAPS   H9X  769   2.235   3.878   9.996 -3.0282  0.5402 -0.6129
    6SAPS   H9Y  770   2.113   3.738  10.011 -0.4191 -0.2693  0.9615
    6SAPS  C310  771   2.259   3.743   9.852  0.2808  0.4839 -0.3641
    6SAPS  H10X  772   2.243   3.634   9.839  1.4804 -0.0246  1.8264
    6SAPS  H10Y  773   2.369   3.761   9.853  0.3302  0.3958  2.0113
    6SAPS  C311  774   2.193   3.829   9.741 -0.9851  0.9187 -0.3750
    6SAPS  H11X  775   2.233   3.932   9.751 -0.3048  0.4686  2.8392
    6SAPS  H11Y  776   2.085   3.820   9.765 -0.5862  0.1026  1.2688
    6SAPS  C312  777   2.231   3.769   9.606  0.4693 -0.1516 -0.4191
    6SAPS  H12X  778   2.161   3.685   9.586 -0.3614  0.7911 -1.5693
    6SAPS  H12Y  779   2.337   3.738   9.603  0.7346  0.6470  0.2151
    6SAPS  C313  780   2.230   3.875   9.497  0.5985  0.1444 -0.5530
    6SAPS  H13X  781   2.328   3.927   9.497  0.4111  0.5089 -0.1834
    6SAPS  H13Y  782   2.149   3.948   9.520  0.7293  0.9476 -2.4820
    6SAPS  C314  783   2.216   3.809   9.363 -0.3823  0.8302 -0.4831
    6SAPS  H14X  784   2.121   3.752   9.354  0.1679 -0.3056  0.5728
    6SAPS  H14Y  785   2.293   3.730   9.351 -0.2156  0.8566  0.3975
    6SAPS  C315  786   2.218   3.914   9.246  0.0617  0.4721 -0.0834
    6SAPS  H15X  787   2.298   3.983   9.278  0.5216  0.3761 -0.9886
    6SAPS  H15Y  788   2.131   3.983   9.241 -0.2879  0.0001 -0.6520
    6SAPS  C316  789   2.246   3.865   9.104  0.6322  0.0591  0.0155
    6SAPS  H16X  790   2.333   3.795   9.105  2.1463  1.8056 -1.8143
    6SAPS  H16Y  791   2.269   3.950   9.038  0.4601  0.0415 -0.0693
    6SAPS  C317  792   2.120   3.797   9.046 -0.2934 -0.3789 -0.4867
    6SAPS  H17X  793   2.039   3.872   9.051  0.0072 -0.1142  0.7788
    6SAPS  H17Y  794   2.096   3.709   9.109  1.1088  0.1857  0.9251
    6SAPS  C318  795   2.151   3.745   8.904 -0.3504  0.2239 -0.8313
    6SAPS  H18X  796   2.224   3.663   8.918  0.4477  0.9959 -0.3821
    6SAPS  H18Y  797   2.198   3.817   8.833 -0.3519  1.4150  0.3440
    6SAPS  H18Z  798   2.065   3.693   8.856 -0.8323 -0.3152  0.5767
    7SAPS     N  799   5.013   3.766  10.851  0.6876  0.8580 -0.0502
    7SAPS   HN1  800   5.057   3.714  10.929  0.3294 -1.2687 -1.1820
    7SAPS   HN2  801   5.071   3.740  10.769 -1.4971  1.9036 -2.0528
    7SAPS   HN3  802   5.012   3.869  10.866  0.9112  0.8337  0.1431
    7SAPS   C12  803   4.867   3.733  10.824  0.4122 -0.1683  0.4655
    7SAPS  H12A  804   4.858   3.633  10.783 -1.2803  0.3318 -0.5097
    7SAPS   C13  805   4.771   3.729  10.939  0.7684  0.2874  0.3765
    7SAPS  O13A  806   4.818   3.739  11.056 -0.0446 -0.3088 -0.4982
    7SAPS  O13B  807   4.654   3.691  10.915 -0.1121  1.2503 -0.5323
    7SAPS   C11  808   4.827   3.835  10.712  0.1440 -0.6720 -0.7345
    7SAPS  H11A  809   4.719   3.833  10.687  0.1585 -0.6339 -0.8021
    7SAPS  H11B  810   4.880   3.796  10.622  0.3219 -2.3055  0.0414
    7SAPS     P  811   4.859   4.087  10.645  0.2480  0.2002  0.2081
    7SAPS   O13  812   4.715   4.126  10.633 -0.1932 -0.3327  0.4540
    7SAPS   O14  813   4.945   4.200  10.671 -0.4738 -0.3664 -1.0146
    7SAPS   O12  814   4.879   3.965  10.746  0.2264 -0.4603  0.0530
    7SAPS   O11  815   4.891   4.026  10.501 -0.3254  0.1138 -0.2545
    7SAPS    C1  816   5.023   4.001  10.463  0.5234  0.7251  0.0385
    7SAPS    HA  817   5.091   3.999  10.550  1.1817  1.4536 -0.4431
    7SAPS    HB  818   5.018   3.895  10.430 -0.3668  0.3126  1.4167
    7SAPS    C2  819   5.064   4.092  10.354 -0.4754 -0.4157 -0.3306
    7SAPS    HS  820   5.050   4.198  10.382 -2.0006 -0.7884  0.4046
    7SAPS   O21  821   4.989   4.055  10.239 -0.0725  0.3848  0.5063
    7SAPS   C21  822   4.889   4.137  10.209 -0.1535  0.0609 -0.3646
    7SAPS   O22  823   4.853   4.226  10.280  0.2306 -0.3250 -0.2759
    7SAPS   C22  824   4.832   4.108  10.073  0.1489  0.6880 -0.3870
    7SAPS   H2R  825   4.793   4.004  10.075  0.5206  0.5126 -1.5251
    7SAPS   H2S  826   4.739   4.167  10.056 -0.6963 -0.8833 -1.4921
    7SAPS    C3  827   5.214   4.080  10.322  0.1853  0.6532 -0.5618
    7SAPS    HX  828   5.237   3.982  10.275  0.2419  0.0723  0.6223
    7SAPS    HY  829   5.283   4.079  10.409  1.8975  1.9061 -1.8609
    7SAPS   O31  830   5.241   4.187  10.233  0.3832  0.2571  0.5149
    7SAPS   C31  831   5.356   4.251  10.245 -0.4881  0.5307  0.6720
    7SAPS   O32  832   5.459   4.206  10.294 -0.0304  0.3197 -0.4088
    7SAPS   C32  833   5.348   4.379  10.171 -0.0260 -0.6066 -0.2481
    7SAPS   H2X  834   5.383   4.454  10.246  1.7217 -2.3004  0.7043
    7SAPS   H2Y  835   5.246   4.403  10.135 -0.7878 -1.1141  1.4979
    7SAPS   C23  836   4.936   4.118   9.956 -0.1255  0.4727 -0.1743
    7SAPS   H3R  837   5.011   4.036   9.966  0.5280  0.9899 -0.6908
    7SAPS   H3S  838   4.992   4.213   9.970  1.2084 -0.2177 -0.5570
    7SAPS   C24  839   4.869   4.125   9.811 -0.1636  0.1361 -0.2431
    7SAPS   H4R  840   4.936   4.162   9.731 -0.5511 -0.2858 -0.7671
    7SAPS   H4S  841   4.776   4.183   9.826 -0.5475 -0.8918  1.6692
    7SAPS   C25  842   4.832   3.981   9.790 -0.2096 -0.1975  0.2214
    7SAPS   H5R  843   4.775   3.947   9.878  0.9357  2.1273  1.9909
    7SAPS   C26  844   4.847   3.910   9.678 -0.1276 -0.5327  0.2053
    7SAPS   H6R  845   4.814   3.805   9.676 -0.8958 -0.3016  0.2850
    7SAPS   C27  846   4.904   3.965   9.545 -0.7017  0.2675  0.8455
    7SAPS   H7R  847   4.927   3.880   9.477 -3.9378  0.9155 -1.3102
    7SAPS   H7S  848   5.007   4.006   9.552  0.4231 -2.2017 -0.1329
    7SAPS   C28  849   4.820   4.058   9.466 -0.0232  0.2142 -0.2440
    7SAPS   H8R  850   4.789   4.146   9.524 -0.1581 -0.4728  0.7331
    7SAPS   C29  851   4.776   4.038   9.338 -0.1079 -0.8299 -0.2664
    7SAPS   H9R  852   4.723   4.122   9.290 -1.5686  0.4423  3.2050
    7SAPS  C210  853   4.804   3.914   9.259  0.3738  0.4199 -0.0334
    7SAPS  H10R  854   4.816   3.821   9.318  1.0616  1.6411  1.8453
    7SAPS  H10S  855   4.900   3.933   9.207 -0.1984  0.8822 -0.9663
    7SAPS  C211  856   4.705   3.874   9.153 -0.1058  0.4856  0.0786
    7SAPS  H11R  857   4.628   3.804   9.187 -0.5335  0.6701 -0.4872
    7SAPS  C212  858   4.699   3.929   9.029 -0.0722 -0.7694 -0.8336
    7SAPS  H12R  859   4.628   3.890   8.954 -2.7316 -0.7414  1.5069
    7SAPS  C213  860   4.791   4.032   8.966 -0.4031 -0.5363 -0.2987
    7SAPS  H13R  861   4.864   4.071   9.041 -1.4646  1.6255 -0.3213
    7SAPS  H13S  862   4.736   4.124   8.939  0.0983 -0.9509 -2.9528
    7SAPS  C214  863   4.856   3.972   8.846  0.4909 -0.1791  0.7617
    7SAPS  H14R  864   4.895   3.870   8.860 -1.9562 -1.1162  1.3806
    7SAPS  C215  865   4.856   4.035   8.724  0.7245  0.5235 -0.3407
    7SAPS  H15R  866   4.910   3.984   8.643 -0.0394 -0.4663 -0.2611
    7SAPS  C216  867   4.811   4.171   8.691 -0.8422 -0.0631  0.2580
    7SAPS  H16R  868   4.705   4.178   8.722 -0.7685  0.4820  0.4041
    7SAPS  H16S  869   4.818   4.188   8.581 -1.2506  1.3715  0.4417
    7SAPS  C217  870   4.901   4.288   8.743  0.8496  1.0978 -0.2295
    7SAPS  H17R  871   4.993   4.297   8.681  1.4916  1.5665  0.7552
    7SAPS  H17S  872   4.941   4.261   8.844  0.3522  0.2513 -0.2474
    7SAPS  C218  873   4.812   4.409   8.766 -0.0614  0.7349 -0.2009
    7SAPS  H18R  874   4.762   4.404   8.865  1.2491  0.8940  0.4958
    7SAPS  H18S  875   4.736   4.426   8.687 -0.5746  0.8508  0.3188
    7SAPS  C219  876   4.891   4.545   8.750  0.8005 -0.4562 -0.4842
    7SAPS  H19R  877   4.948   4.545   8.655  0.3115 -0.2323 -0.7817
    7SAPS  H19S  878   4.961   4.561   8.835  2.1502  2.1845 -1.9723
    7SAPS  C220  879   4.805   4.673   8.761  0.0447 -0.4801 -0.5075
    7SAPS  H20R  880   4.773   4.683   8.866  2.6097 -0.4191  0.3325
    7SAPS  H20S  881   4.715   4.672   8.696 -1.9465 -2.3037  2.0925
    7SAPS  H20T  882   4.873   4.758   8.740  1.5669 -1.2961  0.8804
    7SAPS   C33  883   5.448   4.378  10.051  0.0088 -0.0503  0.2793
    7SAPS   H3X  884   5.412   4.314   9.967 -2.0235  1.9595 -0.4632
    7SAPS   H3Y  885   5.545   4.337  10.086  0.3787 -0.3790 -1.0504
    7SAPS   C34  886   5.472   4.523   9.997 -0.3878 -0.9412 -0.4521
    7SAPS   H4X  887   5.557   4.517   9.926  0.5908 -0.6112  0.6712
    7SAPS   H4Y  888   5.498   4.594  10.078 -1.8328  0.4091 -1.1100
    7SAPS   C35  889   5.358   4.594   9.933 -0.8022  0.4622 -0.0177
    7SAPS   H5X  890   5.278   4.605  10.009  0.4512  1.2713  1.2183
    7SAPS   H5Y  891   5.314   4.534   9.849  2.5309  0.8534 -2.2366
    7SAPS   C36  892   5.389   4.729   9.865 -0.2647  0.3317 -0.5192
    7SAPS   H6X  893   5.468   4.732   9.787  0.2920  1.8342  0.0779
    7SAPS   H6Y  894   5.426   4.808   9.933  1.8951 -0.5582 -0.5815
    7SAPS   C37  895   5.267   4.789   9.786 -0.2962  1.1206  0.4136
    7SAPS   H7X  896   5.184   4.806   9.858 -1.9982  2.4025 -1.7409
    7SAPS   H7Y  897   5.240   4.712   9.711  3.0415 -0.0516  0.2740
    7SAPS   C38  898   5.285   4.932   9.729 -0.1844  0.5632  0.1537
    7SAPS   H8X  899   5.382   4.924   9.675 -0.3130  0.8416 -0.1221
    7SAPS   H8Y  900   5.277   5.004   9.813  1.1103 -0.5934  1.3100
    7SAPS   C39  901   5.187   4.963   9.617  0.5006 -0.2214  0.4732
    7SAPS   H9X  902   5.178   5.074   9.614 -0.8129 -0.3236 -1.0821
    7SAPS   H9Y  903   5.091   4.911   9.638  0.9233 -0.7179  1.2394
    7SAPS  C310  904   5.225   4.920   9.475 -1.1887 -1.1784 -0.0643
    7SAPS  H10X  905   5.248   4.813   9.454  0.7347 -0.7147 -0.4543
    7SAPS  H10Y  906   5.315   4.976   9.445 -0.8906 -1.8118 -0.3621
    7SAPS  C311  907   5.112   4.961   9.381  0.2206  0.3741  0.0368
    7SAPS  H11X  908   5.091   5.069   9.392 -2.7358  0.0732 -1.5180
    7SAPS  H11Y  909   5.022   4.898   9.400  2.1844 -2.4470  0.5567
    7SAPS  C312  910   5.149   4.930   9.231  0.1108  0.1928  0.4460
    7SAPS  H12X  911   5.233   4.999   9.206 -1.3027  2.0419  0.5641
    7SAPS  H12Y  912   5.072   4.973   9.163  0.6648  2.2495  1.0283
    7SAPS  C313  913   5.193   4.788   9.190 -0.3661  0.0785  0.1631
    7SAPS  H13X  914   5.110   4.716   9.208 -0.7131  0.3911 -0.1776
    7SAPS  H13Y  915   5.277   4.761   9.258  1.6326 -0.1288 -2.2614
    7SAPS  C314  916   5.219   4.801   9.035 -0.0172  0.6330 -0.0116
    7SAPS  H14X  917   5.309   4.866   9.044  0.4984 -0.1869  1.0457
    7SAPS  H14Y  918   5.130   4.838   8.980  1.0389  0.7183 -1.7019
    7SAPS  C315  919   5.257   4.666   8.981  0.6207  0.3830  0.3119
    7SAPS  H15X  920   5.155   4.626   8.965  1.3950 -0.9715 -1.7757
    7SAPS  H15Y  921   5.313   4.593   9.044  1.2504  0.3011 -0.3240
    7SAPS  C316  922   5.307   4.657   8.839 -0.3605 -0.6782 -0.2447
    7SAPS  H16X  923   5.235   4.708   8.772  0.0286 -0.2239 -0.3255
    7SAPS  H16Y  924   5.306   4.555   8.796 -3.4307  0.0165 -2.1281
    7SAPS  C317  925   5.442   4.720   8.816  0.3130  0.4578  0.2953
    7SAPS  H17X  926   5.506   4.657   8.883 -2.4325 -1.9848  0.8018
    7SAPS  H17Y  927   5.446   4.830   8.832 -0.1469  0.3498  1.2181
    7SAPS  C318  928   5.504   4.686   8.679  0.4237  0.1460  0.1786
    7SAPS  H18X  929   5.430   4.727   8.608 -0.5927  0.9335  1.6357
    7SAPS  H18Y  930   5.506   4.576   8.661 -2.2189 -0.4327  2.6622
    7SAPS  H18Z  931   5.600   4.737   8.657  0.2481 -0.6302 -2.8304
    8SAPS     N  932   4.202   6.141  11.077 -0.2538 -0.1834  0.4973
    8SAPS   HN1  933   4.296   6.159  11.118 -0.7659 -2.6452  3.1553
    8SAPS   HN2  934   4.197   6.048  11.030 -0.7236  0.0660  0.0520
    8SAPS   HN3  935   4.178   6.208  11.002 -3.0778 -1.2932  0.2719
    8SAPS   C12  936   4.096   6.141  11.177  0.4527 -0.0268 -0.1460
    8SAPS  H12A  937   4.092   6.043  11.223 -2.0993 -0.3384 -0.8380
    8SAPS   C13  938   4.100   6.256  11.282 -0.4643  0.4878  0.3965
    8SAPS  O13A  939   4.196   6.340  11.269  0.5673 -0.1723  0.4508
    8SAPS  O13B  940   4.016   6.268  11.374 -0.6665 -0.1199  0.3465
    8SAPS   C11  941   3.958   6.151  11.106 -0.2060  0.0167  0.5262
    8SAPS  H11A  942   3.950   6.256  11.070  2.2633 -0.1739 -0.8206
    8SAPS  H11B  943   3.893   6.123  11.191  2.8888  0.0618  3.0739
    8SAPS     P  944   3.869   6.071  10.877  0.2626  0.3291  0.3432
    8SAPS   O13  945   3.839   5.939  10.808 -0.0723 -0.4842  0.0643
    8SAPS   O14  946   3.750   6.156  10.905  0.1410 -0.0444  0.2945
    8SAPS   O12  947   3.943   6.045  11.012  0.3670 -0.2899  0.5786
    8SAPS   O11  948   3.976   6.156  10.805  0.1153  0.1945  0.3468
    8SAPS    C1  949   4.094   6.098  10.748 -0.1005  0.6253  0.0832
    8SAPS    HA  950   4.185   6.114  10.809  0.3809  2.5191 -1.0307
    8SAPS    HB  951   4.096   5.987  10.739  0.5819  0.7022 -0.9485
    8SAPS    C2  952   4.117   6.151  10.607  1.1482 -0.9514 -0.0076
    8SAPS    HS  953   4.201   6.098  10.557  0.8395 -0.4804 -1.0558
    8SAPS   O21  954   4.149   6.290  10.618  0.0605  0.1261 -0.0977
    8SAPS   C21  955   4.229   6.338  10.523  0.2750  0.2466  1.2297
    8SAPS   O22  956   4.258   6.273  10.421  0.2733  0.3372  0.0318
    8SAPS   C22  957   4.270   6.481  10.560 -0.0016 -0.3196  0.1905
    8SAPS   H2R  958   4.204   6.542  10.625  1.3857  1.2984  0.1536
    8SAPS   H2S  959   4.359   6.459  10.622  0.4178 -0.7693 -0.5610
    8SAPS    C3  960   3.985   6.118  10.519 -0.2258  0.0696  0.1349
    8SAPS    HX  961   3.893   6.156  10.567 -0.8698 -2.9695  1.5614
    8SAPS    HY  962   3.989   6.007  10.514  5.5182 -0.0415 -0.4965
    8SAPS   O31  963   3.991   6.171  10.385 -0.1504 -0.3381  0.0778
    8SAPS   C31  964   4.036   6.093  10.277 -0.1969 -0.9015  0.2514
    8SAPS   O32  965   4.060   5.973  10.288  0.3228  0.6633  0.3416
    8SAPS   C32  966   4.061   6.181  10.160 -0.4503 -0.7545  0.0116
    8SAPS   H2X  967   4.169   6.209  10.157 -0.1440 -1.9491 -0.9654
    8SAPS   H2Y  968   4.007   6.275  10.182  0.0089 -0.1062 -1.4701
    8SAPS   C23  969   4.321   6.571  10.443 -0.0275  0.3691 -0.5435
    8SAPS   H3R  970   4.415   6.533  10.399 -1.5548 -2.2978 -1.7129
    8SAPS   H3S  971   4.351   6.667  10.490 -1.7220 -0.5737  2.8337
    8SAPS   C24  972   4.214   6.590  10.334 -0.4074 -0.0497 -0.6542
    8SAPS   H4R  973   4.141   6.661  10.378  0.8576  0.4830  0.6917
    8SAPS   H4S  974   4.159   6.498  10.305 -3.5303  0.9586  1.4990
    8SAPS   C25  975   4.275   6.653  10.207 -0.3765 -0.1542  0.2395
    8SAPS   H5R  976   4.352   6.728  10.232 -0.8494 -0.0258  1.3804
    8SAPS   C26  977   4.244   6.639  10.080  0.5173  0.0586  0.4433
    8SAPS   H6R  978   4.303   6.705  10.015 -0.6772  1.1129  0.3892
    8SAPS   C27  979   4.134   6.556  10.019 -0.5944  0.1278  0.6619
    8SAPS   H7R  980   4.090   6.506  10.109  0.1169 -0.0340  0.9205
    8SAPS   H7S  981   4.171   6.471   9.959  1.2124 -0.2011  2.1699
    8SAPS   C28  982   4.025   6.631   9.948  0.6070  0.5969  0.1440
    8SAPS   H8R  983   3.934   6.654  10.005  0.0843  0.2870 -0.5522
    8SAPS   C29  984   4.026   6.666   9.818 -0.6030 -0.4900  0.2017
    8SAPS   H9R  985   3.952   6.735   9.775  0.8570  1.5001  0.7743
    8SAPS  C210  986   4.153   6.644   9.729  0.2669  0.0663 -0.0270
    8SAPS  H10R  987   4.106   6.610   9.634 -0.6178 -1.2345  0.8441
    8SAPS  H10S  988   4.204   6.550   9.761 -2.9993 -1.2581  1.8287
    8SAPS  C211  989   4.255   6.749   9.688 -0.0407  0.4708 -0.5149
    8SAPS  H11R  990   4.349   6.751   9.746 -0.4410  2.8737  0.1464
    8SAPS  C212  991   4.247   6.834   9.579 -0.0443 -0.2905 -0.7247
    8SAPS  H12R  992   4.336   6.890   9.547 -0.7430  0.2931 -1.7020
    8SAPS  C213  993   4.134   6.842   9.480 -0.4827 -0.0647  0.3413
    8SAPS  H13R  994   4.106   6.947   9.459 -1.1839 -0.4435 -0.7017
    8SAPS  H13S  995   4.048   6.790   9.530 -1.2242 -0.6059 -1.4327
    8SAPS  C214  996   4.162   6.752   9.364 -0.4153 -0.6408  0.2467
    8SAPS  H14R  997   4.225   6.662   9.376  0.0102 -0.9528 -3.2010
    8SAPS  C215  998   4.131   6.772   9.232  0.2945 -0.0334 -0.2411
    8SAPS  H15R  999   4.179   6.710   9.154  0.5441 -1.4155  0.9525
    8SAPS  C216 1000   4.049   6.885   9.172 -0.4303 -0.1258  0.2149
    8SAPS  H16R 1001   3.999   6.941   9.253  1.6063  0.9561  0.7910
    8SAPS  H16S 1002   3.963   6.840   9.118 -0.1030 -1.2209  0.5873
    8SAPS  C217 1003   4.128   6.975   9.081  0.3253 -0.3789  0.3429
    8SAPS  H17R 1004   4.151   6.916   8.990 -1.5089 -1.0396  0.2766
    8SAPS  H17S 1005   4.221   7.007   9.134  0.3278 -1.2442  0.8804
    8SAPS  C218 1006   4.041   7.098   9.035 -0.2264  0.2116  0.3856
    8SAPS  H18R 1007   4.119   7.167   8.997 -0.4915 -0.6939 -1.9507
    8SAPS  H18S 1008   3.991   7.138   9.126 -0.5995  1.7414 -0.4418
    8SAPS  C219 1009   3.932   7.075   8.932 -0.7328 -0.7348  0.5211
    8SAPS  H19R 1010   3.838   7.032   8.972  0.3985 -1.7730  2.1889
    8SAPS  H19S 1011   3.976   7.003   8.859  1.6485 -1.3335  2.4089
    8SAPS  C220 1012   3.910   7.209   8.870 -0.3005  0.3410 -0.5047
    8SAPS  H20R 1013   3.829   7.264   8.923 -2.1141  0.6393 -3.3361
    8SAPS  H20S 1014   3.864   7.198   8.770 -0.5285  1.2940 -0.5114
    8SAPS  H20T 1015   3.998   7.273   8.848  0.0224 -0.6989 -2.4418
    8SAPS   C33 1016   3.988   6.143  10.030  0.2678  0.4916 -0.3020
    8SAPS   H3X 1017   3.879   6.129  10.049 -0.0360  2.6903 -0.1642
    8SAPS   H3Y 1018   4.019   6.042   9.997  0.9500 -0.4824  3.0242
    8SAPS   C34 1019   3.996   6.260   9.915 -0.0056 -0.3267  0.5158
    8SAPS   H4X 1020   4.100   6.260   9.877  0.1108  2.9825  0.6058
    8SAPS   H4Y 1021   3.971   6.357   9.962  0.4841  0.1998 -0.2895
    8SAPS   C35 1022   3.911   6.223   9.795  0.3596  0.0184 -0.0662
    8SAPS   H5X 1023   3.802   6.224   9.818  0.2737 -0.7709 -0.4047
    8SAPS   H5Y 1024   3.935   6.126   9.746  0.4839 -0.0520  0.1344
    8SAPS   C36 1025   3.914   6.331   9.682  0.2711  0.2877  0.1788
    8SAPS   H6X 1026   3.874   6.424   9.728 -3.8280 -1.6165  0.9712
    8SAPS   H6Y 1027   3.835   6.310   9.606  1.9713 -0.6121 -1.4170
    8SAPS   C37 1028   4.048   6.344   9.614 -0.2100 -0.2288 -0.4114
    8SAPS   H7X 1029   4.127   6.366   9.690 -0.1203  0.1200 -0.6011
    8SAPS   H7Y 1030   4.037   6.429   9.543 -0.4399  0.3831  0.3421
    8SAPS   C38 1031   4.102   6.245   9.507 -0.6094 -0.7757  0.5826
    8SAPS   H8X 1032   4.099   6.146   9.559 -0.6332  0.6392  3.4470
    8SAPS   H8Y 1033   4.210   6.261   9.487 -0.1003 -0.5599  3.1711
    8SAPS   C39 1034   4.020   6.245   9.374 -0.3363  0.2505 -0.2981
    8SAPS   H9X 1035   3.912   6.230   9.397 -0.2258 -2.2674 -1.1790
    8SAPS   H9Y 1036   4.065   6.166   9.310 -0.2358  0.6297 -0.6986
    8SAPS  C310 1037   4.036   6.377   9.296  0.3389  0.6737 -0.1468
    8SAPS  H10X 1038   4.143   6.409   9.295  2.4941 -5.2087  0.7370
    8SAPS  H10Y 1039   3.981   6.458   9.347 -0.2823 -1.0369  2.0237
    8SAPS  C311 1040   3.989   6.369   9.156 -0.5765  0.6413  0.2383
    8SAPS  H11X 1041   3.878   6.357   9.155 -0.3640 -1.6447  0.3852
    8SAPS  H11Y 1042   4.036   6.288   9.098 -1.6578  0.5484 -0.5540
    8SAPS  C312 1043   4.024   6.497   9.079 -0.1540  0.2397 -0.5576
    8SAPS  H12X 1044   4.134   6.509   9.069  0.0849 -0.4064  0.9679
    8SAPS  H12Y 1045   3.972   6.585   9.122  0.6877  1.7246 -2.4293
    8SAPS  C313 1046   3.967   6.495   8.939  0.4008 -0.1217 -0.4366
    8SAPS  H13X 1047   3.857   6.483   8.937  0.2862 -0.3627  2.6199
    8SAPS  H13Y 1048   4.008   6.411   8.879 -1.7857  0.3503 -2.7106
    8SAPS  C314 1049   4.005   6.625   8.869  0.6019 -0.3912  0.2061
    8SAPS  H14X 1050   4.111   6.653   8.851  0.2596  0.8968  0.0429
    8SAPS  H14Y 1051   3.972   6.707   8.936  0.4852  2.4393 -3.0402
    8SAPS  C315 1052   3.934   6.646   8.731 -0.2015 -0.3504 -0.0694
    8SAPS  H15X 1053   3.825   6.650   8.753 -0.4114 -0.0808 -1.1017
    8SAPS  H15Y 1054   3.944   6.546   8.683  0.2215 -0.6698  0.6703
    8SAPS  C316 1055   3.982   6.775   8.655  0.6724  0.2079 -0.9007
    8SAPS  H16X 1056   4.090   6.755   8.639  0.4175 -1.0218 -1.1454
    8SAPS  H16Y 1057   3.976   6.859   8.727  2.2876 -0.1201 -0.3514
    8SAPS  C317 1058   3.903   6.784   8.526 -0.2901  0.2742 -0.2527
    8SAPS  H17X 1059   3.929   6.708   8.449 -0.4409 -1.3010  1.2084
    8SAPS  H17Y 1060   3.916   6.887   8.485 -1.4601  1.4163  2.0404
    8SAPS  C318 1061   3.750   6.795   8.545 -0.1166  0.4612 -0.1841
    8SAPS  H18X 1062   3.738   6.855   8.637  1.2994 -2.3686  1.9830
    8SAPS  H18Y 1063   3.713   6.693   8.566 -0.7345  0.5153 -0.9593
    8SAPS  H18Z 1064   3.695   6.838   8.458 -2.4562  1.6120  1.7418
    9SAPS     N 1065   2.805   1.470   6.254  0.0928  0.6891 -0.1250
    9SAPS   HN1 1066   2.822   1.497   6.155 -3.4396  2.3666 -0.3941
    9SAPS   HN2 1067   2.707   1.501   6.264  0.1325  0.3202  1.9968
    9SAPS   HN3 1068   2.875   1.522   6.311 -0.3629 -0.4014  1.5114
    9SAPS   C12 1069   2.802   1.323   6.283 -0.4518 -0.3630 -0.0325
    9SAPS  H12A 1070   2.708   1.276   6.259 -1.2528  1.2708 -0.2476
    9SAPS   C13 1071   2.919   1.245   6.219  0.3350  0.9581  0.7916
    9SAPS  O13A 1072   2.993   1.289   6.128 -0.6294 -0.1110 -0.2637
    9SAPS  O13B 1073   2.949   1.130   6.268 -0.2413 -0.3258  0.0830
    9SAPS   C11 1074   2.828   1.305   6.432  0.2293  0.0154  0.4245
    9SAPS  H11A 1075   2.931   1.333   6.461  0.0501  1.0853  0.0911
    9SAPS  H11B 1076   2.817   1.196   6.448 -0.8240 -0.0674 -0.6932
    9SAPS     P 1077   2.610   1.327   6.571  0.4351 -0.2526  0.2564
    9SAPS   O13 1078   2.502   1.431   6.570 -0.3951  0.4122 -0.5924
    9SAPS   O14 1079   2.570   1.198   6.514  0.0790  0.0662  0.4895
    9SAPS   O12 1080   2.739   1.382   6.511  0.6838 -0.0406 -0.0688
    9SAPS   O11 1081   2.643   1.303   6.723  0.5198  0.1590  0.3488
    9SAPS    C1 1082   2.724   1.390   6.800  0.3042 -0.1058 -0.8683
    9SAPS    HA 1083   2.765   1.320   6.876 -0.7658  1.0222  0.8460
    9SAPS    HB 1084   2.811   1.429   6.743  0.4355  1.3631  0.2424
    9SAPS    C2 1085   2.642   1.504   6.871 -0.0106 -0.4326  0.3113
    9SAPS    HS 1086   2.619   1.583   6.796  1.1711  0.7783  1.1874
    9SAPS   O21 1087   2.725   1.558   6.968 -0.0375 -0.3235  0.0546
    9SAPS   C21 1088   2.706   1.686   6.993  1.0984 -0.4766 -0.4504
    9SAPS   O22 1089   2.628   1.756   6.934 -0.1877 -0.5027 -0.0674
    9SAPS   C22 1090   2.786   1.730   7.116  0.4027  0.0043  0.1071
    9SAPS   H2R 1091   2.774   1.659   7.200  2.5973 -0.6069 -0.0600
    9SAPS   H2S 1092   2.891   1.716   7.083  1.2740  0.7181  2.3682
    9SAPS    C3 1093   2.507   1.461   6.929 -0.3384  0.2065 -0.7565
    9SAPS    HX 1094   2.455   1.415   6.842  1.4620  0.1080 -1.8228
    9SAPS    HY 1095   2.440   1.546   6.955 -0.2647 -0.7206  3.0987
    9SAPS   O31 1096   2.519   1.360   7.039 -0.0881  0.2283 -0.2026
    9SAPS   C31 1097   2.530   1.413   7.158  0.5023  0.3146 -0.0706
    9SAPS   O32 1098   2.545   1.528   7.188 -0.3362  0.3209  0.1687
    9SAPS   C32 1099   2.530   1.295   7.266 -0.2723 -0.3668  0.7415
    9SAPS   H2X 1100   2.631   1.252   7.250 -1.1239 -2.8280  1.5710
    9SAPS   H2Y 1101   2.447   1.230   7.233 -1.6035  1.3308  0.5637
    9SAPS   C23 1102   2.774   1.877   7.162  0.3878 -0.2824  0.0098
    9SAPS   H3R 1103   2.665   1.891   7.182  0.8634 -0.4462  3.1703
    9SAPS   H3S 1104   2.794   1.936   7.070 -0.6871  1.1121  0.6358
    9SAPS   C24 1105   2.864   1.901   7.280 -0.5612 -0.0667 -0.4718
    9SAPS   H4R 1106   2.970   1.876   7.258  1.1213  3.2144  2.8452
    9SAPS   H4S 1107   2.837   1.840   7.369  1.1123 -1.0337 -0.5816
    9SAPS   C25 1108   2.842   2.049   7.315  0.7405 -0.2219  0.8773
    9SAPS   H5R 1109   2.789   2.115   7.244 -0.1016  0.7741  2.3869
    9SAPS   C26 1110   2.903   2.107   7.420  0.4469  0.9106  0.4254
    9SAPS   H6R 1111   2.883   2.214   7.438 -0.9898  1.3731 -3.0702
    9SAPS   C27 1112   2.983   2.038   7.517 -0.6869  0.3750 -0.4639
    9SAPS   H7R 1113   3.055   2.111   7.560 -0.7857  0.2979 -0.1657
    9SAPS   H7S 1114   3.038   1.954   7.470  0.2330  0.0731  1.0828
    9SAPS   C28 1115   2.906   1.986   7.641 -0.6292 -0.0407  0.6796
    9SAPS   H8R 1116   2.801   1.965   7.614 -0.2086 -0.8303 -0.4199
    9SAPS   C29 1117   2.936   1.987   7.768 -0.3660 -0.2966  0.0863
    9SAPS   H9R 1118   2.857   1.976   7.843 -0.8259  0.8532 -0.2059
    9SAPS  C210 1119   3.058   2.060   7.820  0.3152  0.1592 -0.3201
    9SAPS  H10R 1120   3.029   2.168   7.820 -0.4793 -0.0467 -0.2116
    9SAPS  H10S 1121   3.145   2.053   7.752  1.7158 -0.7922  1.4834
    9SAPS  C211 1122   3.091   2.017   7.961  0.3000  0.8547  0.6979
    9SAPS  H11R 1123   3.098   1.909   7.983 -0.5305  0.1548 -2.0640
    9SAPS  C212 1124   3.119   2.090   8.064  0.4185 -0.0882  0.0448
    9SAPS  H12R 1125   3.135   2.039   8.161 -1.7393  0.1716  0.5774
    9SAPS  C213 1126   3.128   2.238   8.074 -0.0072  0.0348 -0.4560
    9SAPS  H13R 1127   3.044   2.282   8.133 -1.5200 -1.4655 -1.3742
    9SAPS  H13S 1128   3.111   2.289   7.977 -3.3160  0.3426  0.1719
    9SAPS  C214 1129   3.254   2.283   8.141 -0.2167  0.0159  0.3475
    9SAPS  H14R 1130   3.318   2.204   8.182 -0.8535 -0.5705  0.2262
    9SAPS  C215 1131   3.304   2.413   8.160  0.6170  1.7106 -0.3286
    9SAPS  H15R 1132   3.402   2.416   8.209  1.3734 -3.6700 -0.8728
    9SAPS  C216 1133   3.228   2.543   8.134 -0.2303 -0.2097  0.0109
    9SAPS  H16R 1134   3.126   2.518   8.097  0.3652 -1.6211 -0.7555
    9SAPS  H16S 1135   3.279   2.598   8.053 -1.1879 -1.0846 -1.2118
    9SAPS  C217 1136   3.217   2.646   8.248 -0.2710  0.4939  0.7141
    9SAPS  H17R 1137   3.177   2.582   8.329 -0.8638  0.2565  0.2449
    9SAPS  H17S 1138   3.154   2.728   8.208  0.7189  1.0589  0.2797
    9SAPS  C218 1139   3.348   2.723   8.286 -0.5231  0.5712 -0.2324
    9SAPS  H18R 1140   3.413   2.735   8.197 -0.7955 -1.6596 -0.8005
    9SAPS  H18S 1141   3.409   2.666   8.360 -3.8524  0.0595  2.4116
    9SAPS  C219 1142   3.325   2.854   8.361 -0.0812 -0.8902  0.6968
    9SAPS  H19R 1143   3.277   2.924   8.289 -1.1868 -1.2155  1.0970
    9SAPS  H19S 1144   3.424   2.894   8.392 -0.4057  0.3316  0.2342
    9SAPS  C220 1145   3.238   2.857   8.485  0.3443  0.1007 -0.1925
    9SAPS  H20R 1146   3.286   2.916   8.566  2.5041 -0.4892 -0.9758
    9SAPS  H20S 1147   3.246   2.755   8.527  0.0603  0.0233 -0.3273
    9SAPS  H20T 1148   3.132   2.879   8.463 -0.3059 -1.3303  1.3116
    9SAPS   C33 1149   2.518   1.358   7.405 -0.3041 -0.6834 -0.0934
    9SAPS   H3X 1150   2.416   1.401   7.416  0.9858  3.3456 -1.7788
    9SAPS   H3Y 1151   2.583   1.448   7.412 -1.0820 -0.2136  1.5089
    9SAPS   C34 1152   2.550   1.255   7.511  0.3326 -0.0603  0.7497
    9SAPS   H4X 1153   2.659   1.235   7.505 -0.0917 -2.8197  0.7049
    9SAPS   H4Y 1154   2.482   1.171   7.485  2.3409 -1.1976 -1.1775
    9SAPS   C35 1155   2.503   1.285   7.654  0.6651  0.4994 -0.6135
    9SAPS   H5X 1156   2.470   1.191   7.704  0.4654  0.9294  0.0754
    9SAPS   H5Y 1157   2.408   1.341   7.655  0.6750  0.5446 -1.4392
    9SAPS   C36 1158   2.616   1.329   7.745  0.2646 -0.2082  0.0133
    9SAPS   H6X 1159   2.644   1.434   7.723 -1.0032 -0.2736 -2.1253
    9SAPS   H6Y 1160   2.710   1.273   7.724 -0.7707 -2.1098  0.2101
    9SAPS   C37 1161   2.586   1.321   7.900  0.6814 -0.6604  0.4632
    9SAPS   H7X 1162   2.573   1.214   7.928  0.2727 -1.3053 -2.0047
    9SAPS   H7Y 1163   2.489   1.373   7.914  0.4169 -0.7640 -0.9377
    9SAPS   C38 1164   2.689   1.391   7.987 -0.2982  0.6610 -0.8427
    9SAPS   H8X 1165   2.792   1.349   7.985  0.2986  1.9937  0.3882
    9SAPS   H8Y 1166   2.660   1.369   8.092 -0.9233 -1.1623 -1.3469
    9SAPS   C39 1167   2.713   1.548   7.978 -0.1214  0.2041  0.2303
    9SAPS   H9X 1168   2.613   1.592   7.999 -0.6135 -0.5566 -0.4467
    9SAPS   H9Y 1169   2.735   1.589   7.877 -0.2621  1.6443  0.7665
    9SAPS  C310 1170   2.820   1.593   8.081 -0.3330  0.4301 -0.3736
    9SAPS  H10X 1171   2.912   1.532   8.064 -1.1496 -1.0116  0.1756
    9SAPS  H10Y 1172   2.781   1.564   8.181  0.4125  0.9023  0.0653
    9SAPS  C311 1173   2.850   1.742   8.087  1.3513  0.0417 -0.3640
    9SAPS  H11X 1174   2.908   1.772   7.997  0.3918  1.1476 -0.6294
    9SAPS  H11Y 1175   2.909   1.760   8.179 -1.8387  0.7473  1.7359
    9SAPS  C312 1176   2.729   1.832   8.100 -0.5736 -0.7482 -0.5784
    9SAPS  H12X 1177   2.656   1.787   8.172 -0.1189 -1.8618 -0.7908
    9SAPS  H12Y 1178   2.667   1.833   8.008 -0.0715  0.3312 -0.9165
    9SAPS  C313 1179   2.748   1.974   8.151 -0.3263 -0.3860  0.0046
    9SAPS  H13X 1180   2.811   2.025   8.076  2.2084 -0.1898  2.1255
    9SAPS  H13Y 1181   2.799   1.993   8.248  0.4172  3.1347 -0.9109
    9SAPS  C314 1182   2.621   2.057   8.155 -0.1177 -0.0454  0.4999
    9SAPS  H14X 1183   2.573   2.053   8.054 -1.6517 -0.4371  1.2149
    9SAPS  H14Y 1184   2.655   2.160   8.181 -2.4263  1.6743 -2.5171
    9SAPS  C315 1185   2.517   2.024   8.270 -0.9707  0.3748  0.4504
    9SAPS  H15X 1186   2.457   1.942   8.225  2.0006 -1.5055 -0.4424
    9SAPS  H15Y 1187   2.447   2.109   8.280 -0.5348  1.1987 -2.4877
    9SAPS  C316 1188   2.585   1.992   8.405 -0.5301 -0.2149 -0.0178
    9SAPS  H16X 1189   2.670   2.059   8.430  0.1546 -1.5726  1.4205
    9SAPS  H16Y 1190   2.620   1.887   8.397  0.8095  0.2234 -0.1592
    9SAPS  C317 1191   2.489   1.996   8.519  0.7761 -0.1155 -0.2503
    9SAPS  H17X 1192   2.408   1.924   8.495  1.1337 -0.8746  0.7826
    9SAPS  H17Y 1193   2.450   2.100   8.514  0.5020 -0.2293 -0.5277
    9SAPS  C318 1194   2.537   1.972   8.662 -0.5347  0.1333  0.1864
    9SAPS  H18X 1195   2.452   2.015   8.720 -0.4907 -0.0492  0.3890
    9SAPS  H18Y 1196   2.624   2.036   8.688 -0.9117  1.3270 -1.3344
    9SAPS  H18Z 1197   2.548   1.863   8.680 -1.7605 -0.0391 -0.0039
   10SAPS     N 1198   2.215   0.828   6.516  0.4026  0.4318  0.0670
   10SAPS   HN1 1199   2.203   0.903   6.445 -0.9477 -0.7956 -1.0574
   10SAPS   HN2 1200   2.258   0.871   6.601  0.5156  1.1411 -0.3407
   10SAPS   HN3 1201   2.274   0.756   6.470 -1.9084 -2.1475  0.8792
   10SAPS   C12 1202   2.079   0.788   6.556 -0.5873 -0.2906 -0.7001
   10SAPS  H12A 1203   2.046   0.865   6.623 -0.9986 -1.8098  0.8976
   10SAPS   C13 1204   1.974   0.794   6.443 -0.7679  0.3624 -0.1542
   10SAPS  O13A 1205   2.006   0.834   6.329  0.5374 -0.6321  0.4817
   10SAPS  O13B 1206   1.856   0.779   6.474  0.4984 -0.2174 -0.3100
   10SAPS   C11 1207   2.075   0.643   6.631  0.1921 -0.2798  0.6595
   10SAPS  H11A 1208   1.974   0.617   6.669  0.3634  0.2890  1.5175
   10SAPS  H11B 1209   2.136   0.635   6.723 -0.0663 -2.2817  0.7092
   10SAPS     P 1210   2.272   0.495   6.494  0.3176  0.1327 -0.4614
   10SAPS   O13 1211   2.286   0.359   6.449  0.1359  0.1338 -0.1132
   10SAPS   O14 1212   2.313   0.603   6.404  0.1871  0.1068  0.4129
   10SAPS   O12 1213   2.118   0.532   6.549 -0.1806 -0.4573  0.6223
   10SAPS   O11 1214   2.356   0.511   6.635  0.2297  0.1254  0.4763
   10SAPS    C1 1215   2.311   0.447   6.755 -1.1358 -1.0392  0.5987
   10SAPS    HA 1216   2.265   0.521   6.824 -1.5754 -0.7945  0.0412
   10SAPS    HB 1217   2.238   0.364   6.744 -0.0020 -2.3118  2.0307
   10SAPS    C2 1218   2.433   0.391   6.829  0.2132 -0.1722 -0.1309
   10SAPS    HS 1219   2.491   0.339   6.750  0.4325 -1.7892  1.0755
   10SAPS   O21 1220   2.385   0.302   6.927  0.0025  0.3595  0.1453
   10SAPS   C21 1221   2.486   0.227   6.972  0.9538  0.1381 -0.3796
   10SAPS   O22 1222   2.598   0.218   6.929  0.1148 -0.2784  0.3721
   10SAPS   C22 1223   2.432   0.143   7.088 -0.6557 -0.2709  0.3721
   10SAPS   H2R 1224   2.338   0.178   7.135 -0.4870 -1.2610  1.5272
   10SAPS   H2S 1225   2.415   0.043   7.041  0.4792  0.1906 -1.1037
   10SAPS    C3 1226   2.523   0.509   6.887 -0.1968  0.3249  0.7115
   10SAPS    HX 1227   2.563   0.564   6.798  1.5292  0.4835  1.5440
   10SAPS    HY 1228   2.600   0.458   6.948  0.8580  0.9000 -0.0894
   10SAPS   O31 1229   2.457   0.598   6.976  0.2492 -0.3235  0.1523
   10SAPS   C31 1230   2.517   0.703   7.024 -0.9377  1.0699  0.3867
   10SAPS   O32 1231   2.634   0.735   6.992  0.1131  0.0241 -0.5605
   10SAPS   C32 1232   2.415   0.788   7.100 -0.0875 -0.3899 -0.7033
   10SAPS   H2X 1233   2.323   0.728   7.121 -0.3928  0.2865 -0.0867
   10SAPS   H2Y 1234   2.376   0.863   7.028  1.1658 -0.5022 -1.5390
   10SAPS   C23 1235   2.547   0.125   7.192  0.3828 -0.2345  0.1269
   10SAPS   H3R 1236   2.647   0.135   7.145 -0.3963 -0.1956 -1.6054
   10SAPS   H3S 1237   2.541   0.020   7.226  0.3607  0.2794  1.7691
   10SAPS   C24 1238   2.540   0.216   7.316 -0.3283 -0.1095 -0.4551
   10SAPS   H4R 1239   2.439   0.215   7.360  0.1965 -1.1218  0.7701
   10SAPS   H4S 1240   2.555   0.319   7.275  2.7057 -0.8982 -1.5771
   10SAPS   C25 1241   2.652   0.194   7.417  0.1639  0.7585 -0.1685
   10SAPS   H5R 1242   2.749   0.184   7.367  0.3909  0.5957  0.3041
   10SAPS   C26 1243   2.646   0.184   7.553 -0.6275  0.3397  0.6923
   10SAPS   H6R 1244   2.742   0.162   7.601 -0.7639 -2.8124 -0.2342
   10SAPS   C27 1245   2.523   0.217   7.626  0.2210  0.4127 -0.2437
   10SAPS   H7R 1246   2.448   0.262   7.556 -1.4902  0.2769  1.4284
   10SAPS   H7S 1247   2.551   0.293   7.702  2.0704 -1.4160  1.0095
   10SAPS   C28 1248   2.463   0.099   7.698 -0.2478  0.0093  0.7252
   10SAPS   H8R 1249   2.442   0.017   7.627 -1.6524  2.1402 -1.5100
   10SAPS   C29 1250   2.437   0.075   7.825 -0.1021 -0.1927  0.1345
   10SAPS   H9R 1251   2.388  -0.020   7.852 -0.9662  0.3200  0.4370
   10SAPS  C210 1252   2.456   0.175   7.943 -0.2231  0.0485  0.9754
   10SAPS  H10R 1253   2.388   0.168   8.030  0.0383 -0.5901  1.1368
   10SAPS  H10S 1254   2.442   0.279   7.905  1.4956 -0.4445 -1.2484
   10SAPS  C211 1255   2.600   0.169   7.999  0.7280 -0.1891 -0.2158
   10SAPS  H11R 1256   2.638   0.069   8.021 -0.7872 -0.7101  0.1217
   10SAPS  C212 1257   2.669   0.279   8.039 -0.6738 -0.2076  0.4541
   10SAPS  H12R 1258   2.772   0.271   8.077  0.2826  4.1373 -0.6201
   10SAPS  C213 1259   2.617   0.423   8.046  0.0330  0.5576  0.4985
   10SAPS  H13R 1260   2.507   0.426   8.061 -0.3375  1.4886 -1.8870
   10SAPS  H13S 1261   2.643   0.480   7.954 -0.7332 -1.5455 -1.1356
   10SAPS  C214 1262   2.693   0.485   8.163  0.5129  0.4208 -0.5405
   10SAPS  H14R 1263   2.795   0.521   8.139  0.3077  1.7232  0.4208
   10SAPS  C215 1264   2.638   0.493   8.287 -0.2847  0.8754 -0.3028
   10SAPS  H15R 1265   2.693   0.551   8.363 -0.5386 -1.6123  1.9473
   10SAPS  C216 1266   2.507   0.442   8.332  0.1321 -0.0748  0.7472
   10SAPS  H16R 1267   2.469   0.361   8.266  0.8021  1.1094 -1.1795
   10SAPS  H16S 1268   2.437   0.528   8.338 -0.1601 -0.3324  0.9822
   10SAPS  C217 1269   2.512   0.380   8.475  0.0833 -0.2533  0.4454
   10SAPS  H17R 1270   2.564   0.461   8.532 -0.4341  0.2381  0.2328
   10SAPS  H17S 1271   2.569   0.285   8.474  2.2020  0.9231  0.8955
   10SAPS  C218 1272   2.381   0.356   8.541  0.5165 -0.1657  1.2251
   10SAPS  H18R 1273   2.344   0.262   8.494  2.4595  0.1740 -1.1940
   10SAPS  H18S 1274   2.313   0.442   8.520  0.6647 -0.0324  1.2930
   10SAPS  C219 1275   2.403   0.345   8.701 -0.0033 -0.1834  0.0164
   10SAPS  H19R 1276   2.302   0.339   8.745 -0.4783  3.1354 -0.3808
   10SAPS  H19S 1277   2.444   0.444   8.732 -1.3428  0.0383  1.1639
   10SAPS  C220 1278   2.481   0.217   8.748 -0.2081 -0.7767 -0.4419
   10SAPS  H20R 1279   2.491   0.214   8.859  0.8190  0.6600 -0.4564
   10SAPS  H20S 1280   2.584   0.221   8.705 -0.5619 -3.2321 -1.6709
   10SAPS  H20T 1281   2.446   0.122   8.704 -1.8730  0.8209 -2.8068
   10SAPS   C33 1282   2.471   0.838   7.237 -0.3296 -0.1823 -0.3260
   10SAPS   H3X 1283   2.391   0.904   7.277  0.5223 -0.2217  1.5434
   10SAPS   H3Y 1284   2.569   0.891   7.229 -0.9871  1.1500  0.1025
   10SAPS   C34 1285   2.473   0.720   7.339 -0.3496 -0.1349 -0.1721
   10SAPS   H4X 1286   2.556   0.651   7.317  0.4937  1.1524 -1.1833
   10SAPS   H4Y 1287   2.372   0.672   7.335 -0.5252  0.2446 -0.3907
   10SAPS   C35 1288   2.518   0.766   7.474 -0.0883 -0.7726  0.1547
   10SAPS   H5X 1289   2.460   0.852   7.512 -0.0520 -0.8736  0.4356
   10SAPS   H5Y 1290   2.627   0.790   7.465  0.0579 -1.4073  0.2069
   10SAPS   C36 1291   2.518   0.663   7.579 -0.7324  0.2227 -0.9942
   10SAPS   H6X 1292   2.555   0.562   7.549 -0.7593 -0.1508  0.1552
   10SAPS   H6Y 1293   2.409   0.651   7.595 -0.8360  0.9329 -1.1417
   10SAPS   C37 1294   2.599   0.704   7.702 -0.4480 -0.6277 -0.1948
   10SAPS   H7X 1295   2.706   0.714   7.675 -0.3879  2.4929  0.8561
   10SAPS   H7Y 1296   2.598   0.624   7.780 -1.2693  0.4475  0.9392
   10SAPS   C38 1297   2.542   0.822   7.777 -0.4124  0.2728  0.2748
   10SAPS   H8X 1298   2.431   0.822   7.771 -0.5250 -0.8352  1.8045
   10SAPS   H8Y 1299   2.583   0.918   7.739  0.2127  0.9599  2.5269
   10SAPS   C39 1300   2.599   0.819   7.919  0.0395  0.9340 -0.3338
   10SAPS   H9X 1301   2.709   0.808   7.916 -0.1567 -1.2025 -1.6940
   10SAPS   H9Y 1302   2.574   0.721   7.965 -0.8217  0.3504 -1.9588
   10SAPS  C310 1303   2.544   0.934   8.006 -0.1338  0.4492  0.2460
   10SAPS  H10X 1304   2.439   0.961   7.981  0.8538  1.9746 -2.8506
   10SAPS  H10Y 1305   2.599   1.030   7.999  2.9391 -1.2820 -2.5689
   10SAPS  C311 1306   2.543   0.901   8.155  0.4668  0.5506  0.3172
   10SAPS  H11X 1307   2.644   0.871   8.189 -0.0393 -1.3579  0.2251
   10SAPS  H11Y 1308   2.465   0.823   8.167  0.5151  0.5139  0.3888
   10SAPS  C312 1309   2.506   1.018   8.246 -0.1168  0.1588 -0.7036
   10SAPS  H12X 1310   2.402   1.049   8.227 -0.3160  0.4523  0.7458
   10SAPS  H12Y 1311   2.572   1.104   8.220  0.1930  0.4991  1.0444
   10SAPS  C313 1312   2.522   0.973   8.394 -0.5368 -0.1581 -0.1024
   10SAPS  H13X 1313   2.624   0.931   8.407 -1.2502 -1.3670  2.1814
   10SAPS  H13Y 1314   2.453   0.888   8.410  0.1506 -0.2465  2.8210
   10SAPS  C314 1315   2.498   1.088   8.487  0.5588 -0.6348 -0.0255
   10SAPS  H14X 1316   2.392   1.122   8.487  1.2529  1.8509  1.6008
   10SAPS  H14Y 1317   2.563   1.172   8.453  0.5431  0.0578  1.5350
   10SAPS  C315 1318   2.540   1.056   8.631 -0.0057 -0.0638  0.1557
   10SAPS  H15X 1319   2.565   1.152   8.681  0.6446 -1.0883  1.8770
   10SAPS  H15Y 1320   2.640   1.012   8.651 -0.1324  0.0811  1.1572
   10SAPS  C316 1321   2.440   0.969   8.707  0.2114 -0.1090  0.3017
   10SAPS  H16X 1322   2.354   0.942   8.642 -0.0752  0.8269  0.2808
   10SAPS  H16Y 1323   2.388   1.031   8.783 -3.7720 -1.2618 -1.2193
   10SAPS  C317 1324   2.484   0.856   8.797  0.4771  1.1493  0.3272
   10SAPS  H17X 1325   2.387   0.817   8.835 -0.6649  2.3988 -1.1904
   10SAPS  H17Y 1326   2.535   0.895   8.887  1.9083 -4.0598  2.1120
   10SAPS  C318 1327   2.570   0.747   8.729  0.4099  0.5558  0.2928
   10SAPS  H18X 1328   2.553   0.712   8.625 -0.0461 -1.5850  1.0448
   10SAPS  H18Y 1329   2.579   0.654   8.789 -0.4452 -0.5457 -1.2175
   10SAPS  H18Z 1330   2.669   0.793   8.709 -0.3009  1.5597 -1.1584
   11SAPS     N 1331   4.478   2.382   5.599 -0.0145  0.3136  0.5972
   11SAPS   HN1 1332   4.532   2.468   5.624 -0.1191  0.5925 -0.1306
   11SAPS   HN2 1333   4.492   2.304   5.667 -0.8245 -1.2034 -0.9303
   11SAPS   HN3 1334   4.519   2.347   5.510 -0.8448  2.2030 -0.5948
   11SAPS   C12 1335   4.333   2.424   5.608  0.1436  0.0524  0.3518
   11SAPS  H12A 1336   4.324   2.514   5.550 -1.6422  1.4902  2.6766
   11SAPS   C13 1337   4.236   2.322   5.554  0.2978  0.0701 -0.1003
   11SAPS  O13A 1338   4.280   2.237   5.474  0.1123  0.6938  0.5249
   11SAPS  O13B 1339   4.112   2.351   5.550  0.6964 -0.4069 -0.1635
   11SAPS   C11 1340   4.308   2.458   5.759 -0.5908 -0.1970 -0.1020
   11SAPS  H11A 1341   4.340   2.381   5.833  1.4897  0.7372  0.0656
   11SAPS  H11B 1342   4.199   2.475   5.772 -0.8649  0.8260 -2.9935
   11SAPS     P 1343   4.333   2.725   5.757  0.1772  0.2128 -0.0072
   11SAPS   O13 1344   4.431   2.775   5.663  0.1052 -0.1027  0.7482
   11SAPS   O14 1345   4.188   2.721   5.721 -0.4384 -0.3462  0.1243
   11SAPS   O12 1346   4.374   2.574   5.792  0.5602 -0.3249 -0.2838
   11SAPS   O11 1347   4.351   2.803   5.887 -0.0794 -0.2788 -0.0154
   11SAPS    C1 1348   4.341   2.750   6.018 -0.2679  0.2729 -0.0443
   11SAPS    HA 1349   4.243   2.698   6.027 -0.0302 -0.5833 -1.8858
   11SAPS    HB 1350   4.427   2.682   6.035 -1.0927 -1.2691 -1.6556
   11SAPS    C2 1351   4.334   2.859   6.127  0.2949 -0.2985 -0.0810
   11SAPS    HS 1352   4.434   2.907   6.139 -0.6836  1.6870  0.4774
   11SAPS   O21 1353   4.296   2.787   6.245  0.2611 -0.3474  0.0975
   11SAPS   C21 1354   4.379   2.726   6.320 -0.5253  0.2797 -0.5153
   11SAPS   O22 1355   4.497   2.706   6.300 -0.1674  0.4284  0.0718
   11SAPS   C22 1356   4.300   2.661   6.440  0.4208  0.6840  0.0077
   11SAPS   H2R 1357   4.207   2.620   6.394  0.3561  0.3400  0.4400
   11SAPS   H2S 1358   4.367   2.575   6.461 -1.5920 -1.3820 -1.4430
   11SAPS    C3 1359   4.223   2.965   6.093  0.2796 -0.6800 -0.4099
   11SAPS    HX 1360   4.125   2.916   6.075 -0.7657  1.9892 -2.6502
   11SAPS    HY 1361   4.257   3.023   6.004 -0.2893 -1.7885 -1.3788
   11SAPS   O31 1362   4.196   3.052   6.210 -0.4451  0.5615  0.3066
   11SAPS   C31 1363   4.287   3.148   6.229 -0.3615 -0.6296  0.7005
   11SAPS   O32 1364   4.395   3.156   6.170 -0.1301 -0.1978  0.4730
   11SAPS   C32 1365   4.236   3.245   6.327 -0.3788 -0.2596 -0.0629
   11SAPS   H2X 1366   4.130   3.270   6.304 -0.2379 -0.3902 -0.8757
   11SAPS   H2Y 1367   4.307   3.330   6.334 -1.6287  0.9864 -1.5870
   11SAPS   C23 1368   4.261   2.757   6.555  0.2331  0.1541  0.0284
   11SAPS   H3R 1369   4.215   2.853   6.523  1.5760  0.1115 -2.2018
   11SAPS   H3S 1370   4.362   2.775   6.599  0.1908 -0.3199  0.3274
   11SAPS   C24 1371   4.164   2.685   6.647 -0.0754 -0.0273  0.3350
   11SAPS   H4R 1372   4.083   2.627   6.599  0.4641 -1.2813  0.8806
   11SAPS   H4S 1373   4.118   2.765   6.708  0.4696 -0.2020  0.9913
   11SAPS   C25 1374   4.247   2.588   6.738  0.8868  0.2391  0.0389
   11SAPS   H5R 1375   4.301   2.512   6.678  2.3815  1.0041  0.3537
   11SAPS   C26 1376   4.261   2.590   6.875  0.0355 -0.3491 -0.3836
   11SAPS   H6R 1377   4.316   2.510   6.926  0.6391  0.4758  0.2769
   11SAPS   C27 1378   4.204   2.695   6.966 -0.4351 -0.5800 -0.1903
   11SAPS   H7R 1379   4.166   2.783   6.910  1.5065  0.9105  0.6797
   11SAPS   H7S 1380   4.288   2.726   7.033 -1.3195 -2.0400  1.7182
   11SAPS   C28 1381   4.086   2.649   7.051 -0.1032 -0.6933 -0.0466
   11SAPS   H8R 1382   4.008   2.594   6.995 -0.6378  2.1031 -2.2398
   11SAPS   C29 1383   4.079   2.651   7.188 -0.0225  0.1160  0.1501
   11SAPS   H9R 1384   3.988   2.616   7.239  1.5413 -1.3379  2.1013
   11SAPS  C210 1385   4.173   2.707   7.292 -0.1035 -0.1540  0.9276
   11SAPS  H10R 1386   4.136   2.810   7.310 -1.3266 -0.6830  1.5734
   11SAPS  H10S 1387   4.275   2.719   7.252 -0.4718  0.3797  0.1186
   11SAPS  C211 1388   4.179   2.624   7.415  0.3570 -0.8370  0.6189
   11SAPS  H11R 1389   4.216   2.522   7.392 -0.6164 -1.3335  1.2036
   11SAPS  C212 1390   4.152   2.656   7.545  0.2498  0.5315 -0.2036
   11SAPS  H12R 1391   4.155   2.581   7.625  0.0755 -0.5225 -1.1657
   11SAPS  C213 1392   4.105   2.795   7.587 -0.4622 -0.1420  0.2696
   11SAPS  H13R 1393   4.064   2.855   7.503 -0.8708 -1.8093 -0.7526
   11SAPS  H13S 1394   4.193   2.848   7.630 -1.0999  1.9142 -0.8256
   11SAPS  C214 1395   4.001   2.771   7.691  0.4803  0.4379 -0.7108
   11SAPS  H14R 1396   3.907   2.734   7.647 -1.5328  1.1467  2.6581
   11SAPS  C215 1397   4.002   2.778   7.824  0.2146 -0.6398 -0.3649
   11SAPS  H15R 1398   3.913   2.747   7.879  0.4667 -3.3403 -1.3452
   11SAPS  C216 1399   4.120   2.826   7.910  0.1656 -0.2369  0.3854
   11SAPS  H16R 1400   4.123   2.936   7.902 -2.2792 -0.2607 -2.4169
   11SAPS  H16S 1401   4.219   2.788   7.876  0.1321  0.9070 -1.0782
   11SAPS  C217 1402   4.100   2.778   8.052  0.7166  1.0292 -0.2850
   11SAPS  H17R 1403   4.122   2.669   8.061  1.1127  1.0995 -0.4107
   11SAPS  H17S 1404   3.997   2.798   8.088  0.4307 -1.5217  0.5718
   11SAPS  C218 1405   4.201   2.848   8.143 -0.3193 -0.2854  0.3373
   11SAPS  H18R 1406   4.196   2.958   8.155  0.8420 -0.1221 -0.4793
   11SAPS  H18S 1407   4.302   2.832   8.100  0.7032  4.0300  0.6966
   11SAPS  C219 1408   4.181   2.795   8.288 -0.2480 -0.0775 -1.1422
   11SAPS  H19R 1409   4.193   2.685   8.297 -2.8911 -0.3148  0.6524
   11SAPS  H19S 1410   4.072   2.810   8.307  0.6328  1.9387  3.8413
   11SAPS  C220 1411   4.269   2.870   8.385  0.0427  0.1276  0.1079
   11SAPS  H20R 1412   4.372   2.852   8.348 -0.1040 -1.8337  0.5719
   11SAPS  H20S 1413   4.251   2.842   8.491 -1.6281  0.9527  0.0746
   11SAPS  H20T 1414   4.249   2.980   8.384  1.0357  0.3572  1.5681
   11SAPS   C33 1415   4.239   3.192   6.476  0.3974 -0.1057  0.2790
   11SAPS   H3X 1416   4.152   3.129   6.502 -0.1610  0.2137 -0.7815
   11SAPS   H3Y 1417   4.226   3.281   6.542 -1.2690 -0.1074 -0.0210
   11SAPS   C34 1418   4.374   3.121   6.506  0.5942 -0.0984 -0.6117
   11SAPS   H4X 1419   4.466   3.154   6.453  0.2168  2.6365  0.2603
   11SAPS   H4Y 1420   4.372   3.013   6.483  2.3315 -0.0770 -0.9887
   11SAPS   C35 1421   4.404   3.143   6.660  0.6217  0.2234 -0.6999
   11SAPS   H5X 1422   4.425   3.251   6.678  0.3199 -0.0385  1.6226
   11SAPS   H5Y 1423   4.495   3.079   6.668  0.4804  0.0104 -0.7965
   11SAPS   C36 1424   4.316   3.078   6.765 -0.1210 -0.9818  0.9244
   11SAPS   H6X 1425   4.327   2.968   6.759  1.8423 -0.8083  0.7066
   11SAPS   H6Y 1426   4.210   3.106   6.749  0.3059 -0.4452 -1.4494
   11SAPS   C37 1427   4.356   3.118   6.909  0.5865 -0.0995  0.1459
   11SAPS   H7X 1428   4.358   3.229   6.914  0.0748 -0.0218 -0.9747
   11SAPS   H7Y 1429   4.461   3.080   6.916  0.7013  0.4280  1.4289
   11SAPS   C38 1430   4.260   3.068   7.021  0.6368  0.7720 -0.9671
   11SAPS   H8X 1431   4.286   2.965   7.051  2.3867  1.6884  0.9435
   11SAPS   H8Y 1432   4.155   3.068   6.985  0.4298  0.4498 -0.3794
   11SAPS   C39 1433   4.268   3.162   7.146 -0.0098 -0.7833  0.1445
   11SAPS   H9X 1434   4.249   3.267   7.113  0.9418 -0.1645  1.4749
   11SAPS   H9Y 1435   4.376   3.161   7.172  0.3848 -0.7052 -1.3680
   11SAPS  C310 1436   4.196   3.127   7.276  0.4280  0.3046  0.3983
   11SAPS  H10X 1437   4.227   3.021   7.286  0.1543  0.3667  2.2287
   11SAPS  H10Y 1438   4.088   3.138   7.254  0.4799  0.2581  0.1236
   11SAPS  C311 1439   4.252   3.210   7.396  0.4520 -0.1996  0.1491
   11SAPS  H11X 1440   4.192   3.304   7.405  0.1311 -0.3881  0.0215
   11SAPS  H11Y 1441   4.357   3.242   7.381  0.8101  0.3754  3.2898
   11SAPS  C312 1442   4.245   3.132   7.528 -0.3201  0.3129 -0.2712
   11SAPS  H12X 1443   4.307   3.042   7.505  1.5902  1.6576 -0.6839
   11SAPS  H12Y 1444   4.141   3.097   7.544 -0.1304  0.8146  2.4197
   11SAPS  C313 1445   4.296   3.223   7.639 -0.2280 -0.0723 -0.4482
   11SAPS  H13X 1446   4.222   3.303   7.663 -1.9161 -0.9646 -2.4295
   11SAPS  H13Y 1447   4.391   3.274   7.611 -1.2225  1.1892 -1.6640
   11SAPS  C314 1448   4.320   3.135   7.770 -1.0222  0.3832  0.0122
   11SAPS  H14X 1449   4.375   3.045   7.733  0.3049  1.4331 -0.6470
   11SAPS  H14Y 1450   4.221   3.103   7.809 -1.0160  0.5406  0.1578
   11SAPS  C315 1451   4.400   3.214   7.877 -0.9456 -0.0297  0.3341
   11SAPS  H15X 1452   4.343   3.300   7.916  1.4747  3.2533 -2.7579
   11SAPS  H15Y 1453   4.491   3.252   7.825 -0.9919 -1.6135 -1.0060
   11SAPS  C316 1454   4.447   3.127   7.986  0.4433  0.5518 -0.1667
   11SAPS  H16X 1455   4.487   3.025   7.968 -1.3852 -0.5842  1.7404
   11SAPS  H16Y 1456   4.359   3.092   8.045  0.9178  2.4011  1.7130
   11SAPS  C317 1457   4.546   3.196   8.082  0.8681 -0.3777  0.1934
   11SAPS  H17X 1458   4.505   3.287   8.130 -1.4669 -0.8169 -0.8056
   11SAPS  H17Y 1459   4.650   3.213   8.046  0.9511 -0.1310  0.5483
   11SAPS  C318 1460   4.583   3.104   8.196  0.2189  0.2697  1.2782
   11SAPS  H18X 1461   4.485   3.078   8.243 -0.5921 -1.2699 -1.0950
   11SAPS  H18Y 1462   4.660   3.146   8.265  1.2942 -0.2950  0.4508
   11SAPS  H18Z 1463   4.633   3.013   8.157  1.2407  1.5137 -0.4290
   12SAPS     N 1464   3.493   6.077   6.196 -0.4681 -0.0726  0.6181
   12SAPS   HN1 1465   3.550   6.139   6.256  1.1261 -1.6108  0.7616
   12SAPS   HN2 1466   3.402   6.127   6.184 -0.0078  0.6745  0.1770
   12SAPS   HN3 1467   3.480   5.993   6.255 -0.5445  0.9964  2.1822
   12SAPS   C12 1468   3.568   6.049   6.075 -0.2043  0.1496 -0.6058
   12SAPS  H12A 1469   3.508   5.987   6.010  0.6642  0.2559 -1.5513
   12SAPS   C13 1470   3.619   6.170   6.000  0.0863 -0.4990  0.2565
   12SAPS  O13A 1471   3.588   6.289   6.032 -0.2023  0.4998 -0.4797
   12SAPS  O13B 1472   3.675   6.155   5.887 -0.3866 -0.3215  0.3687
   12SAPS   C11 1473   3.683   5.962   6.125 -0.8806  1.0097 -0.4116
   12SAPS  H11A 1474   3.718   6.001   6.223 -1.9154 -0.8871  0.7842
   12SAPS  H11B 1475   3.767   5.966   6.053  1.2671  1.2716  1.9488
   12SAPS     P 1476   3.741   5.714   6.175 -0.1021 -0.3965 -0.1332
   12SAPS   O13 1477   3.668   5.592   6.176 -0.8338 -0.0542 -0.6505
   12SAPS   O14 1478   3.845   5.732   6.075  0.2688 -0.3313  0.4687
   12SAPS   O12 1479   3.635   5.829   6.150 -0.1166  0.1460  0.1294
   12SAPS   O11 1480   3.811   5.738   6.314 -0.1271  0.8007 -1.0879
   12SAPS    C1 1481   3.729   5.756   6.428 -0.3009  0.0509 -0.2998
   12SAPS    HA 1482   3.700   5.863   6.438  0.0655  0.0332  1.0276
   12SAPS    HB 1483   3.636   5.695   6.426 -0.4662  0.2927 -0.1136
   12SAPS    C2 1484   3.797   5.716   6.561 -0.0195  0.6520 -0.0308
   12SAPS    HS 1485   3.722   5.708   6.642  1.3666  2.6111  1.5483
   12SAPS   O21 1486   3.899   5.808   6.600  0.2357  0.0469  0.0235
   12SAPS   C21 1487   3.862   5.922   6.656 -1.0912 -1.0018  0.0223
   12SAPS   O22 1488   3.748   5.959   6.669 -0.2408 -0.5882  0.3082
   12SAPS   C22 1489   3.987   5.993   6.707  0.2163 -0.3843 -0.0333
   12SAPS   H2R 1490   4.074   5.960   6.647  2.1022  2.0940  1.1033
   12SAPS   H2S 1491   3.970   6.102   6.696 -0.0578 -0.4001  0.2302
   12SAPS    C3 1492   3.861   5.575   6.559 -0.0555  0.4020  0.0631
   12SAPS    HX 1493   3.944   5.587   6.486 -0.8975  2.0476 -0.6955
   12SAPS    HY 1494   3.786   5.507   6.515  1.1166 -0.1873 -1.0904
   12SAPS   O31 1495   3.911   5.533   6.690  0.1242  0.5443  0.6380
   12SAPS   C31 1496   3.831   5.474   6.763  0.6459  1.5091 -0.1445
   12SAPS   O32 1497   3.721   5.427   6.725  0.9396 -0.2839 -0.0724
   12SAPS   C32 1498   3.880   5.449   6.906  0.9628 -0.2397  0.8037
   12SAPS   H2X 1499   3.866   5.550   6.949 -4.4742  0.2427 -1.3443
   12SAPS   H2Y 1500   3.990   5.430   6.899  1.1113  0.3488  1.4521
   12SAPS   C23 1501   4.003   5.962   6.854 -0.2474  0.3593  0.1897
   12SAPS   H3R 1502   3.912   5.991   6.912  0.1415  1.8522  0.0847
   12SAPS   H3S 1503   4.089   6.023   6.890  0.0096  0.2999 -0.3149
   12SAPS   C24 1504   4.045   5.816   6.885  0.0156  0.6993 -0.2371
   12SAPS   H4R 1505   3.977   5.742   6.837  1.5353  0.5590 -2.3055
   12SAPS   H4S 1506   4.036   5.820   6.996 -1.0619 -1.5062 -0.2014
   12SAPS   C25 1507   4.179   5.767   6.842  0.5981  0.6810  0.0683
   12SAPS   H5R 1508   4.199   5.760   6.734 -0.2034 -1.4176  0.0067
   12SAPS   C26 1509   4.283   5.743   6.930  0.3307 -0.3022 -0.1460
   12SAPS   H6R 1510   4.378   5.711   6.885  0.1147  1.1027 -1.6919
   12SAPS   C27 1511   4.279   5.766   7.078 -0.2430  0.2954 -0.7024
   12SAPS   H7R 1512   4.248   5.869   7.104 -0.2169  0.1684 -0.1597
   12SAPS   H7S 1513   4.384   5.750   7.111 -1.3377 -0.0368  3.0878
   12SAPS   C28 1514   4.197   5.665   7.158 -0.1101  0.7920 -0.2367
   12SAPS   H8R 1515   4.132   5.600   7.097 -1.0737  0.9164  0.6226
   12SAPS   C29 1516   4.175   5.678   7.291  0.3850  0.4086  0.8477
   12SAPS   H9R 1517   4.111   5.595   7.327 -1.8200  0.8240 -1.7676
   12SAPS  C210 1518   4.222   5.788   7.381  0.1972  0.2965  0.7643
   12SAPS  H10R 1519   4.219   5.872   7.308  0.8712  0.3155  0.7495
   12SAPS  H10S 1520   4.329   5.772   7.408  0.3760  0.1243 -0.0223
   12SAPS  C211 1521   4.132   5.820   7.500  0.3676 -0.5272  0.0634
   12SAPS  H11R 1522   4.044   5.884   7.482  0.4181  0.0534  1.7049
   12SAPS  C212 1523   4.146   5.777   7.629  0.6358  0.3699  0.1003
   12SAPS  H12R 1524   4.090   5.825   7.710  0.6399  0.7352 -0.1091
   12SAPS  C213 1525   4.252   5.684   7.678 -0.4679 -0.9383 -0.4634
   12SAPS  H13R 1526   4.326   5.648   7.604  0.1803 -0.6861  0.0497
   12SAPS  H13S 1527   4.194   5.603   7.726 -2.4295  0.5610 -0.1639
   12SAPS  C214 1528   4.339   5.759   7.771  0.1358 -0.8214 -0.5192
   12SAPS  H14R 1529   4.422   5.820   7.733  0.7251 -0.2818  1.4885
   12SAPS  C215 1530   4.335   5.759   7.905  0.5590  0.0320 -0.8691
   12SAPS  H15R 1531   4.413   5.817   7.956 -0.8326  0.1278  1.2865
   12SAPS  C216 1532   4.238   5.688   7.993  0.0480  0.1289  0.5799
   12SAPS  H16R 1533   4.271   5.590   8.035  0.3595  0.0912  0.2599
   12SAPS  H16S 1534   4.145   5.657   7.941  0.4227 -2.5053  1.3293
   12SAPS  C217 1535   4.199   5.775   8.117 -0.1903 -0.4999 -0.4038
   12SAPS  H17R 1536   4.106   5.833   8.098 -0.4345 -0.4903  0.7379
   12SAPS  H17S 1537   4.293   5.834   8.126  1.5846 -2.8688 -1.9236
   12SAPS  C218 1538   4.187   5.678   8.244 -0.5938  0.3312  0.1657
   12SAPS  H18R 1539   4.134   5.586   8.209  2.8169 -1.1072 -1.7089
   12SAPS  H18S 1540   4.117   5.730   8.313 -1.5488 -0.9023  0.1531
   12SAPS  C219 1541   4.318   5.651   8.320  0.0785  0.1906  0.1537
   12SAPS  H19R 1542   4.378   5.743   8.337  1.7733 -0.9006  0.2888
   12SAPS  H19S 1543   4.371   5.593   8.241 -0.1970  0.1646 -0.0124
   12SAPS  C220 1544   4.309   5.573   8.453  0.5811  0.2224  0.6103
   12SAPS  H20R 1545   4.264   5.635   8.533  1.2608 -1.2781  2.2463
   12SAPS  H20S 1546   4.416   5.559   8.482  0.9178 -2.6445 -1.5290
   12SAPS  H20T 1547   4.253   5.479   8.430  2.8724 -1.0246 -0.2554
   12SAPS   C33 1548   3.807   5.339   6.973  0.1209 -0.1901 -0.3832
   12SAPS   H3X 1549   3.797   5.252   6.904 -0.6453  0.6399 -1.3605
   12SAPS   H3Y 1550   3.701   5.373   6.984 -0.1577  0.0694 -3.0710
   12SAPS   C34 1551   3.864   5.289   7.102 -0.4768  0.2962  0.0297
   12SAPS   H4X 1552   3.967   5.250   7.086 -0.4366  0.2298  0.4324
   12SAPS   H4Y 1553   3.801   5.204   7.136 -2.8994  2.0997  0.3756
   12SAPS   C35 1554   3.865   5.386   7.215  0.7505  0.3600 -0.0563
   12SAPS   H5X 1555   3.768   5.439   7.220  1.3102  1.6765 -2.0003
   12SAPS   H5Y 1556   3.939   5.467   7.195  0.5030  0.4668 -0.5686
   12SAPS   C36 1557   3.884   5.321   7.356 -0.5555  0.1315  0.0293
   12SAPS   H6X 1558   3.976   5.260   7.353 -2.2096 -2.4780 -0.4325
   12SAPS   H6Y 1559   3.799   5.252   7.375 -2.3012  1.9084 -0.9509
   12SAPS   C37 1560   3.889   5.423   7.463 -0.6750 -0.2095  0.6004
   12SAPS   H7X 1561   3.789   5.464   7.486 -0.8878 -0.2564 -0.1964
   12SAPS   H7Y 1562   3.945   5.512   7.425 -0.0414 -0.6547  0.4637
   12SAPS   C38 1563   3.942   5.368   7.595  0.2237  0.8606 -0.5530
   12SAPS   H8X 1564   3.926   5.448   7.671  1.9186  0.8946 -0.2042
   12SAPS   H8Y 1565   4.051   5.352   7.585  0.1733  0.7977 -1.0459
   12SAPS   C39 1566   3.870   5.235   7.634 -0.1325  0.5246  0.1874
   12SAPS   H9X 1567   3.888   5.151   7.564 -1.1328 -1.9695  2.7457
   12SAPS   H9Y 1568   3.761   5.244   7.651 -0.4660  0.6584 -1.8156
   12SAPS  C310 1569   3.935   5.182   7.769  0.1026 -0.4184  0.6488
   12SAPS  H10X 1570   4.038   5.144   7.754 -0.2664 -0.8815 -0.8477
   12SAPS  H10Y 1571   3.885   5.088   7.801 -0.0533 -1.0924 -1.4261
   12SAPS  C311 1572   3.935   5.282   7.890 -0.3843 -0.7806  0.2575
   12SAPS  H11X 1573   3.836   5.331   7.902 -0.6490 -0.8419 -1.4939
   12SAPS  H11Y 1574   4.004   5.369   7.883  0.8443 -1.6612  1.0314
   12SAPS  C312 1575   3.963   5.230   8.036 -0.2949 -0.0871  0.3091
   12SAPS  H12X 1576   4.048   5.158   8.034 -0.8780 -0.7920 -1.4546
   12SAPS  H12Y 1577   3.877   5.166   8.064  1.1430 -1.9866  0.6401
   12SAPS  C313 1578   3.983   5.336   8.146  0.0054 -0.0519  0.0127
   12SAPS  H13X 1579   3.907   5.415   8.127 -1.8421 -1.7541  0.0289
   12SAPS  H13Y 1580   4.077   5.396   8.146 -1.0123  1.6361 -1.4748
   12SAPS  C314 1581   3.924   5.276   8.276 -1.1000 -0.2153  0.2539
   12SAPS  H14X 1582   3.988   5.198   8.322 -1.8776 -0.4853  0.8986
   12SAPS  H14Y 1583   3.824   5.232   8.255 -1.4843  0.6128  0.3269
   12SAPS  C315 1584   3.899   5.370   8.392 -0.1810 -0.6191 -0.2142
   12SAPS  H15X 1585   3.845   5.458   8.351  1.0246  0.9527  1.4298
   12SAPS  H15Y 1586   3.990   5.414   8.438 -1.1898  0.8466  0.4546
   12SAPS  C316 1587   3.802   5.313   8.504  0.7696 -0.5842  0.4587
   12SAPS  H16X 1588   3.854   5.224   8.546 -1.1266 -1.6606  0.6714
   12SAPS  H16Y 1589   3.709   5.279   8.454 -0.1974 -0.2010  1.9332
   12SAPS  C317 1590   3.751   5.427   8.601 -0.0024 -0.4754 -0.5194
   12SAPS  H17X 1591   3.698   5.368   8.679 -0.5586 -0.2931 -0.7523
   12SAPS  H17Y 1592   3.682   5.486   8.538  0.8101 -1.5979 -2.5595
   12SAPS  C318 1593   3.859   5.515   8.663  0.6954 -0.1117 -0.3520
   12SAPS  H18X 1594   3.915   5.568   8.583  0.3055  1.1778  0.1993
   12SAPS  H18Y 1595   3.918   5.446   8.726 -0.6023  0.0576  1.1178
   12SAPS  H18Z 1596   3.811   5.595   8.724  0.6679 -0.9885  0.8245
   13SAPS     N 1597   3.223   1.224   6.271  1.0966  0.0429  0.0990
   13SAPS   HN1 1598   3.142   1.234   6.207  0.9163  0.5241  0.3945
   13SAPS   HN2 1599   3.251   1.125   6.262  0.7192 -0.1495  1.0401
   13SAPS   HN3 1600   3.211   1.247   6.371  0.4393  0.2437 -0.0245
   13SAPS   C12 1601   3.338   1.306   6.212  0.5904 -0.4499 -0.3165
   13SAPS  H12A 1602   3.422   1.302   6.280  0.5903  1.2058 -0.1785
   13SAPS   C13 1603   3.383   1.268   6.064  0.3276 -0.1377  0.2091
   13SAPS  O13A 1604   3.303   1.199   5.994 -0.4659 -0.1577  0.2838
   13SAPS  O13B 1605   3.470   1.335   6.001 -0.2536 -0.6443  0.0641
   13SAPS   C11 1606   3.291   1.454   6.199 -0.3352  0.2534  0.0691
   13SAPS  H11A 1607   3.197   1.441   6.142 -2.2468  0.7573  2.9127
   13SAPS  H11B 1608   3.363   1.521   6.146  2.8131 -2.2603  0.8282
   13SAPS     P 1609   3.176   1.633   6.352  0.1175 -0.1772  0.4242
   13SAPS   O13 1610   3.254   1.739   6.283  0.7274  0.4199 -0.1095
   13SAPS   O14 1611   3.030   1.607   6.322 -0.0694  0.4577  0.5001
   13SAPS   O12 1612   3.265   1.499   6.328  0.1764 -0.6977 -0.0912
   13SAPS   O11 1613   3.179   1.650   6.505  0.4113 -0.2491 -0.0211
   13SAPS    C1 1614   3.221   1.562   6.606 -0.2638 -0.1455  0.8910
   13SAPS    HA 1615   3.210   1.461   6.561  3.4271  0.9671 -3.2036
   13SAPS    HB 1616   3.329   1.581   6.626 -0.4207  1.1753  0.6018
   13SAPS    C2 1617   3.140   1.576   6.735 -1.0424 -0.8652  0.1813
   13SAPS    HS 1618   3.031   1.569   6.713 -1.2506  2.1926 -0.1229
   13SAPS   O21 1619   3.191   1.687   6.809  0.0333  0.0772  0.6231
   13SAPS   C21 1620   3.101   1.774   6.846 -0.1162  0.2749 -0.2094
   13SAPS   O22 1621   2.983   1.770   6.818  0.0477  0.1400  1.1367
   13SAPS   C22 1622   3.165   1.886   6.926  0.5541  0.5405  0.2528
   13SAPS   H2R 1623   3.215   1.948   6.849  0.1551  0.8061  0.2075
   13SAPS   H2S 1624   3.078   1.937   6.973  1.4634  0.5943  1.9569
   13SAPS    C3 1625   3.162   1.449   6.813  0.1111 -0.5396  0.4684
   13SAPS    HX 1626   3.269   1.429   6.833  0.0729 -1.0903  0.1586
   13SAPS    HY 1627   3.131   1.363   6.749 -0.9070 -0.3089  0.6263
   13SAPS   O31 1628   3.087   1.456   6.937 -0.0825 -0.3917 -0.3216
   13SAPS   C31 1629   3.082   1.334   6.996  0.3299  0.2711 -0.1736
   13SAPS   O32 1630   3.153   1.240   6.964 -1.1636 -0.1303  0.0285
   13SAPS   C32 1631   2.982   1.336   7.110 -0.5847 -0.4210 -0.5791
   13SAPS   H2X 1632   2.949   1.230   7.118 -0.2742 -0.4518  0.5272
   13SAPS   H2Y 1633   2.886   1.384   7.083 -1.0825 -0.4476  1.0433
   13SAPS   C23 1634   3.278   1.837   7.022 -0.2424  0.2792 -0.5043
   13SAPS   H3R 1635   3.361   1.784   6.971  0.0925 -0.4274  0.7392
   13SAPS   H3S 1636   3.234   1.762   7.091 -0.6272  1.0780  0.1377
   13SAPS   C24 1637   3.351   1.957   7.089 -0.4381 -0.0195 -0.0409
   13SAPS   H4R 1638   3.269   2.016   7.137 -1.2009  0.3239 -1.7145
   13SAPS   H4S 1639   3.379   2.018   7.000  1.3608 -0.9201 -0.1407
   13SAPS   C25 1640   3.479   1.934   7.162  0.3927  0.6645 -0.9150
   13SAPS   H5R 1641   3.560   1.895   7.099 -0.0907 -0.5552 -0.7983
   13SAPS   C26 1642   3.504   1.953   7.290 -0.3936  0.0064 -0.3817
   13SAPS   H6R 1643   3.605   1.925   7.325  0.1559  1.6657 -0.5313
   13SAPS   C27 1644   3.403   2.006   7.390 -0.3969  0.1726  0.3080
   13SAPS   H7R 1645   3.325   2.071   7.343  1.0109  1.5765 -0.1697
   13SAPS   H7S 1646   3.459   2.084   7.445 -0.1004 -0.0134  0.2689
   13SAPS   C28 1647   3.355   1.900   7.492 -0.1991 -1.2531  0.3840
   13SAPS   H8R 1648   3.265   1.844   7.467  0.1724 -0.7795 -2.2767
   13SAPS   C29 1649   3.417   1.878   7.607 -0.6576 -0.5253 -0.4238
   13SAPS   H9R 1650   3.381   1.805   7.681 -0.3777  0.3188  0.5763
   13SAPS  C210 1651   3.540   1.950   7.659  0.3126 -0.0813 -0.1694
   13SAPS  H10R 1652   3.593   1.997   7.574 -0.3186 -0.2732 -0.6806
   13SAPS  H10S 1653   3.609   1.880   7.710  1.4752  0.1812 -1.3248
   13SAPS  C211 1654   3.496   2.053   7.767 -0.2530 -0.0886  0.0571
   13SAPS  H11R 1655   3.447   2.143   7.730 -2.7753 -1.0519  0.8337
   13SAPS  C212 1656   3.497   2.030   7.899 -0.0197 -0.1246 -0.0493
   13SAPS  H12R 1657   3.454   2.108   7.964  1.0173  0.0128  0.4947
   13SAPS  C213 1658   3.543   1.916   7.978 -0.1882 -0.4641  0.3156
   13SAPS  H13R 1659   3.566   1.834   7.907 -3.9686 -0.1704 -1.5047
   13SAPS  H13S 1660   3.471   1.862   8.044  0.6927 -2.3389 -0.1869
   13SAPS  C214 1661   3.665   1.948   8.052 -0.0192  0.7228 -0.1854
   13SAPS  H14R 1662   3.756   1.944   7.991  0.3363  2.0737  0.2047
   13SAPS  C215 1663   3.677   1.970   8.183  0.4907 -0.1149  0.0549
   13SAPS  H15R 1664   3.778   1.980   8.225  0.5559 -2.3023  0.5187
   13SAPS  C216 1665   3.557   1.960   8.278 -0.2042  0.0834  0.5462
   13SAPS  H16R 1666   3.568   1.871   8.343  2.8780  0.9839  1.4596
   13SAPS  H16S 1667   3.458   1.978   8.231  1.3363 -1.8448 -3.9909
   13SAPS  C217 1668   3.583   2.077   8.376  0.2796  0.0680  0.0056
   13SAPS  H17R 1669   3.581   2.175   8.324 -1.2814  0.6842  1.1642
   13SAPS  H17S 1670   3.679   2.065   8.431 -0.9195  1.3008  2.5601
   13SAPS  C218 1671   3.481   2.094   8.486  0.3343  0.1955 -0.6296
   13SAPS  H18R 1672   3.450   1.996   8.529  0.1359 -0.0758 -1.3740
   13SAPS  H18S 1673   3.396   2.152   8.445 -0.4021  1.1816  2.0537
   13SAPS  C219 1674   3.529   2.166   8.613 -0.2889  0.2315 -0.7289
   13SAPS  H19R 1675   3.544   2.268   8.573 -0.7573 -0.1185 -1.8491
   13SAPS  H19S 1676   3.630   2.130   8.640  0.1671 -0.9363 -3.6147
   13SAPS  C220 1677   3.439   2.157   8.740 -0.0026 -0.2386  0.4626
   13SAPS  H20R 1678   3.417   2.051   8.765 -1.2484 -0.3165 -0.8436
   13SAPS  H20S 1679   3.345   2.211   8.715  0.1759 -0.3378 -0.4500
   13SAPS  H20T 1680   3.482   2.207   8.829 -0.8756  0.7731  0.3446
   13SAPS   C33 1681   3.032   1.410   7.237  0.4194 -0.4809  0.7839
   13SAPS   H3X 1682   3.023   1.521   7.228  0.3518 -0.5727 -0.6176
   13SAPS   H3Y 1683   3.140   1.387   7.251  0.0301 -2.8548  0.2632
   13SAPS   C34 1684   2.949   1.354   7.349  0.0407  0.0927  0.3752
   13SAPS   H4X 1685   2.926   1.245   7.355 -1.3267  0.2975 -0.5995
   13SAPS   H4Y 1686   2.846   1.394   7.344  0.2319  0.4832 -0.7929
   13SAPS   C35 1687   2.999   1.393   7.488  0.5263  0.2884 -0.4048
   13SAPS   H5X 1688   3.081   1.326   7.521 -0.7692  0.3269  3.4004
   13SAPS   H5Y 1689   2.927   1.372   7.570  1.5172  0.5307  0.5615
   13SAPS   C36 1690   3.049   1.542   7.502  0.0733 -0.3215 -0.5617
   13SAPS   H6X 1691   2.986   1.607   7.438  0.4776 -1.7055 -2.4740
   13SAPS   H6Y 1692   3.153   1.535   7.464  0.7479 -1.5543  1.3501
   13SAPS   C37 1693   3.054   1.599   7.649 -0.1291  0.3543  0.1691
   13SAPS   H7X 1694   2.987   1.539   7.714  2.5197 -0.9196  1.9369
   13SAPS   H7Y 1695   3.031   1.708   7.645  0.7647  0.5267 -0.5837
   13SAPS   C38 1696   3.194   1.590   7.712  0.3833 -0.0157 -0.1700
   13SAPS   H8X 1697   3.274   1.639   7.653  2.9742 -1.8822  1.5782
   13SAPS   H8Y 1698   3.215   1.481   7.723  0.9004  0.1924  1.0813
   13SAPS   C39 1699   3.186   1.644   7.855 -0.0012  0.4625  0.2310
   13SAPS   H9X 1700   3.090   1.606   7.897 -0.9231  1.7000 -0.6923
   13SAPS   H9Y 1701   3.158   1.752   7.857 -2.7729 -0.1927  0.3578
   13SAPS  C310 1702   3.292   1.613   7.963 -0.4683 -0.4142  0.4649
   13SAPS  H10X 1703   3.388   1.666   7.941 -0.9063  0.7343  1.1988
   13SAPS  H10Y 1704   3.326   1.508   7.955 -2.6284 -1.0284 -1.9819
   13SAPS  C311 1705   3.243   1.646   8.106  0.1008  0.6067 -0.1211
   13SAPS  H11X 1706   3.139   1.613   8.126  0.2157  1.0623  1.4332
   13SAPS  H11Y 1707   3.238   1.757   8.106  0.5019  0.6688  2.0454
   13SAPS  C312 1708   3.343   1.604   8.213 -0.2011 -0.0184  0.0292
   13SAPS  H12X 1709   3.444   1.639   8.184 -0.2684 -0.0568 -0.2556
   13SAPS  H12Y 1710   3.357   1.494   8.199  1.6145  0.3390 -1.4214
   13SAPS  C313 1711   3.295   1.647   8.350 -0.5799  0.1779 -0.1925
   13SAPS  H13X 1712   3.303   1.756   8.368 -0.7213 -0.1242  2.1142
   13SAPS  H13Y 1713   3.351   1.578   8.417 -0.0043 -0.1557 -1.0075
   13SAPS  C314 1714   3.158   1.588   8.379  0.1170 -1.1046 -0.2461
   13SAPS  H14X 1715   3.079   1.635   8.316  0.7219  0.5224  0.1755
   13SAPS  H14Y 1716   3.147   1.635   8.479 -0.3251  0.0920 -0.8296
   13SAPS  C315 1717   3.145   1.433   8.372  0.2295  0.3199 -0.2804
   13SAPS  H15X 1718   3.225   1.382   8.429  1.6216  0.8804 -1.6399
   13SAPS  H15Y 1719   3.150   1.391   8.269 -0.6996 -0.1932 -0.1316
   13SAPS  C316 1720   3.005   1.397   8.432  0.4112  0.7098 -0.0065
   13SAPS  H16X 1721   2.927   1.431   8.361 -0.1138  2.9787  1.5340
   13SAPS  H16Y 1722   3.000   1.448   8.531  1.1772  0.4466  0.1742
   13SAPS  C317 1723   2.991   1.242   8.465 -0.0178 -0.1656  0.4064
   13SAPS  H17X 1724   3.074   1.202   8.528  0.2789  0.3145  0.3240
   13SAPS  H17Y 1725   3.008   1.186   8.371  1.2062 -1.4090  1.3160
   13SAPS  C318 1726   2.854   1.216   8.527 -0.7222 -0.1036  0.3354
   13SAPS  H18X 1727   2.776   1.254   8.457 -0.0462 -0.5247 -0.6608
   13SAPS  H18Y 1728   2.847   1.276   8.620  1.2989  2.2927 -0.9432
   13SAPS  H18Z 1729   2.825   1.110   8.542 -4.2569  0.8823  1.5303
   14SAPS     N 1730   3.955   3.644   5.717  0.1544  0.3872  0.4146
   14SAPS   HN1 1731   3.953   3.716   5.792 -0.4149 -0.8939  1.6766
   14SAPS   HN2 1732   4.016   3.565   5.744 -0.7486 -0.4285  0.1473
   14SAPS   HN3 1733   3.993   3.681   5.627 -0.6521  1.1659  0.3855
   14SAPS   C12 1734   3.814   3.601   5.705  0.6144 -0.3598 -0.4936
   14SAPS  H12A 1735   3.745   3.677   5.672  0.0254 -0.8579 -0.4222
   14SAPS   C13 1736   3.792   3.498   5.600  0.2403  0.7484  1.2698
   14SAPS  O13A 1737   3.890   3.450   5.531  0.0452 -0.1841 -0.3207
   14SAPS  O13B 1738   3.678   3.450   5.582 -0.3051 -0.5488 -0.3231
   14SAPS   C11 1739   3.773   3.539   5.841  0.3022  0.5782 -0.2455
   14SAPS  H11A 1740   3.822   3.443   5.869 -0.3491  0.3385  0.0878
   14SAPS  H11B 1741   3.670   3.500   5.827  0.2184  0.5254  0.4875
   14SAPS     P 1742   3.640   3.687   6.014 -0.0362 -0.1891  0.2493
   14SAPS   O13 1743   3.580   3.790   5.930 -0.0082 -0.0853 -0.0255
   14SAPS   O14 1744   3.548   3.579   6.057 -0.2996  0.3285 -0.3496
   14SAPS   O12 1745   3.773   3.633   5.952 -0.3089 -0.1175 -0.3022
   14SAPS   O11 1746   3.692   3.757   6.145  0.1656  0.5564 -0.4881
   14SAPS    C1 1747   3.774   3.684   6.233  0.1114  0.1154  0.3773
   14SAPS    HA 1748   3.838   3.603   6.191 -0.0538 -0.3606  1.0196
   14SAPS    HB 1749   3.856   3.753   6.265  1.9453 -2.2599  1.1333
   14SAPS    C2 1750   3.698   3.628   6.354 -0.9546  0.2150  0.1004
   14SAPS    HS 1751   3.587   3.633   6.341 -0.9018 -1.2163 -1.1830
   14SAPS   O21 1752   3.732   3.693   6.479 -0.7303  0.1862  0.5020
   14SAPS   C21 1753   3.704   3.826   6.486 -0.1834  0.5276  0.2536
   14SAPS   O22 1754   3.645   3.886   6.400 -0.2163 -0.4200 -0.0007
   14SAPS   C22 1755   3.783   3.889   6.596 -0.2527 -0.0629 -0.6925
   14SAPS   H2R 1756   3.888   3.855   6.605 -1.1327 -2.4785  1.6596
   14SAPS   H2S 1757   3.786   3.998   6.575 -2.4384 -0.2586 -2.3519
   14SAPS    C3 1758   3.715   3.478   6.389 -0.3913 -0.1014  0.5185
   14SAPS    HX 1759   3.823   3.469   6.412 -0.2080 -1.7208 -0.7961
   14SAPS    HY 1760   3.693   3.417   6.299  0.8260 -1.6633  1.2370
   14SAPS   O31 1761   3.628   3.439   6.488  0.0088 -0.9217 -0.1912
   14SAPS   C31 1762   3.644   3.319   6.531  0.1664 -0.1592  0.0497
   14SAPS   O32 1763   3.737   3.246   6.496 -0.1278  0.2320  0.4940
   14SAPS   C32 1764   3.531   3.282   6.615  0.3627  0.6310 -0.6040
   14SAPS   H2X 1765   3.548   3.174   6.635 -1.3042  0.2491 -1.1227
   14SAPS   H2Y 1766   3.434   3.296   6.563 -0.5283  1.0071  1.0925
   14SAPS   C23 1767   3.712   3.847   6.731 -0.0321 -1.1997 -0.2640
   14SAPS   H3R 1768   3.692   3.738   6.738 -1.2873 -0.9027  1.4381
   14SAPS   H3S 1769   3.613   3.897   6.736  0.6665  0.1062  2.6912
   14SAPS   C24 1770   3.790   3.894   6.859 -0.0794  0.3659  0.5867
   14SAPS   H4R 1771   3.807   4.004   6.864 -1.4909  0.6177  0.2581
   14SAPS   H4S 1772   3.886   3.840   6.844 -0.9893 -1.2513  0.3738
   14SAPS   C25 1773   3.703   3.859   6.976  0.1220  0.4675 -0.0393
   14SAPS   H5R 1774   3.601   3.832   6.942  0.1227  0.6864 -0.2158
   14SAPS   C26 1775   3.720   3.849   7.113  0.5385  0.2630 -0.6691
   14SAPS   H6R 1776   3.634   3.819   7.175 -0.4832  1.1219 -1.6366
   14SAPS   C27 1777   3.846   3.870   7.193 -0.8976  0.5815 -0.0041
   14SAPS   H7R 1778   3.824   3.954   7.262 -1.7913  0.2186  0.1639
   14SAPS   H7S 1779   3.929   3.900   7.126 -0.9606  1.6569  0.3703
   14SAPS   C28 1780   3.906   3.759   7.272  0.4794  0.1860 -0.0056
   14SAPS   H8R 1781   3.988   3.706   7.221  0.7229  1.1088 -0.6020
   14SAPS   C29 1782   3.877   3.711   7.395 -0.4428 -0.1427  0.1383
   14SAPS   H9R 1783   3.945   3.639   7.441 -0.0751  1.0463  1.5117
   14SAPS  C210 1784   3.767   3.763   7.486 -0.5987  0.7851  0.5170
   14SAPS  H10R 1785   3.673   3.721   7.445 -0.1838 -0.7058  1.0436
   14SAPS  H10S 1786   3.754   3.873   7.502 -1.5394  0.4653  2.0666
   14SAPS  C211 1787   3.786   3.710   7.624  0.4845  0.2585 -0.8435
   14SAPS  H11R 1788   3.746   3.609   7.640  1.0656  0.2965  1.1040
   14SAPS  C212 1789   3.854   3.769   7.723  0.1789 -0.4050  0.1879
   14SAPS  H12R 1790   3.863   3.711   7.816 -0.4137 -0.3176  0.3043
   14SAPS  C213 1791   3.945   3.894   7.707 -0.0748  0.1039 -0.2535
   14SAPS  H13R 1792   3.912   3.978   7.771  1.4136 -1.7098  3.1810
   14SAPS  H13S 1793   3.949   3.926   7.600  0.7403 -1.2672 -0.6641
   14SAPS  C214 1794   4.092   3.855   7.727  0.0629  0.1935 -0.7993
   14SAPS  H14R 1795   4.131   3.776   7.662 -1.1097 -1.1441  0.0777
   14SAPS  C215 1796   4.171   3.897   7.829  0.3553  0.1204  0.9593
   14SAPS  H15R 1797   4.280   3.881   7.829  0.4012  0.3749  1.7826
   14SAPS  C216 1798   4.130   4.001   7.930 -0.6869  0.1843  0.2714
   14SAPS  H16R 1799   4.021   4.023   7.933 -0.7617 -0.0477 -0.3891
   14SAPS  H16S 1800   4.191   4.093   7.914  1.3842 -1.4248 -1.8182
   14SAPS  C217 1801   4.154   3.955   8.072 -0.5575 -0.1765  0.3452
   14SAPS  H17R 1802   4.095   4.030   8.131 -0.0192  2.9503 -2.7652
   14SAPS  H17S 1803   4.262   3.956   8.098 -1.0822 -2.6859  3.1903
   14SAPS  C218 1804   4.096   3.824   8.116  0.2106  0.2827  0.5070
   14SAPS  H18R 1805   4.122   3.747   8.040 -0.6841  1.3739 -0.9713
   14SAPS  H18S 1806   3.985   3.830   8.112  0.2861  1.3913 -1.0586
   14SAPS  C219 1807   4.134   3.772   8.256 -0.0036 -1.2120 -0.6382
   14SAPS  H19R 1808   4.245   3.780   8.257 -0.1197  1.2235  0.7982
   14SAPS  H19S 1809   4.108   3.666   8.276 -2.6898 -0.7236 -1.0707
   14SAPS  C220 1810   4.067   3.865   8.370 -0.1964 -0.4171 -0.0521
   14SAPS  H20R 1811   3.958   3.877   8.351  0.1234 -1.1984 -2.7505
   14SAPS  H20S 1812   4.120   3.961   8.385 -0.9299 -0.1125  0.6424
   14SAPS  H20T 1813   4.065   3.809   8.466  0.3201 -0.2243  0.0753
   14SAPS   C33 1814   3.548   3.364   6.744  0.0720  0.3465 -0.3885
   14SAPS   H3X 1815   3.443   3.375   6.778  0.3478  0.9064  0.3136
   14SAPS   H3Y 1816   3.573   3.471   6.725  0.0504  0.5952  0.9070
   14SAPS   C34 1817   3.629   3.294   6.851 -1.0392  0.0292  0.1708
   14SAPS   H4X 1818   3.733   3.270   6.819  0.4333  1.5821  3.3441
   14SAPS   H4Y 1819   3.576   3.198   6.868 -1.4943  0.4763  1.3671
   14SAPS   C35 1820   3.641   3.375   6.980 -0.0082 -0.3365 -0.5714
   14SAPS   H5X 1821   3.536   3.396   7.010  0.2254  0.4057 -0.2478
   14SAPS   H5Y 1822   3.685   3.472   6.949 -1.0943  0.5024  0.4099
   14SAPS   C36 1823   3.716   3.306   7.095 -0.5156 -0.0213  0.1569
   14SAPS   H6X 1824   3.818   3.287   7.056 -0.8393 -4.3189  0.8276
   14SAPS   H6Y 1825   3.669   3.205   7.102  0.4927 -1.1546 -4.9905
   14SAPS   C37 1826   3.715   3.374   7.234 -0.6648 -0.0647  0.2582
   14SAPS   H7X 1827   3.607   3.370   7.257 -0.8184 -0.1730 -0.4519
   14SAPS   H7Y 1828   3.742   3.481   7.225 -3.5145  0.5927 -1.7816
   14SAPS   C38 1829   3.805   3.301   7.331 -0.2091 -0.2249 -0.4509
   14SAPS   H8X 1830   3.908   3.329   7.303 -0.5375  2.0482  0.3311
   14SAPS   H8Y 1831   3.804   3.190   7.338  1.5020 -0.2088  0.5771
   14SAPS   C39 1832   3.790   3.344   7.479  0.5062 -0.3081 -0.4946
   14SAPS   H9X 1833   3.687   3.379   7.501  0.3134 -0.9348 -0.3694
   14SAPS   H9Y 1834   3.862   3.423   7.509 -0.7339  0.7135 -0.1361
   14SAPS  C310 1835   3.823   3.233   7.580  0.5017 -0.3738 -0.1287
   14SAPS  H10X 1836   3.912   3.175   7.545  0.5727 -0.0791 -0.4333
   14SAPS  H10Y 1837   3.735   3.166   7.572 -0.8386  1.1577  1.0659
   14SAPS  C311 1838   3.826   3.293   7.727  0.8179  0.4508 -0.0609
   14SAPS  H11X 1839   3.723   3.307   7.767 -0.3349 -1.7310 -1.9901
   14SAPS  H11Y 1840   3.877   3.391   7.727 -1.1595  1.5854  2.1019
   14SAPS  C312 1841   3.892   3.196   7.821  0.6562  0.0961 -0.2618
   14SAPS  H12X 1842   3.995   3.176   7.785  1.6047  1.2401  1.6704
   14SAPS  H12Y 1843   3.829   3.105   7.822 -1.9484  1.7620  1.8476
   14SAPS  C313 1844   3.886   3.253   7.959  0.1790  0.5071  0.2369
   14SAPS  H13X 1845   3.906   3.164   8.022  0.0863  0.3309  0.0168
   14SAPS  H13Y 1846   3.795   3.313   7.982  0.4798  1.0596  0.0211
   14SAPS  C314 1847   4.004   3.346   7.993  1.1805  1.1320  0.1214
   14SAPS  H14X 1848   3.998   3.426   7.917  2.2118  0.2992 -0.8613
   14SAPS  H14Y 1849   4.099   3.294   7.967  1.3449  0.9360  1.0494
   14SAPS  C315 1850   3.983   3.396   8.139  0.0469 -0.2179 -0.4060
   14SAPS  H15X 1851   3.883   3.434   8.167  0.8492  1.2784  0.5153
   14SAPS  H15Y 1852   4.052   3.482   8.150 -1.1026  0.4997  1.4735
   14SAPS  C316 1853   4.013   3.294   8.248 -0.4366  0.4487 -0.3092
   14SAPS  H16X 1854   3.946   3.206   8.243  0.3126 -0.1788  0.4021
   14SAPS  H16Y 1855   3.995   3.340   8.348 -3.1902  0.9974 -0.9672
   14SAPS  C317 1856   4.155   3.251   8.249 -0.3987 -0.2653 -0.2848
   14SAPS  H17X 1857   4.181   3.234   8.143  0.4377 -0.8288  0.0012
   14SAPS  H17Y 1858   4.163   3.151   8.296 -1.1666 -0.1683  0.0734
   14SAPS  C318 1859   4.268   3.351   8.300 -0.0371  0.2627  0.2960
   14SAPS  H18X 1860   4.366   3.297   8.301 -0.5379 -0.6916  1.7826
   14SAPS  H18Y 1861   4.247   3.383   8.404 -0.6969 -1.3149  0.6827
   14SAPS  H18Z 1862   4.271   3.439   8.232 -0.2794  1.0187  1.2487
   15SAPS     N 1863   2.991   4.009   5.667  0.2719 -0.9257  0.4589
   15SAPS   HN1 1864   2.995   4.035   5.566  0.0794 -1.1321  0.3980
   15SAPS   HN2 1865   3.010   4.084   5.736  2.8927 -0.6177 -0.4843
   15SAPS   HN3 1866   3.056   3.928   5.674  3.1779  1.1673 -0.2267
   15SAPS   C12 1867   2.850   3.960   5.695 -0.5648  0.7395  0.0091
   15SAPS  H12A 1868   2.775   4.024   5.651 -0.7785 -0.3883 -1.3566
   15SAPS   C13 1869   2.807   3.821   5.632 -0.4486 -0.8695 -0.8765
   15SAPS  O13A 1870   2.858   3.790   5.522  0.4146  0.0888  0.1440
   15SAPS  O13B 1871   2.687   3.791   5.656  0.2780 -0.8686 -0.7717
   15SAPS   C11 1872   2.829   3.958   5.853 -0.1782  0.4977  0.0735
   15SAPS  H11A 1873   2.884   3.876   5.903 -0.6981 -0.6746 -1.2342
   15SAPS  H11B 1874   2.723   3.936   5.876  0.2152  0.4023  1.9142
   15SAPS     P 1875   2.797   4.134   6.039 -0.3611  0.6013 -0.2374
   15SAPS   O13 1876   2.813   4.276   6.030 -0.1138 -0.1044  0.0827
   15SAPS   O14 1877   2.656   4.090   6.046 -0.2848  0.0204  0.5509
   15SAPS   O12 1878   2.873   4.079   5.913 -0.0318  0.3178 -0.4498
   15SAPS   O11 1879   2.880   4.076   6.160 -0.1031 -0.5379  0.8166
   15SAPS    C1 1880   3.017   4.069   6.160 -0.5880 -0.6843  0.3909
   15SAPS    HA 1881   3.046   3.969   6.121  0.0611 -1.2076  2.1218
   15SAPS    HB 1882   3.064   4.141   6.089 -2.1717  0.4589  0.4611
   15SAPS    C2 1883   3.083   4.078   6.297  0.0957  0.0266 -0.6395
   15SAPS    HS 1884   3.184   4.031   6.289 -0.2309 -1.0246  0.9022
   15SAPS   O21 1885   3.009   4.015   6.401 -0.2791  0.4991 -0.4696
   15SAPS   C21 1886   3.006   3.885   6.394 -0.0692 -0.3835  0.2566
   15SAPS   O22 1887   3.050   3.813   6.306 -0.4957 -0.1440  0.1787
   15SAPS   C22 1888   2.941   3.831   6.525 -0.2998  0.1498 -0.1858
   15SAPS   H2R 1889   3.022   3.799   6.594 -2.0878 -1.6433  1.2002
   15SAPS   H2S 1890   2.890   3.918   6.572  1.8472  0.6691  1.3332
   15SAPS    C3 1891   3.126   4.223   6.326  0.5972 -0.2633 -0.8902
   15SAPS    HX 1892   3.042   4.282   6.366  4.3089  4.3736  1.0461
   15SAPS    HY 1893   3.169   4.278   6.240  3.3057  0.0671  0.5569
   15SAPS   O31 1894   3.224   4.224   6.430  0.3216 -0.7147  0.4626
   15SAPS   C31 1895   3.197   4.211   6.559  0.1371 -0.0807  0.0810
   15SAPS   O32 1896   3.086   4.200   6.607  0.5624 -0.5100  0.0173
   15SAPS   C32 1897   3.332   4.207   6.638 -0.4650  0.0240  0.6678
   15SAPS   H2X 1898   3.391   4.292   6.598  1.9731 -2.6656 -1.9676
   15SAPS   H2Y 1899   3.389   4.119   6.600 -0.0857  0.4804  0.1583
   15SAPS   C23 1900   2.867   3.702   6.482  0.0188 -0.3022  0.1378
   15SAPS   H3R 1901   2.927   3.625   6.428  0.4782 -0.4909  0.8960
   15SAPS   H3S 1902   2.795   3.739   6.407 -0.6236  0.9755  1.3275
   15SAPS   C24 1903   2.792   3.630   6.603  0.1942  1.1093  0.4040
   15SAPS   H4R 1904   2.876   3.590   6.664 -0.4075  0.0564  0.5560
   15SAPS   H4S 1905   2.739   3.541   6.563  0.2720  0.7054  1.1687
   15SAPS   C25 1906   2.705   3.726   6.683 -0.3767 -1.0143 -0.6338
   15SAPS   H5R 1907   2.618   3.771   6.634  0.1718  2.8359  1.5301
   15SAPS   C26 1908   2.742   3.781   6.802  0.2272  0.2057  0.0291
   15SAPS   H6R 1909   2.687   3.859   6.856  1.9536  1.8629 -0.4924
   15SAPS   C27 1910   2.877   3.758   6.868  0.0370 -0.2236 -0.2577
   15SAPS   H7R 1911   2.934   3.672   6.827 -1.2092 -1.5503  0.7055
   15SAPS   H7S 1912   2.869   3.715   6.970  1.8093  0.7363  0.3401
   15SAPS   C28 1913   2.956   3.884   6.868 -0.0849 -0.3893 -0.0113
   15SAPS   H8R 1914   2.973   3.928   6.768  2.6882 -1.3984 -0.0714
   15SAPS   C29 1915   3.003   3.951   6.977 -0.3150  0.0950  0.1484
   15SAPS   H9R 1916   3.060   4.044   6.961 -0.9445  0.1372 -2.3302
   15SAPS  C210 1917   2.978   3.908   7.120 -0.0204 -0.0817  0.4372
   15SAPS  H10R 1918   3.055   3.957   7.183 -0.4496 -0.9714  1.6845
   15SAPS  H10S 1919   2.981   3.798   7.130  0.7775 -0.0466  0.6625
   15SAPS  C211 1920   2.847   3.941   7.195 -0.0658 -0.1992  0.1080
   15SAPS  H11R 1921   2.751   3.958   7.144 -0.1390  0.1659  0.3599
   15SAPS  C212 1922   2.848   3.965   7.328  0.1844  0.0080 -0.3560
   15SAPS  H12R 1923   2.750   3.989   7.371  0.4638  0.3759  0.0746
   15SAPS  C213 1924   2.962   3.960   7.426  0.1573  0.2735  0.3594
   15SAPS  H13R 1925   3.048   3.907   7.380 -1.7961 -3.0872  0.1927
   15SAPS  H13S 1926   2.932   3.895   7.511 -4.2881  1.3844 -0.1143
   15SAPS  C214 1927   2.989   4.101   7.471 -0.1979 -0.7654 -0.2478
   15SAPS  H14R 1928   3.038   4.166   7.397 -1.0433  1.0175  0.6842
   15SAPS  C215 1929   2.957   4.155   7.596 -0.8246  0.3105  0.3253
   15SAPS  H15R 1930   2.981   4.262   7.608  0.4382  0.1107 -0.2070
   15SAPS  C216 1931   2.883   4.084   7.704  0.5225 -0.5707  0.3826
   15SAPS  H16R 1932   2.833   3.988   7.681 -2.4166 -0.2061  4.2137
   15SAPS  H16S 1933   2.792   4.139   7.738  0.3051 -1.3136  1.0595
   15SAPS  C217 1934   2.982   4.067   7.828  0.4264 -0.4829 -1.0618
   15SAPS  H17R 1935   2.921   4.056   7.921  2.8360  0.3368  0.7268
   15SAPS  H17S 1936   3.032   4.160   7.861 -0.8519 -1.1242  3.4210
   15SAPS  C218 1937   3.081   3.953   7.826  0.1902  0.5303  0.2229
   15SAPS  H18R 1938   3.142   3.965   7.733  0.2790  0.6315  0.2939
   15SAPS  H18S 1939   3.036   3.853   7.810  0.9961  0.3739 -1.3839
   15SAPS  C219 1940   3.172   3.941   7.952 -0.2658  0.0739 -0.3036
   15SAPS  H19R 1941   3.226   4.034   7.977 -0.4192  0.5771 -1.7705
   15SAPS  H19S 1942   3.244   3.864   7.919 -1.5402 -1.5189  0.4397
   15SAPS  C220 1943   3.100   3.884   8.073 -0.4215  0.2525 -0.3672
   15SAPS  H20R 1944   3.027   3.950   8.125 -1.4994 -0.9827 -0.2592
   15SAPS  H20S 1945   3.178   3.848   8.143 -0.4402 -0.6081 -0.7763
   15SAPS  H20T 1946   3.053   3.787   8.048  0.0630  0.3585 -1.7761
   15SAPS   C33 1947   3.313   4.187   6.788  0.0954  0.1778  0.3969
   15SAPS   H3X 1948   3.264   4.088   6.802  0.8690 -0.0685  1.5054
   15SAPS   H3Y 1949   3.260   4.273   6.836  3.2481  0.1340  4.5758
   15SAPS   C34 1950   3.451   4.187   6.859 -0.0721 -0.2687  0.3050
   15SAPS   H4X 1951   3.482   4.294   6.868 -1.8982  0.2184  1.4691
   15SAPS   H4Y 1952   3.527   4.148   6.789 -0.1492 -0.4312  0.3125
   15SAPS   C35 1953   3.447   4.120   6.996  0.1254 -0.2342  0.6361
   15SAPS   H5X 1954   3.535   4.160   7.050  1.0187  2.6410 -2.5206
   15SAPS   H5Y 1955   3.452   4.011   6.981 -3.1857 -0.5568  1.1112
   15SAPS   C36 1956   3.327   4.154   7.079  0.7979 -0.6332 -0.1259
   15SAPS   H6X 1957   3.236   4.135   7.018  0.7912 -0.2111 -0.2486
   15SAPS   H6Y 1958   3.318   4.263   7.094 -0.2163 -0.6155 -0.7638
   15SAPS   C37 1959   3.297   4.084   7.219 -0.4777 -0.4740 -0.2122
   15SAPS   H7X 1960   3.288   3.974   7.211  0.5082 -0.5858  0.0244
   15SAPS   H7Y 1961   3.201   4.126   7.257  0.2793  0.2875  0.9373
   15SAPS   C38 1962   3.403   4.109   7.321  0.0948 -0.3074  0.2040
   15SAPS   H8X 1963   3.407   4.219   7.336 -1.5882 -0.3051  0.9450
   15SAPS   H8Y 1964   3.498   4.073   7.277 -0.8275 -1.5202 -0.8919
   15SAPS   C39 1965   3.372   4.026   7.449  0.4210 -0.3728  0.3036
   15SAPS   H9X 1966   3.393   3.920   7.426 -0.3970 -1.0071  2.3261
   15SAPS   H9Y 1967   3.266   4.031   7.481 -0.2623 -1.3288 -1.6903
   15SAPS  C310 1968   3.471   4.064   7.557  0.1884  0.7872  0.4151
   15SAPS  H10X 1969   3.450   4.169   7.589  1.7821  1.5290 -0.8742
   15SAPS  H10Y 1970   3.577   4.046   7.532 -0.0806 -0.9766  0.4397
   15SAPS  C311 1971   3.459   3.984   7.689 -0.4059 -0.9270  0.7382
   15SAPS  H11X 1972   3.481   3.878   7.662 -0.9365 -0.1874 -3.0215
   15SAPS  H11Y 1973   3.361   4.003   7.738 -0.9578  0.6639 -0.9038
   15SAPS  C312 1974   3.562   4.026   7.797 -0.0255  0.1343 -0.1177
   15SAPS  H12X 1975   3.558   4.129   7.837  1.5558 -0.4057  1.5991
   15SAPS  H12Y 1976   3.661   4.013   7.749 -1.1220 -1.7596 -2.0815
   15SAPS  C313 1977   3.550   3.935   7.922  0.1365  0.0095 -0.1216
   15SAPS  H13X 1978   3.603   3.840   7.901 -0.9668 -0.5988 -0.2680
   15SAPS  H13Y 1979   3.443   3.915   7.944 -0.3290  0.3823 -1.9058
   15SAPS  C314 1980   3.609   3.986   8.050 -0.1083 -0.0133  0.1589
   15SAPS  H14X 1981   3.541   4.069   8.077 -1.5727 -0.7601 -1.0963
   15SAPS  H14Y 1982   3.704   4.039   8.028  0.0999 -1.5212 -3.1292
   15SAPS  C315 1983   3.634   3.882   8.164  0.3384  0.1719 -0.5876
   15SAPS  H15X 1984   3.711   3.803   8.146  0.5813  0.1761  0.4096
   15SAPS  H15Y 1985   3.544   3.823   8.189  1.3255 -0.4021  1.8336
   15SAPS  C316 1986   3.673   3.963   8.279  0.5615  0.0433 -0.1493
   15SAPS  H16X 1987   3.593   4.039   8.288 -2.4601 -2.8764 -0.6656
   15SAPS  H16Y 1988   3.776   4.000   8.260  1.2661 -2.4273 -1.5720
   15SAPS  C317 1989   3.673   3.884   8.412  0.2562  0.4695  0.9530
   15SAPS  H17X 1990   3.728   3.788   8.402  0.0901  0.4021  0.6670
   15SAPS  H17Y 1991   3.566   3.860   8.433 -0.7060  4.2996  1.0650
   15SAPS  C318 1992   3.726   3.959   8.535  0.3359  0.1366 -0.2821
   15SAPS  H18X 1993   3.736   3.900   8.628  0.3393  1.6542  0.7229
   15SAPS  H18Y 1994   3.650   4.038   8.557 -2.3018 -1.9020 -1.4778
   15SAPS  H18Z 1995   3.820   4.012   8.509  0.5740 -0.7739 -1.3537
   16SAPS     N 1996   0.430   4.846   6.475 -0.7252 -0.5459  0.0098
   16SAPS   HN1 1997   0.383   4.872   6.386  0.0884 -0.0046 -0.2756
   16SAPS   HN2 1998   0.410   4.912   6.553  2.4611 -0.0041  0.5048
   16SAPS   HN3 1999   0.529   4.864   6.451 -0.6003  2.7101  2.1981
   16SAPS   C12 2000   0.416   4.700   6.501  0.2934 -0.8165  0.2354
   16SAPS  H12A 2001   0.309   4.685   6.510 -0.4418  1.3602 -3.0185
   16SAPS   C13 2002   0.472   4.608   6.391 -0.4307 -0.7650  0.4540
   16SAPS  O13A 2003   0.519   4.658   6.283  0.0555 -0.7702 -0.4067
   16SAPS  O13B 2004   0.431   4.494   6.389 -0.3742  0.3746  0.2839
   16SAPS   C11 2005   0.480   4.666   6.634  0.2305 -0.4684 -0.0017
   16SAPS  H11A 2006   0.462   4.558   6.648  1.0871 -0.5933  0.1924
   16SAPS  H11B 2007   0.427   4.709   6.722 -1.2874 -2.5459  0.1800
   16SAPS     P 2008   0.713   4.627   6.734 -0.0675  0.3010  0.4092
   16SAPS   O13 2009   0.690   4.487   6.710  0.1734  0.1163 -0.3858
   16SAPS   O14 2010   0.850   4.669   6.705 -0.6190 -0.1368 -1.1832
   16SAPS   O12 2011   0.615   4.698   6.634 -0.2979 -0.0283  0.5254
   16SAPS   O11 2012   0.661   4.659   6.883 -0.2156 -0.0757 -0.5508
   16SAPS    C1 2013   0.662   4.797   6.927 -0.2493 -0.1275  0.2157
   16SAPS    HA 2014   0.761   4.832   6.964 -1.3005  3.0195  0.3320
   16SAPS    HB 2015   0.646   4.874   6.849 -2.0936  0.2129  0.8899
   16SAPS    C2 2016   0.555   4.824   7.035  0.9518 -0.1600  0.0861
   16SAPS    HS 2017   0.571   4.928   7.070  0.4957  0.2302 -0.8137
   16SAPS   O21 2018   0.559   4.734   7.150  0.3353  0.5155  0.0079
   16SAPS   C21 2019   0.673   4.749   7.218  0.9577  0.2157 -0.1527
   16SAPS   O22 2020   0.748   4.842   7.213 -0.1479  0.2186  0.0412
   16SAPS   C22 2021   0.686   4.628   7.318  0.1065  0.0965 -0.0865
   16SAPS   H2R 2022   0.585   4.598   7.353 -0.8292  1.3185 -1.6217
   16SAPS   H2S 2023   0.703   4.545   7.247  0.0315  0.1427 -0.1585
   16SAPS    C3 2024   0.404   4.828   6.992  0.1090  0.1013  0.0847
   16SAPS    HX 2025   0.386   4.725   6.957  0.1711  0.0971  0.0650
   16SAPS    HY 2026   0.405   4.898   6.906 -1.2278 -1.6807 -1.4672
   16SAPS   O31 2027   0.320   4.855   7.108 -0.3419 -0.2662  0.0020
   16SAPS   C31 2028   0.188   4.858   7.091  0.2766  0.0461 -0.1513
   16SAPS   O32 2029   0.131   4.839   6.988 -0.3346 -0.5750  0.3524
   16SAPS   C32 2030   0.122   4.882   7.232  0.6452  0.9098 -0.2678
   16SAPS   H2X 2031   0.120   4.992   7.244  1.9552  0.7934  1.4278
   16SAPS   H2Y 2032   0.178   4.828   7.312 -2.4250  0.0984  1.5007
   16SAPS   C23 2033   0.782   4.651   7.439  0.1866  0.1221  0.5901
   16SAPS   H3R 2034   0.713   4.670   7.523  1.0822  2.5910  0.8312
   16SAPS   H3S 2035   0.863   4.727   7.435  2.0731 -1.8426 -1.2555
   16SAPS   C24 2036   0.846   4.516   7.473  0.4901 -0.5929  0.5867
   16SAPS   H4R 2037   0.938   4.535   7.533 -0.1686 -0.2262  1.5014
   16SAPS   H4S 2038   0.872   4.472   7.374  0.6079  0.6940  0.0289
   16SAPS   C25 2039   0.756   4.414   7.549  0.2055  0.8464  0.1601
   16SAPS   H5R 2040   0.690   4.355   7.484 -1.2282  1.8280  0.6699
   16SAPS   C26 2041   0.740   4.404   7.683  0.1448 -0.7175 -0.3385
   16SAPS   H6R 2042   0.688   4.319   7.730  1.4476 -0.3733  1.8344
   16SAPS   C27 2043   0.824   4.488   7.783 -0.1502 -0.0391  0.4877
   16SAPS   H7R 2044   0.745   4.523   7.852 -2.6786 -3.2660 -0.4853
   16SAPS   H7S 2045   0.888   4.564   7.734  1.6683 -0.6110  1.8856
   16SAPS   C28 2046   0.911   4.389   7.847 -0.7309  0.5768  0.0194
   16SAPS   H8R 2047   0.964   4.331   7.770 -1.5281  1.6844 -1.4183
   16SAPS   C29 2048   0.938   4.374   7.983  0.7959  0.4861 -0.0611
   16SAPS   H9R 2049   1.008   4.292   8.002  0.3550  0.0016 -0.5102
   16SAPS  C210 2050   0.894   4.464   8.097  0.4249  0.2126  0.0321
   16SAPS  H10R 2051   0.813   4.529   8.059  0.8041  0.5776 -0.1501
   16SAPS  H10S 2052   0.970   4.542   8.117  1.4478 -0.7023 -0.1958
   16SAPS  C211 2053   0.863   4.388   8.224 -0.5881  0.2988 -0.8339
   16SAPS  H11R 2054   0.941   4.371   8.299  0.7069 -0.1318 -2.2163
   16SAPS  C212 2055   0.740   4.339   8.254  0.3853  0.3805 -0.1246
   16SAPS  H12R 2056   0.729   4.304   8.358 -1.3086 -2.0979 -1.0438
   16SAPS  C213 2057   0.615   4.332   8.169  0.1704  0.3500 -0.2789
   16SAPS  H13R 2058   0.588   4.224   8.165  1.4673  0.0234 -0.9284
   16SAPS  H13S 2059   0.641   4.352   8.062  1.2403 -0.4034 -0.1839
   16SAPS  C214 2060   0.499   4.419   8.221 -0.1630  0.7373  0.2985
   16SAPS  H14R 2061   0.453   4.381   8.313 -1.6770 -0.5219 -0.9173
   16SAPS  C215 2062   0.452   4.534   8.163  0.0486  0.2075  0.3443
   16SAPS  H15R 2063   0.365   4.581   8.211  0.5782  0.5636  0.9822
   16SAPS  C216 2064   0.497   4.598   8.029 -0.1289  0.7017  0.2029
   16SAPS  H16R 2065   0.428   4.564   7.949  0.9869  2.0081 -1.3749
   16SAPS  H16S 2066   0.595   4.558   7.995 -0.1482 -0.6667  1.6267
   16SAPS  C217 2067   0.513   4.751   8.029  0.7769  0.0643  0.1328
   16SAPS  H17R 2068   0.565   4.784   8.121 -1.5994 -2.6424  2.6826
   16SAPS  H17S 2069   0.413   4.793   8.051  0.2067 -1.1411 -0.0253
   16SAPS  C218 2070   0.568   4.796   7.894  0.6958 -0.7091 -0.5010
   16SAPS  H18R 2071   0.514   4.748   7.809 -1.0735  1.4354 -0.6856
   16SAPS  H18S 2072   0.676   4.772   7.887  0.7354 -0.6584 -0.0496
   16SAPS  C219 2073   0.549   4.950   7.876 -0.2143  0.1016 -1.1539
   16SAPS  H19R 2074   0.599   5.002   7.960  0.5995 -1.3563 -0.7156
   16SAPS  H19S 2075   0.438   4.958   7.886 -0.3522 -2.4629  0.0688
   16SAPS  C220 2076   0.607   5.004   7.742  0.0118 -0.3422 -0.5933
   16SAPS  H20R 2077   0.556   4.952   7.658 -1.3870 -2.8019  1.6330
   16SAPS  H20S 2078   0.716   4.985   7.737  0.2057  0.2505  0.8987
   16SAPS  H20T 2079   0.592   5.115   7.740 -1.1187 -0.4702 -0.1304
   16SAPS   C33 2080  -0.028   4.827   7.236 -0.5697 -0.2629  0.2727
   16SAPS   H3X 2081  -0.022   4.718   7.213 -0.1867  0.3091 -2.6714
   16SAPS   H3Y 2082  -0.083   4.882   7.157  1.3062  0.4778 -0.5521
   16SAPS   C34 2083  -0.087   4.838   7.378 -0.3343  0.0650  0.0843
   16SAPS   H4X 2084  -0.100   4.946   7.402 -0.2457 -0.0873  0.8471
   16SAPS   H4Y 2085  -0.024   4.790   7.456 -1.3775 -2.8608 -0.7602
   16SAPS   C35 2086  -0.223   4.773   7.387  0.4314  0.0504 -0.1755
   16SAPS   H5X 2087  -0.206   4.671   7.345  0.5185 -0.6400  1.4598
   16SAPS   H5Y 2088  -0.299   4.818   7.321 -1.1248 -1.9464  0.1640
   16SAPS   C36 2089  -0.297   4.774   7.531 -0.2849  0.4540 -0.7190
   16SAPS   H6X 2090  -0.245   4.704   7.599 -0.3788  1.1252  0.0583
   16SAPS   H6Y 2091  -0.403   4.746   7.516  0.3748 -1.2715 -2.6130
   16SAPS   C37 2092  -0.289   4.911   7.592  0.8496  0.3972 -0.4509
   16SAPS   H7X 2093  -0.318   4.984   7.514 -2.6336 -0.9044 -0.5591
   16SAPS   H7Y 2094  -0.185   4.933   7.626  0.7922 -1.7303  1.3921
   16SAPS   C38 2095  -0.369   4.911   7.720 -0.4188  0.2541  0.3659
   16SAPS   H8X 2096  -0.472   4.874   7.703  0.3218 -0.8636 -2.0903
   16SAPS   H8Y 2097  -0.371   5.011   7.768  0.9422  0.0413  0.9171
   16SAPS   C39 2098  -0.298   4.828   7.827  0.6230  0.0382  0.5403
   16SAPS   H9X 2099  -0.188   4.829   7.812  0.7306  1.5304  1.2491
   16SAPS   H9Y 2100  -0.333   4.725   7.806 -0.9475  1.0323 -2.2740
   16SAPS  C310 2101  -0.333   4.866   7.968  0.3782 -0.1803 -0.0643
   16SAPS  H10X 2102  -0.314   4.975   7.969 -1.8421  0.2959 -1.5812
   16SAPS  H10Y 2103  -0.266   4.807   8.034 -1.3204 -0.2258  1.7021
   16SAPS  C311 2104  -0.481   4.830   8.008 -0.0033 -0.0796 -0.3343
   16SAPS  H11X 2105  -0.499   4.724   7.982 -2.5550  0.1490  0.2134
   16SAPS  H11Y 2106  -0.547   4.882   7.935 -1.0323 -0.6559  0.1652
   16SAPS  C312 2107  -0.530   4.862   8.146  0.9718  0.1913  0.0884
   16SAPS  H12X 2108  -0.536   4.972   8.161  2.4249  0.4109 -0.7830
   16SAPS  H12Y 2109  -0.476   4.816   8.231 -0.9057 -2.0830  0.1552
   16SAPS  C313 2110  -0.677   4.809   8.164 -0.7267 -0.3412  0.1540
   16SAPS  H13X 2111  -0.676   4.699   8.146  0.8731 -0.3941  0.3867
   16SAPS  H13Y 2112  -0.732   4.862   8.084  0.8929  1.1854 -0.0042
   16SAPS  C314 2113  -0.741   4.840   8.303  0.0296  0.2079  0.6351
   16SAPS  H14X 2114  -0.725   4.948   8.323 -0.7047  1.0157 -2.6577
   16SAPS  H14Y 2115  -0.683   4.782   8.378  1.2448  0.2533 -0.2428
   16SAPS  C315 2116  -0.896   4.817   8.296 -0.2412  0.7129 -0.1945
   16SAPS  H15X 2117  -0.942   4.883   8.220  1.4979  0.5525 -1.4458
   16SAPS  H15Y 2118  -0.929   4.851   8.397 -0.4251 -1.3604  0.4783
   16SAPS  C316 2119  -0.934   4.671   8.259 -0.1470 -0.6300  0.0654
   16SAPS  H16X 2120  -0.891   4.656   8.158 -0.0147  0.0792  0.0115
   16SAPS  H16Y 2121  -1.044   4.662   8.261 -0.3357  1.2743  1.9041
   16SAPS  C317 2122  -0.870   4.561   8.346  0.2542  0.1237  0.1455
   16SAPS  H17X 2123  -0.762   4.548   8.327  0.0682  0.5484 -1.3004
   16SAPS  H17Y 2124  -0.927   4.472   8.310  1.4942 -1.3238  1.5902
   16SAPS  C318 2125  -0.880   4.577   8.501  0.6053  0.1630 -0.3743
   16SAPS  H18X 2126  -0.835   4.673   8.536  2.4172 -0.1351 -1.7161
   16SAPS  H18Y 2127  -0.825   4.494   8.549 -0.6408 -0.2334  0.3995
   16SAPS  H18Z 2128  -0.986   4.566   8.531  0.2633  2.6621 -0.4522
   17SAPC     N 2129   0.623   2.128  10.525 -0.1543  0.2268 -0.3402
   17SAPC   C12 2130   0.509   2.035  10.561 -0.1142  0.0603 -0.0023
   17SAPC  H12A 2131   0.459   1.996  10.474 -0.5016 -2.1642  1.1346
   17SAPC  H12B 2132   0.427   2.087  10.608 -1.4499 -1.0651 -1.0030
   17SAPC   C13 2133   0.570   2.232  10.428 -0.9569  0.4792  0.1040
   17SAPC  H13A 2134   0.500   2.297  10.478 -0.6605 -0.1000  1.3153
   17SAPC  H13B 2135   0.656   2.290  10.397  0.9904 -2.7218 -1.0161
   17SAPC  H13C 2136   0.524   2.183  10.344 -0.6430  0.6298 -0.1573
   17SAPC   C14 2137   0.661   2.195  10.655 -0.8536 -0.4375  0.2257
   17SAPC  H14A 2138   0.742   2.264  10.635 -0.3805 -1.1052 -0.2042
   17SAPC  H14B 2139   0.587   2.261  10.696  2.1634  2.6005  1.2668
   17SAPC  H14C 2140   0.704   2.133  10.732 -2.4325 -1.9380 -0.0295
   17SAPC   C15 2141   0.737   2.055  10.468 -0.8308  0.2806 -0.4205
   17SAPC  H15A 2142   0.779   1.976  10.529 -1.6996  0.3801  0.3294
   17SAPC  H15B 2143   0.706   2.006  10.377 -2.1600 -0.5824  0.4581
   17SAPC  H15C 2144   0.808   2.132  10.442 -0.7978  0.7903  1.0917
   17SAPC   C11 2145   0.557   1.906  10.635  0.5452  0.1674  0.3266
   17SAPC  H11A 2146   0.461   1.871  10.678  1.2949 -0.1701  1.7871
   17SAPC  H11B 2147   0.629   1.925  10.718  1.1691 -3.0708  0.6353
   17SAPC     P 2148   0.505   1.711  10.462 -0.0286  0.3904 -0.0218
   17SAPC   O13 2149   0.566   1.678  10.333 -0.5870 -0.7425 -0.6281
   17SAPC   O14 2150   0.459   1.602  10.546 -0.1227 -0.0160 -0.3018
   17SAPC   O12 2151   0.605   1.804  10.543 -0.8481  0.0475 -0.2556
   17SAPC   O11 2152   0.393   1.807  10.410 -0.8720 -0.0897  0.0063
   17SAPC    C1 2153   0.263   1.764  10.370 -0.1638  0.7660  0.1165
   17SAPC    HA 2154   0.255   1.653  10.362  1.6905  0.6692 -1.2878
   17SAPC    HB 2155   0.194   1.800  10.449 -0.1887  1.1578 -0.0827
   17SAPC    C2 2156   0.221   1.828  10.235 -0.0575  0.7717 -0.1550
   17SAPC    HS 2157   0.121   1.789  10.206  0.9770 -0.3320 -2.4830
   17SAPC   O21 2158   0.303   1.798  10.125 -0.2459 -0.2460  0.1202
   17SAPC   C21 2159   0.296   1.677  10.078 -0.1368 -0.0788  0.1087
   17SAPC   O22 2160   0.215   1.595  10.105  0.1615  0.1019 -0.3040
   17SAPC   C22 2161   0.409   1.662   9.971 -0.0772  0.1764 -0.5657
   17SAPC   H2R 2162   0.499   1.669  10.034 -1.8983 -0.3653  2.2771
   17SAPC   H2S 2163   0.391   1.556   9.943 -0.4783 -0.9409  3.3873
   17SAPC    C3 2164   0.203   1.982  10.248 -0.9238 -0.8548  0.0657
   17SAPC    HX 2165   0.285   2.020  10.312 -1.2824  0.9016 -0.4474
   17SAPC    HY 2166   0.102   2.001  10.291 -0.4420  1.9721  0.1538
   17SAPC   O31 2167   0.204   2.053  10.122 -0.2747  0.8437 -0.2106
   17SAPC   C31 2168   0.321   2.095  10.071  0.5539 -0.0142 -0.4811
   17SAPC   O32 2169   0.428   2.084  10.138  0.2791 -0.2652  0.3854
   17SAPC   C32 2170   0.308   2.146   9.932  0.8398  0.0459 -0.0123
   17SAPC   H2X 2171   0.256   2.243   9.940  1.1183  0.4199 -2.1543
   17SAPC   H2Y 2172   0.241   2.075   9.879 -1.5120  0.1548  2.5496
   17SAPC   C23 2173   0.411   1.773   9.867  0.4332  0.1187 -0.1081
   17SAPC   H3R 2174   0.511   1.771   9.819  0.5629 -1.9812  0.1689
   17SAPC   H3S 2175   0.400   1.870   9.921  0.4295 -1.4657  2.9216
   17SAPC   C24 2176   0.312   1.766   9.754  0.6090  0.0560  0.0916
   17SAPC   H4R 2177   0.325   1.863   9.700 -0.2187  0.4827  0.6430
   17SAPC   H4S 2178   0.207   1.764   9.790 -0.1445  1.2305 -1.9093
   17SAPC   C25 2179   0.339   1.651   9.657 -0.0333 -1.1429  0.6368
   17SAPC   H5R 2180   0.435   1.601   9.672  1.3587  1.6673  1.8637
   17SAPC   C26 2181   0.271   1.622   9.545  0.8200 -0.7275 -0.2808
   17SAPC   H6R 2182   0.320   1.549   9.479  1.5022 -3.3189  2.8226
   17SAPC   C27 2183   0.146   1.691   9.502  0.1915  0.0065 -0.2746
   17SAPC   H7R 2184   0.125   1.783   9.561  1.6309  0.1628  0.0256
   17SAPC   H7S 2185   0.059   1.626   9.521  0.0166  0.1868 -0.4471
   17SAPC   C28 2186   0.155   1.743   9.362  0.1824  0.1161  0.6358
   17SAPC   H8R 2187   0.195   1.664   9.296 -1.2068 -0.2781  0.2395
   17SAPC   C29 2188   0.131   1.863   9.311  0.1822 -0.2331  0.2240
   17SAPC   H9R 2189   0.142   1.868   9.202  0.5377  1.0235  0.3000
   17SAPC  C210 2190   0.086   1.992   9.374  0.0107  0.7349 -0.5079
   17SAPC  H10R 2191   0.063   1.977   9.482 -0.0105  1.1534 -0.4501
   17SAPC  H10S 2192  -0.019   2.009   9.341 -0.9964 -1.1649  1.4482
   17SAPC  C211 2193   0.187   2.098   9.364 -0.5892  0.5175  0.3552
   17SAPC  H11R 2194   0.273   2.079   9.430  0.2793 -0.5967 -1.0522
   17SAPC  C212 2195   0.182   2.217   9.303 -0.2422 -0.3693 -0.7325
   17SAPC  H12R 2196   0.269   2.282   9.320 -0.5572  0.3897 -1.8903
   17SAPC  C213 2197   0.064   2.285   9.228 -0.3124 -0.0933  0.5710
   17SAPC  H13R 2198  -0.026   2.252   9.283 -1.9683  2.9436 -0.0569
   17SAPC  H13S 2199   0.054   2.234   9.130 -0.6221 -0.9027  1.0162
   17SAPC  C214 2200   0.072   2.433   9.212  0.1999 -0.6349  0.1179
   17SAPC  H14R 2201   0.169   2.475   9.243  0.3528 -1.8388  1.3929
   17SAPC  C215 2202  -0.022   2.492   9.147  0.1873 -0.7153 -0.0513
   17SAPC  H15R 2203   0.006   2.593   9.114  1.0180 -1.2605 -1.0785
   17SAPC  C216 2204  -0.149   2.438   9.092 -0.2497 -0.5955  0.8901
   17SAPC  H16R 2205  -0.234   2.486   9.146  0.2372  2.9994 -1.2445
   17SAPC  H16S 2206  -0.141   2.328   9.107  2.0439 -0.3406  1.9541
   17SAPC  C217 2207  -0.164   2.465   8.939  0.8654 -0.2207  0.9128
   17SAPC  H17R 2208  -0.081   2.449   8.867 -0.7693  0.8478 -1.3361
   17SAPC  H17S 2209  -0.179   2.574   8.919 -1.9935 -1.1223 -2.9476
   17SAPC  C218 2210  -0.284   2.392   8.879  0.2796  0.6025 -0.1268
   17SAPC  H18R 2211  -0.380   2.435   8.915  0.8993  2.3573 -0.4540
   17SAPC  H18S 2212  -0.273   2.284   8.902 -0.7341  0.3028 -0.9833
   17SAPC  C219 2213  -0.291   2.412   8.722 -0.8506 -0.0219 -0.1141
   17SAPC  H19R 2214  -0.371   2.347   8.682 -0.9075 -0.3206  0.4740
   17SAPC  H19S 2215  -0.199   2.374   8.673  0.0466 -1.9575  2.8253
   17SAPC  C220 2216  -0.322   2.549   8.673 -0.0373  0.0984  1.0599
   17SAPC  H20R 2217  -0.400   2.595   8.737  0.7543 -0.7764  2.7430
   17SAPC  H20S 2218  -0.365   2.557   8.571 -0.3141  1.3390  1.2535
   17SAPC  H20T 2219  -0.235   2.619   8.670 -0.6823  0.9058  0.9876
   17SAPC   C33 2220   0.451   2.157   9.865  0.3564  0.6281  0.2990
   17SAPC   H3X 2221   0.508   2.065   9.889 -1.2188  0.2854  3.1284
   17SAPC   H3Y 2222   0.504   2.244   9.908 -0.1401  1.1481 -0.1217
   17SAPC   C34 2223   0.434   2.164   9.706 -0.1883 -0.4407  0.0527
   17SAPC   H4X 2224   0.363   2.247   9.685 -1.2551 -1.3183  0.0868
   17SAPC   H4Y 2225   0.390   2.070   9.666 -0.2584  0.3092 -1.7034
   17SAPC   C35 2226   0.569   2.185   9.640 -1.0342 -0.6909  0.5311
   17SAPC   H5X 2227   0.658   2.145   9.692 -0.6481 -1.7375 -0.8862
   17SAPC   H5Y 2228   0.583   2.295   9.642 -1.0528 -0.6421 -0.8812
   17SAPC   C36 2229   0.580   2.147   9.491 -0.1316 -0.1087 -0.3566
   17SAPC   H6X 2230   0.478   2.171   9.453 -0.6433  1.3176  1.7821
   17SAPC   H6Y 2231   0.590   2.037   9.482  1.1206 -0.1635  1.2879
   17SAPC   C37 2232   0.693   2.213   9.407  0.4619 -0.5734 -0.2324
   17SAPC   H7X 2233   0.793   2.184   9.445 -0.5109 -2.8852  0.7375
   17SAPC   H7Y 2234   0.690   2.324   9.420  2.4132 -0.2973 -1.6666
   17SAPC   C38 2235   0.671   2.173   9.265 -0.5998 -0.0573  0.4769
   17SAPC   H8X 2236   0.567   2.137   9.252  0.1642 -1.9740 -0.6195
   17SAPC   H8Y 2237   0.729   2.079   9.252 -0.8311 -0.1023 -0.2800
   17SAPC   C39 2238   0.714   2.264   9.155 -0.2364  0.8385 -0.3537
   17SAPC   H9X 2239   0.825   2.274   9.161  0.0557  0.4950 -3.3939
   17SAPC   H9Y 2240   0.680   2.368   9.175 -1.6130  0.6101 -1.3803
   17SAPC  C310 2241   0.670   2.217   9.019  0.0036  0.4316 -0.2382
   17SAPC  H10X 2242   0.559   2.216   9.023  0.0131  0.4506  0.1240
   17SAPC  H10Y 2243   0.697   2.113   8.991 -0.8595  0.0558  0.2847
   17SAPC  C311 2244   0.710   2.300   8.901 -0.1820  0.9574  0.3964
   17SAPC  H11X 2245   0.666   2.402   8.902 -3.0854 -0.2137  1.2538
   17SAPC  H11Y 2246   0.662   2.253   8.813 -0.8879  2.2550  0.0645
   17SAPC  C312 2247   0.866   2.297   8.885  0.2163  0.2102  0.0313
   17SAPC  H12X 2248   0.913   2.200   8.863  0.1344 -0.8270  3.7584
   17SAPC  H12Y 2249   0.918   2.317   8.981 -0.8913  0.1284  0.6663
   17SAPC  C313 2250   0.930   2.400   8.797 -0.1724  0.1454  0.2637
   17SAPC  H13X 2251   0.911   2.499   8.843  1.3823  1.3312 -1.4907
   17SAPC  H13Y 2252   0.882   2.392   8.698  1.9772 -0.6078 -0.7815
   17SAPC  C314 2253   1.075   2.366   8.769 -0.2589  0.1780  0.1086
   17SAPC  H14X 2254   1.095   2.275   8.710  2.1270  1.2554 -0.8916
   17SAPC  H14Y 2255   1.119   2.350   8.870 -2.1582 -1.6896  0.7203
   17SAPC  C315 2256   1.146   2.468   8.692  0.5359 -0.2366  0.1868
   17SAPC  H15X 2257   1.252   2.437   8.679  0.5726  0.0646 -0.2647
   17SAPC  H15Y 2258   1.139   2.558   8.757 -2.7851 -1.9896  2.6216
   17SAPC  C316 2259   1.094   2.496   8.546 -0.1206 -0.0185  0.0987
   17SAPC  H16X 2260   0.992   2.540   8.553  0.3545  1.0369  0.6779
   17SAPC  H16Y 2261   1.077   2.398   8.496 -3.6225 -0.2633  1.4327
   17SAPC  C317 2262   1.190   2.573   8.449  0.2015  0.2611 -0.4238
   17SAPC  H17X 2263   1.278   2.513   8.421  1.7336  2.3731 -0.3879
   17SAPC  H17Y 2264   1.213   2.673   8.492  0.3932 -0.2266  0.6441
   17SAPC  C318 2265   1.123   2.592   8.309  0.5148  0.2347  0.1499
   17SAPC  H18X 2266   1.018   2.629   8.316  0.8654  1.2099  0.3712
   17SAPC  H18Y 2267   1.172   2.671   8.249  0.8705 -1.3695 -1.7817
   17SAPC  H18Z 2268   1.127   2.500   8.248 -2.5247  0.1477 -0.0707
   18SAPC     N 2269   6.785   0.697  10.678  0.0833 -0.2774  0.3516
   18SAPC   C12 2270   6.893   0.704  10.572 -0.6697 -0.3717  0.3602
   18SAPC  H12A 2271   6.855   0.682  10.473  0.8504 -2.4007  0.1750
   18SAPC  H12B 2272   6.957   0.618  10.581  1.7943  1.2404 -0.4863
   18SAPC   C13 2273   6.695   0.815  10.655  0.6470 -0.4311 -0.0872
   18SAPC  H13A 2274   6.633   0.798  10.568  0.6934 -1.4196  0.0604
   18SAPC  H13B 2275   6.636   0.831  10.744  1.5519  0.1801  0.4155
   18SAPC  H13C 2276   6.740   0.913  10.645 -1.2573  0.5532  0.3759
   18SAPC   C14 2277   6.713   0.571  10.670 -0.1789  0.4575  0.5149
   18SAPC  H14A 2278   6.658   0.573  10.576 -1.0652  0.6263  1.0196
   18SAPC  H14B 2279   6.778   0.485  10.667  0.6762  1.1162 -0.9791
   18SAPC  H14C 2280   6.642   0.555  10.750  0.8340  0.6128  1.4467
   18SAPC   C15 2281   6.845   0.726  10.812  0.1156  0.0615  0.5230
   18SAPC  H15A 2282   6.913   0.646  10.839 -0.3734 -0.9788 -1.1521
   18SAPC  H15B 2283   6.905   0.816  10.808 -0.7102  0.6186  0.4195
   18SAPC  H15C 2284   6.774   0.748  10.891 -2.1315  0.0766 -1.3862
   18SAPC   C11 2285   6.982   0.833  10.575 -0.0531 -0.3219  0.1678
   18SAPC  H11A 2286   7.063   0.818  10.501 -1.2358  0.4923 -1.3629
   18SAPC  H11B 2287   7.018   0.837  10.679  0.5385  1.0026 -0.0692
   18SAPC     P 2288   6.960   1.094  10.580  0.1770 -0.0561 -0.4635
   18SAPC   O13 2289   6.838   1.174  10.603  0.1566 -0.6046  0.2424
   18SAPC   O14 2290   7.055   1.097  10.691 -0.3416  0.1897 -0.0203
   18SAPC   O12 2291   6.913   0.948  10.539  0.2077 -0.3221  0.4059
   18SAPC   O11 2292   7.034   1.151  10.457 -1.1328 -0.4852  0.0790
   18SAPC    C1 2293   7.007   1.104  10.325  0.0312  0.2816 -0.2917
   18SAPC    HA 2294   7.065   1.011  10.306  1.1064  1.4354 -3.1891
   18SAPC    HB 2295   6.898   1.089  10.311 -0.3129 -1.2825  2.9415
   18SAPC    C2 2296   7.047   1.191  10.203 -0.1762 -0.3090 -0.6176
   18SAPC    HS 2297   7.053   1.133  10.108  1.3287 -0.1820 -0.6203
   18SAPC   O21 2298   7.171   1.258  10.234 -0.1273  0.1648 -0.2404
   18SAPC   C21 2299   7.279   1.178  10.236 -0.4676 -0.3531 -0.7220
   18SAPC   O22 2300   7.290   1.058  10.234 -0.0198  0.3569  0.1581
   18SAPC   C22 2301   7.393   1.281  10.270  0.3073 -0.2782  0.1255
   18SAPC   H2R 2302   7.388   1.358  10.191  1.4263 -0.3079  0.0167
   18SAPC   H2S 2303   7.357   1.330  10.363 -1.9878 -2.3813  0.4788
   18SAPC    C3 2304   6.932   1.294  10.174  0.0640  0.2589 -0.1593
   18SAPC    HX 2305   6.969   1.366  10.098  1.4341 -0.9975 -0.7089
   18SAPC    HY 2306   6.909   1.343  10.271  3.0783 -2.2502  2.0048
   18SAPC   O31 2307   6.809   1.232  10.131  0.2345  0.0187  0.0085
   18SAPC   C31 2308   6.708   1.318  10.103 -0.6838  0.0587  0.2563
   18SAPC   O32 2309   6.700   1.433  10.131  0.2156 -0.0753  0.1967
   18SAPC   C32 2310   6.605   1.246  10.029  0.2764  0.1886  0.4393
   18SAPC   H2X 2311   6.504   1.260  10.072  0.4067  3.3261 -0.0542
   18SAPC   H2Y 2312   6.637   1.139  10.035  0.4772  0.1655 -0.7691
   18SAPC   C23 2313   7.540   1.234  10.291  0.6210  0.7067  0.0973
   18SAPC   H3R 2314   7.534   1.181  10.389 -4.8296  2.1342  0.8292
   18SAPC   H3S 2315   7.608   1.318  10.318  1.2890  0.1326  0.2583
   18SAPC   C24 2316   7.598   1.158  10.168 -0.3957 -0.0389 -0.0163
   18SAPC   H4R 2317   7.532   1.075  10.137 -0.8287  0.2530  0.1137
   18SAPC   H4S 2318   7.698   1.115  10.189 -0.6492  0.2103  1.9703
   18SAPC   C25 2319   7.612   1.259  10.060  0.5782 -0.7409  0.2199
   18SAPC   H5R 2320   7.672   1.342  10.100 -0.4618  1.3780 -2.2951
   18SAPC   C26 2321   7.554   1.265   9.938 -0.0422 -0.5080  0.1465
   18SAPC   H6R 2322   7.575   1.351   9.872  2.0039  0.4296  1.9154
   18SAPC   C27 2323   7.458   1.163   9.887 -0.0208  0.2053 -0.7978
   18SAPC   H7R 2324   7.432   1.071   9.943 -0.1501  1.8364  1.9832
   18SAPC   H7S 2325   7.517   1.136   9.797  1.9945  1.3837  0.1070
   18SAPC   C28 2326   7.330   1.238   9.866 -0.0913 -0.0036 -0.5352
   18SAPC   H8R 2327   7.278   1.274   9.956 -1.1697 -1.3624 -0.5715
   18SAPC   C29 2328   7.283   1.270   9.748 -0.0887 -0.1378  0.9003
   18SAPC   H9R 2329   7.192   1.330   9.734  0.8415  0.9354 -1.0439
   18SAPC  C210 2330   7.365   1.237   9.623  0.2190  0.4248 -0.2169
   18SAPC  H10R 2331   7.394   1.130   9.623 -2.1535 -0.3085  0.8319
   18SAPC  H10S 2332   7.445   1.310   9.645 -0.0772  0.0362  2.5258
   18SAPC  C211 2333   7.294   1.254   9.493 -0.2492 -0.1839  0.0104
   18SAPC  H11R 2334   7.186   1.275   9.500 -0.7840 -3.1104  3.0590
   18SAPC  C212 2335   7.352   1.227   9.372 -0.3202 -0.0856 -0.1486
   18SAPC  H12R 2336   7.295   1.232   9.278 -1.5524  0.8042  0.6106
   18SAPC  C213 2337   7.492   1.183   9.354  0.4098 -0.8263 -0.5829
   18SAPC  H13R 2338   7.543   1.175   9.452  1.3085 -0.1210 -0.9715
   18SAPC  H13S 2339   7.550   1.263   9.301  1.5367 -1.1454  0.1346
   18SAPC  C214 2340   7.493   1.055   9.270 -0.2269  0.2513 -0.3829
   18SAPC  H14R 2341   7.411   0.990   9.305 -1.6167  2.5932  0.9710
   18SAPC  C215 2342   7.576   1.012   9.178 -0.0815  0.1579 -1.0064
   18SAPC  H15R 2343   7.550   0.914   9.137 -3.0971  0.1590  0.6458
   18SAPC  C216 2344   7.699   1.081   9.137 -0.4517 -0.3660  0.5331
   18SAPC  H16R 2345   7.780   1.009   9.115  1.4717  1.6685  0.6387
   18SAPC  H16S 2346   7.740   1.142   9.220 -1.5028  1.5026 -0.2700
   18SAPC  C217 2347   7.689   1.181   9.011 -0.4863  0.0094  0.1573
   18SAPC  H17R 2348   7.785   1.237   9.007 -0.1843 -0.4338  1.1130
   18SAPC  H17S 2349   7.600   1.245   9.029 -1.6583 -0.5523 -2.9306
   18SAPC  C218 2350   7.667   1.116   8.870  0.5498  0.5753  0.1008
   18SAPC  H18R 2351   7.724   1.020   8.867 -3.4981 -2.0775 -3.4251
   18SAPC  H18S 2352   7.725   1.173   8.795  2.0916 -1.7337 -0.5770
   18SAPC  C219 2353   7.519   1.102   8.833 -0.2577  0.2109 -0.7708
   18SAPC  H19R 2354   7.468   1.200   8.847 -1.5820 -0.8834  3.3329
   18SAPC  H19S 2355   7.458   1.032   8.893  1.1602 -2.3692 -2.1585
   18SAPC  C220 2356   7.525   1.057   8.689  0.3868  0.3052  0.1768
   18SAPC  H20R 2357   7.425   1.056   8.642  0.9723 -2.7914 -1.3018
   18SAPC  H20S 2358   7.566   0.954   8.676 -2.3655 -0.7275 -1.0156
   18SAPC  H20T 2359   7.586   1.128   8.628 -1.5944  2.3663  0.4764
   18SAPC   C33 2360   6.610   1.287   9.880 -0.3544 -0.7755  1.2863
   18SAPC   H3X 2361   6.629   1.395   9.866  0.7681 -1.2092 -1.0831
   18SAPC   H3Y 2362   6.517   1.258   9.827 -0.0533 -0.1608  0.4045
   18SAPC   C34 2363   6.718   1.232   9.788  0.0595  0.9254 -0.2443
   18SAPC   H4X 2364   6.707   1.125   9.759  1.3747 -0.5335  3.8534
   18SAPC   H4Y 2365   6.809   1.217   9.850  0.2414  0.8650 -0.5267
   18SAPC   C35 2366   6.746   1.309   9.663 -0.6274  0.3799  0.1495
   18SAPC   H5X 2367   6.844   1.272   9.625 -0.4550  1.5846 -0.6241
   18SAPC   H5Y 2368   6.750   1.419   9.678  0.7070  0.3378  0.2253
   18SAPC   C36 2369   6.657   1.279   9.544 -0.4189  0.2783  0.6259
   18SAPC   H6X 2370   6.554   1.308   9.573  1.2949  3.8153  4.0833
   18SAPC   H6Y 2371   6.652   1.170   9.522  1.2631  0.0388  1.2204
   18SAPC   C37 2372   6.704   1.361   9.429  0.6563 -0.1850  0.4916
   18SAPC   H7X 2373   6.689   1.467   9.459 -0.8165 -0.1534 -0.2461
   18SAPC   H7Y 2374   6.632   1.332   9.349  0.3062 -1.1826  1.1584
   18SAPC   C38 2375   6.846   1.349   9.372 -0.0810 -0.3497 -0.5632
   18SAPC   H8X 2376   6.880   1.244   9.365  0.1872 -0.3585  0.7518
   18SAPC   H8Y 2377   6.919   1.391   9.444  0.0282 -0.1908 -0.7640
   18SAPC   C39 2378   6.858   1.412   9.230 -0.2154 -0.0502  0.0411
   18SAPC   H9X 2379   6.833   1.520   9.232  0.5520  0.2488 -2.5061
   18SAPC   H9Y 2380   6.793   1.365   9.153  0.8764  0.9721 -1.5694
   18SAPC  C310 2381   6.999   1.381   9.159  0.2480 -0.2209 -0.4842
   18SAPC  H10X 2382   7.011   1.275   9.127  1.3273 -0.3401  0.2549
   18SAPC  H10Y 2383   7.076   1.414   9.232  0.3986 -0.3652 -0.5766
   18SAPC  C311 2384   7.030   1.475   9.045 -0.4561 -0.0488  0.0928
   18SAPC  H11X 2385   7.139   1.490   9.030 -0.6009  1.0325  0.0413
   18SAPC  H11Y 2386   6.993   1.579   9.060  1.9301  0.5893  2.1826
   18SAPC  C312 2387   6.991   1.423   8.911 -0.3179  0.7690  0.7951
   18SAPC  H12X 2388   6.884   1.393   8.914  0.3986 -2.3925 -0.3557
   18SAPC  H12Y 2389   7.046   1.327   8.898  2.0854  2.2142 -0.4314
   18SAPC  C313 2390   7.010   1.504   8.788  0.5653  0.1228  0.1639
   18SAPC  H13X 2391   6.950   1.597   8.794  0.4641 -0.0399  2.2634
   18SAPC  H13Y 2392   6.956   1.450   8.708 -0.1972  0.3283  0.5293
   18SAPC  C314 2393   7.151   1.538   8.742  0.0939 -0.2758  0.4724
   18SAPC  H14X 2394   7.213   1.447   8.756 -0.2849 -1.2929 -3.3803
   18SAPC  H14Y 2395   7.188   1.619   8.809  1.4538 -0.6534  0.2033
   18SAPC  C315 2396   7.156   1.583   8.598  0.0298  0.0876  0.3867
   18SAPC  H15X 2397   7.150   1.491   8.536 -1.0715  0.5724 -0.2458
   18SAPC  H15Y 2398   7.256   1.627   8.582  0.1140 -0.1415  0.2709
   18SAPC  C316 2399   7.050   1.680   8.550  0.5653 -0.2572  0.1162
   18SAPC  H16X 2400   7.023   1.768   8.613 -0.2845 -2.0167  2.3604
   18SAPC  H16Y 2401   6.951   1.631   8.553  1.2465 -1.6356  1.2027
   18SAPC  C317 2402   7.065   1.719   8.401  0.7386 -0.0403 -0.5431
   18SAPC  H17X 2403   7.040   1.631   8.338 -1.2520 -0.6832  1.0451
   18SAPC  H17Y 2404   7.173   1.736   8.379  0.2735  2.9319 -1.0384
   18SAPC  C318 2405   6.987   1.850   8.365  0.4027 -0.5357 -0.2206
   18SAPC  H18X 2406   7.015   1.938   8.426  1.8920  1.2600 -3.2751
   18SAPC  H18Y 2407   6.876   1.842   8.371  0.2695  0.2970 -1.3279
   18SAPC  H18Z 2408   7.009   1.896   8.267  0.3809  2.7513  1.1898
   19SAPC     N 2409   0.021   4.286  10.844 -0.6553  0.3194 -0.3257
   19SAPC   C12 2410  -0.030   4.157  10.784 -0.0191  0.6331  0.3907
   19SAPC  H12A 2411  -0.122   4.177  10.730 -0.3850 -0.3537  0.6250
   19SAPC  H12B 2412  -0.058   4.089  10.863 -1.6268 -1.2931 -1.6724
   19SAPC   C13 2413   0.036   4.395  10.746  0.7355 -0.1441  0.0179
   19SAPC  H13A 2414  -0.059   4.425  10.705  0.5638 -0.3586  0.2575
   19SAPC  H13B 2415   0.072   4.484  10.797 -2.6234  1.7481 -0.6149
   19SAPC  H13C 2416   0.105   4.370  10.667 -0.4325  0.9271 -1.3922
   19SAPC   C14 2417  -0.071   4.335  10.951  0.2114  1.0092 -0.1793
   19SAPC  H14A 2418  -0.173   4.349  10.919  0.0014 -2.0872 -1.2432
   19SAPC  H14B 2419  -0.069   4.260  11.029  0.9410  0.4025 -0.7646
   19SAPC  H14C 2420  -0.030   4.426  10.991 -0.4127  1.9449 -1.5837
   19SAPC   C15 2421   0.155   4.264  10.905 -0.7307 -0.1570  0.1533
   19SAPC  H15A 2422   0.212   4.220  10.824 -0.4619  1.8434 -0.8079
   19SAPC  H15B 2423   0.195   4.363  10.924 -0.0215 -0.1557 -1.1973
   19SAPC  H15C 2424   0.162   4.197  10.989  0.2802 -0.9350 -0.5195
   19SAPC   C11 2425   0.064   4.086  10.675 -0.4963  0.3183 -0.5273
   19SAPC  H11A 2426  -0.002   4.006  10.635 -1.9372  1.4468 -0.5174
   19SAPC  H11B 2427   0.145   4.037  10.734 -0.7322  1.1355  0.5128
   19SAPC     P 2428   0.268   4.181  10.535 -0.2843 -0.1729  0.1454
   19SAPC   O13 2429   0.308   4.282  10.442 -0.3748 -0.2926  0.5956
   19SAPC   O14 2430   0.336   4.194  10.667 -0.2217  0.3197 -0.0924
   19SAPC   O12 2431   0.113   4.173  10.570  0.0845 -0.8982  0.3320
   19SAPC   O11 2432   0.286   4.045  10.465 -0.3290 -0.1410  0.1546
   19SAPC    C1 2433   0.203   3.963  10.388  0.1077  0.0658  0.0022
   19SAPC    HA 2434   0.249   3.862  10.384  0.5661  0.2941 -2.3082
   19SAPC    HB 2435   0.101   3.944  10.427  0.9714 -2.4921  1.2642
   19SAPC    C2 2436   0.185   4.008  10.240  0.1084  0.0406 -0.4406
   19SAPC    HS 2437   0.284   3.997  10.191 -0.2934 -1.8744 -0.8706
   19SAPC   O21 2438   0.144   4.147  10.246 -0.1941 -0.2718 -0.2008
   19SAPC   C21 2439   0.219   4.234  10.168  0.1753  0.2544  0.0417
   19SAPC   O22 2440   0.311   4.203  10.096  0.5498  0.0809  0.0874
   19SAPC   C22 2441   0.145   4.361  10.164  0.3627 -0.2681  0.4071
   19SAPC   H2R 2442   0.041   4.359  10.124  0.4364 -0.5137  0.2246
   19SAPC   H2S 2443   0.134   4.395  10.269 -1.2853 -1.3976  0.6433
   19SAPC    C3 2444   0.087   3.925  10.157 -0.1484  0.8046 -0.0111
   19SAPC    HX 2445  -0.018   3.939  10.189 -0.6265 -1.2656 -0.5712
   19SAPC    HY 2446   0.095   3.822  10.196 -0.3434  1.7980  2.9465
   19SAPC   O31 2447   0.109   3.924  10.014  0.4163  0.7570  0.2211
   19SAPC   C31 2448   0.015   3.999   9.948  0.4928 -0.5338 -0.1924
   19SAPC   O32 2449  -0.070   4.068  10.002 -0.1634  0.4297  0.5860
   19SAPC   C32 2450   0.038   3.984   9.798  0.6488  1.1999 -0.4950
   19SAPC   H2X 2451   0.041   3.875   9.781 -0.1588  1.3916 -2.0545
   19SAPC   H2Y 2452   0.133   4.036   9.773  0.3364  1.2370 -1.6679
   19SAPC   C23 2453   0.218   4.484  10.098  0.4136  0.3079 -0.0755
   19SAPC   H3R 2454   0.323   4.500  10.131  0.4913 -1.0975  0.4137
   19SAPC   H3S 2455   0.162   4.569  10.143  1.5735  0.5485  0.9711
   19SAPC   C24 2456   0.227   4.490   9.944  0.1555  0.1727  0.0224
   19SAPC   H4R 2457   0.308   4.424   9.908  0.0835 -0.8366  1.6151
   19SAPC   H4S 2458   0.257   4.596   9.933  0.4607 -0.1041 -2.3989
   19SAPC   C25 2459   0.097   4.468   9.869 -0.1080  0.4655  1.3571
   19SAPC   H5R 2460   0.064   4.365   9.889  1.6690  0.1491  2.9741
   19SAPC   C26 2461   0.035   4.550   9.777  0.1011 -0.0641  0.2378
   19SAPC   H6R 2462  -0.059   4.516   9.731  0.4812  0.9844 -1.4098
   19SAPC   C27 2463   0.071   4.681   9.722  0.5359 -0.1901 -0.1973
   19SAPC   H7R 2464   0.146   4.730   9.788  0.1304 -0.8177  0.7490
   19SAPC   H7S 2465  -0.015   4.748   9.743  1.4240  0.7895  0.4984
   19SAPC   C28 2466   0.118   4.677   9.581 -0.2142 -0.4540  0.0618
   19SAPC   H8R 2467   0.201   4.607   9.564 -0.2187 -0.3959 -0.2017
   19SAPC   C29 2468   0.056   4.737   9.477 -0.4325  0.0972  0.8622
   19SAPC   H9R 2469   0.115   4.731   9.384 -2.4107  0.5552 -0.4877
   19SAPC  C210 2470  -0.074   4.824   9.486 -0.2484  0.5178 -0.4707
   19SAPC  H10R 2471  -0.098   4.853   9.591  1.0369  0.6274 -0.1862
   19SAPC  H10S 2472  -0.166   4.774   9.447  0.3269  1.0094 -2.5362
   19SAPC  C211 2473  -0.056   4.952   9.415 -0.0661  0.2958  0.0509
   19SAPC  H11R 2474  -0.023   5.035   9.479 -0.4813  1.1296 -0.7900
   19SAPC  C212 2475  -0.097   4.977   9.292  0.5376 -0.0743 -0.5186
   19SAPC  H12R 2476  -0.082   5.078   9.249  0.7111  0.3214  0.4505
   19SAPC  C213 2477  -0.161   4.884   9.194  0.1893  0.5180  0.0422
   19SAPC  H13R 2478  -0.252   4.923   9.145  0.3360  0.5751 -0.1874
   19SAPC  H13S 2479  -0.200   4.795   9.248 -1.0949 -0.4581 -2.3379
   19SAPC  C214 2480  -0.056   4.831   9.094  0.4807 -0.0392  0.0730
   19SAPC  H14R 2481   0.046   4.859   9.124  1.4298 -3.0029 -0.1405
   19SAPC  C215 2482  -0.091   4.764   8.981 -0.3694  0.0149 -0.8346
   19SAPC  H15R 2483  -0.016   4.748   8.903 -0.1781 -2.2795 -0.2560
   19SAPC  C216 2484  -0.227   4.733   8.939 -0.1128  0.4220  0.3762
   19SAPC  H16R 2485  -0.315   4.775   8.992 -2.0117 -0.1718 -2.0826
   19SAPC  H16S 2486  -0.237   4.623   8.948 -0.1880  0.4897  1.1900
   19SAPC  C217 2487  -0.240   4.758   8.788  0.3985  0.2073 -0.1827
   19SAPC  H17R 2488  -0.182   4.679   8.736 -0.6868 -0.4735 -0.3931
   19SAPC  H17S 2489  -0.198   4.859   8.768 -1.7359  1.0543 -0.7232
   19SAPC  C218 2490  -0.382   4.751   8.733 -0.6686 -0.4163 -0.2371
   19SAPC  H18R 2491  -0.434   4.829   8.793  0.7716 -0.2779  0.8991
   19SAPC  H18S 2492  -0.432   4.655   8.756 -0.6454 -0.5706 -0.8168
   19SAPC  C219 2493  -0.411   4.770   8.584  0.3166 -0.3912  0.0889
   19SAPC  H19R 2494  -0.511   4.727   8.565 -0.1290  1.1625 -1.2260
   19SAPC  H19S 2495  -0.333   4.714   8.528 -0.5006 -0.9707 -0.4801
   19SAPC  C220 2496  -0.425   4.916   8.549 -0.2661  0.6453 -0.1154
   19SAPC  H20R 2497  -0.431   4.913   8.438 -0.9947  0.5324 -0.0800
   19SAPC  H20S 2498  -0.331   4.969   8.576 -1.1880  3.2714 -1.6482
   19SAPC  H20T 2499  -0.515   4.966   8.592 -1.2391 -0.3847 -0.8885
   19SAPC   C33 2500  -0.076   4.051   9.718 -0.0780  0.6291 -0.6745
   19SAPC   H3X 2501  -0.038   4.068   9.615  1.5737 -1.5286 -0.5034
   19SAPC   H3Y 2502  -0.085   4.157   9.750  0.6489  0.3194  0.5982
   19SAPC   C34 2503  -0.207   3.969   9.694  0.1964  0.3933 -0.2927
   19SAPC   H4X 2504  -0.242   3.927   9.791 -0.3060 -2.4976 -1.6339
   19SAPC   H4Y 2505  -0.194   3.890   9.617 -1.4559  0.5729 -0.7863
   19SAPC   C35 2506  -0.325   4.059   9.662 -0.7970  0.0170  0.9313
   19SAPC   H5X 2507  -0.292   4.105   9.566  1.9752  0.7835  2.1570
   19SAPC   H5Y 2508  -0.333   4.135   9.743  0.1115  1.7550 -0.5258
   19SAPC   C36 2509  -0.449   3.975   9.652  0.2972  0.0737 -0.3249
   19SAPC   H6X 2510  -0.459   3.912   9.742  1.2019  1.2263  0.6196
   19SAPC   H6Y 2511  -0.443   3.912   9.561  2.1745 -0.1609 -0.0720
   19SAPC   C37 2512  -0.574   4.060   9.661  0.2732  0.5940  0.0308
   19SAPC   H7X 2513  -0.577   4.127   9.750 -1.7902 -2.2500  2.2860
   19SAPC   H7Y 2514  -0.664   3.995   9.668  0.2032  0.8356  1.8155
   19SAPC   C38 2515  -0.589   4.155   9.536 -0.1745 -0.0281 -0.3221
   19SAPC   H8X 2516  -0.597   4.090   9.446 -1.0720 -1.5906  0.8396
   19SAPC   H8Y 2517  -0.502   4.224   9.527 -0.9934  1.0643 -0.1247
   19SAPC   C39 2518  -0.717   4.247   9.546 -0.1842 -0.7333 -0.5830
   19SAPC   H9X 2519  -0.703   4.310   9.636 -0.2890 -1.8812  0.2647
   19SAPC   H9Y 2520  -0.809   4.191   9.571  0.2145 -0.6897  1.1272
   19SAPC  C310 2521  -0.727   4.327   9.419 -0.5623 -0.6647  0.0130
   19SAPC  H10X 2522  -0.626   4.358   9.384 -0.2907  0.1921  1.4573
   19SAPC  H10Y 2523  -0.785   4.420   9.439  3.2953  2.2576 -1.0529
   19SAPC  C311 2524  -0.807   4.247   9.314  0.0709  0.9086 -0.1154
   19SAPC  H11X 2525  -0.911   4.244   9.352  0.3979  0.7666  0.8059
   19SAPC  H11Y 2526  -0.758   4.148   9.301  0.0512  0.7151  1.1309
   19SAPC  C312 2527  -0.802   4.317   9.175 -0.1851 -0.3335 -0.1436
   19SAPC  H12X 2528  -0.694   4.333   9.154 -0.0632  2.1109  1.8912
   19SAPC  H12Y 2529  -0.853   4.413   9.198  1.0985 -0.1282  2.1767
   19SAPC  C313 2530  -0.880   4.253   9.061  0.5979 -0.3437  0.1996
   19SAPC  H13X 2531  -0.980   4.239   9.107  0.3678 -0.5821 -0.3750
   19SAPC  H13Y 2532  -0.842   4.154   9.025  0.3459 -0.3050 -0.1738
   19SAPC  C314 2533  -0.903   4.339   8.935 -0.0878  0.0060 -0.2728
   19SAPC  H14X 2534  -0.803   4.365   8.896 -0.1253 -0.0795 -0.4251
   19SAPC  H14Y 2535  -0.951   4.437   8.958 -0.9846  0.0110 -1.9773
   19SAPC  C315 2536  -0.992   4.278   8.830 -0.1168 -0.4807 -0.3690
   19SAPC  H15X 2537  -0.959   4.172   8.825 -1.6026 -0.9311 -1.3239
   19SAPC  H15Y 2538  -0.965   4.324   8.733  1.5975  0.7173  0.6259
   19SAPC  C316 2539  -1.143   4.284   8.855  0.1050 -0.1945 -0.9654
   19SAPC  H16X 2540  -1.179   4.387   8.875 -0.0283 -0.0470 -1.8772
   19SAPC  H16Y 2541  -1.165   4.217   8.941 -2.0642  0.4566 -0.9469
   19SAPC  C317 2542  -1.235   4.227   8.740 -0.7895  0.3958 -0.5207
   19SAPC  H17X 2543  -1.210   4.119   8.737  1.1636  0.8224 -0.8588
   19SAPC  H17Y 2544  -1.197   4.276   8.647 -0.7350 -0.1719 -0.8018
   19SAPC  C318 2545  -1.381   4.250   8.755  0.1848  0.4354 -0.4935
   19SAPC  H18X 2546  -1.422   4.208   8.661 -0.5372 -4.1334  1.6260
   19SAPC  H18Y 2547  -1.397   4.360   8.762 -0.1573  0.4845 -1.8209
   19SAPC  H18Z 2548  -1.416   4.192   8.843  0.5236  3.3651  1.7413
   20SAPC     N 2549   5.086   0.628  11.208  0.1690  0.2391 -0.4793
   20SAPC   C12 2550   5.107   0.679  11.067 -0.5206  0.1224 -0.7160
   20SAPC  H12A 2551   5.158   0.775  11.070 -3.4183  1.7779 -1.0109
   20SAPC  H12B 2552   5.013   0.716  11.029  0.0811  1.1732 -1.2370
   20SAPC   C13 2553   5.222   0.613  11.275 -0.4512 -0.1308 -0.6438
   20SAPC  H13A 2554   5.269   0.710  11.273  0.8752 -0.6037  2.3556
   20SAPC  H13B 2555   5.202   0.569  11.372  0.4153  0.4142 -0.2058
   20SAPC  H13C 2556   5.278   0.543  11.215  2.6364  0.6041  1.1378
   20SAPC   C14 2557   4.994   0.712  11.283 -0.2774  0.0335 -0.1097
   20SAPC  H14A 2558   4.891   0.699  11.253  0.1919 -1.7405 -1.1304
   20SAPC  H14B 2559   4.995   0.683  11.387  0.4133  0.0350 -0.1112
   20SAPC  H14C 2560   5.024   0.814  11.300 -1.3615  0.0755  1.9498
   20SAPC   C15 2561   5.032   0.486  11.204  0.3039 -0.1010  0.0826
   20SAPC  H15A 2562   5.103   0.418  11.158 -0.8076 -2.1092  1.2458
   20SAPC  H15B 2563   5.003   0.448  11.300  2.5838 -1.2079  0.4033
   20SAPC  H15C 2564   4.955   0.479  11.128  1.9941 -0.3815 -1.6996
   20SAPC   C11 2565   5.183   0.588  10.967  0.2792  0.5087  0.7774
   20SAPC  H11A 2566   5.170   0.636  10.868 -1.4234 -0.7298  0.3400
   20SAPC  H11B 2567   5.127   0.492  10.959  0.3802  0.5767 -1.2125
   20SAPC     P 2568   5.435   0.661  10.953  0.2159 -0.9080 -0.1260
   20SAPC   O13 2569   5.393   0.802  10.953 -0.0870 -0.2000 -0.4357
   20SAPC   O14 2570   5.552   0.641  11.039 -0.0574  0.2939 -0.1433
   20SAPC   O12 2571   5.320   0.570  11.001  0.4647  0.6516  0.2286
   20SAPC   O11 2572   5.462   0.621  10.810  0.8790 -0.2721  0.2654
   20SAPC    C1 2573   5.545   0.525  10.756  0.1032 -0.6676 -0.1268
   20SAPC    HA 2574   5.644   0.574  10.748  0.2109 -1.0010 -0.9961
   20SAPC    HB 2575   5.558   0.435  10.820  0.2386  0.6267  1.7413
   20SAPC    C2 2576   5.483   0.461  10.631  0.6207 -0.7640  0.3629
   20SAPC    HS 2577   5.567   0.399  10.593  1.8838 -0.0531  1.8932
   20SAPC   O21 2578   5.435   0.563  10.538  0.8699 -0.1358  0.0914
   20SAPC   C21 2579   5.521   0.613  10.452  0.5705 -0.2564  0.6539
   20SAPC   O22 2580   5.643   0.592  10.451  1.1159 -0.1879 -0.7129
   20SAPC   C22 2581   5.448   0.689  10.341 -0.4921 -0.0554 -0.0557
   20SAPC   H2R 2582   5.448   0.631  10.246  0.0247  2.3584 -1.6154
   20SAPC   H2S 2583   5.340   0.689  10.364 -0.3217 -1.6398  0.8896
   20SAPC    C3 2584   5.355   0.374  10.660 -0.5494 -0.3722  0.3857
   20SAPC    HX 2585   5.298   0.430  10.737 -1.1564  0.8212 -0.8872
   20SAPC    HY 2586   5.395   0.287  10.716  1.5141  0.2889  0.0408
   20SAPC   O31 2587   5.279   0.322  10.556 -0.1926 -0.0862 -0.1444
   20SAPC   C31 2588   5.152   0.348  10.557 -0.2105 -0.4323  0.4459
   20SAPC   O32 2589   5.088   0.380  10.657  0.5871 -0.6973 -0.7473
   20SAPC   C32 2590   5.092   0.311  10.417 -0.4223  0.3400  0.2071
   20SAPC   H2X 2591   5.004   0.248  10.443 -0.9648  0.4636 -1.2272
   20SAPC   H2Y 2592   5.173   0.255  10.366  0.7264 -0.4537  2.7228
   20SAPC   C23 2593   5.494   0.832  10.303  0.0501  0.4600  0.0851
   20SAPC   H3R 2594   5.508   0.894  10.394 -1.5021  0.2714  0.4794
   20SAPC   H3S 2595   5.421   0.892  10.245 -0.9046 -0.7058  0.0477
   20SAPC   C24 2596   5.640   0.827  10.235 -0.2192  0.2556  0.1330
   20SAPC   H4R 2597   5.625   0.752  10.154 -0.0677 -3.5568  3.3094
   20SAPC   H4S 2598   5.719   0.780  10.298 -1.7343 -0.0029  1.9219
   20SAPC   C25 2599   5.707   0.954  10.182  0.3539 -0.4684 -0.1752
   20SAPC   H5R 2600   5.786   0.998  10.245  1.5138 -0.4216 -1.6120
   20SAPC   C26 2601   5.692   1.007  10.056 -0.4942  0.3728  0.6893
   20SAPC   H6R 2602   5.745   1.101  10.037 -0.7124  0.4089  0.2448
   20SAPC   C27 2603   5.597   0.965   9.942  0.3853  0.5787  0.3548
   20SAPC   H7R 2604   5.512   1.033   9.920  0.1220 -0.4929 -2.4394
   20SAPC   H7S 2605   5.552   0.867   9.971 -0.0380  0.6763  0.0377
   20SAPC   C28 2606   5.686   0.940   9.819  0.0452 -0.1245 -0.2912
   20SAPC   H8R 2607   5.748   0.850   9.831  0.4239  0.1953  0.2048
   20SAPC   C29 2608   5.692   1.016   9.705 -0.7989  0.1461 -0.0646
   20SAPC   H9R 2609   5.759   0.987   9.622 -2.0572  1.9974 -1.8317
   20SAPC  C210 2610   5.613   1.141   9.682  0.6709 -0.4958 -0.2049
   20SAPC  H10R 2611   5.680   1.217   9.637 -0.1272 -0.5743 -1.5640
   20SAPC  H10S 2612   5.573   1.182   9.777 -0.6362  1.7663 -1.6657
   20SAPC  C211 2613   5.488   1.119   9.599  0.0301 -0.3503 -0.5043
   20SAPC  H11R 2614   5.399   1.068   9.639  0.9128 -1.0489  0.6141
   20SAPC  C212 2615   5.468   1.176   9.477  0.3420  0.0415 -0.0837
   20SAPC  H12R 2616   5.369   1.151   9.435  0.3981 -2.0068  0.8491
   20SAPC  C213 2617   5.564   1.272   9.399  0.3192 -0.4433 -0.7876
   20SAPC  H13R 2618   5.613   1.207   9.324  1.4534 -0.6638  0.1148
   20SAPC  H13S 2619   5.643   1.314   9.465 -1.6855  0.5703  1.1014
   20SAPC  C214 2620   5.489   1.396   9.345  0.1458 -0.0108  0.0864
   20SAPC  H14R 2621   5.422   1.441   9.420 -0.8616 -0.3907 -0.5722
   20SAPC  C215 2622   5.514   1.467   9.228  0.5434  0.3778  0.0975
   20SAPC  H15R 2623   5.449   1.551   9.197 -0.0323 -0.3917 -0.8883
   20SAPC  C216 2624   5.626   1.419   9.138  0.3962  0.1588 -0.2210
   20SAPC  H16R 2625   5.691   1.347   9.192  0.1957  1.2786  1.5968
   20SAPC  H16S 2626   5.690   1.506   9.113  2.9666 -1.9180 -1.4349
   20SAPC  C217 2627   5.566   1.371   9.002  0.4536  0.0582  0.0343
   20SAPC  H17R 2628   5.528   1.459   8.947 -2.2775 -1.9403 -1.5295
   20SAPC  H17S 2629   5.479   1.305   9.021 -0.8476  1.5815 -0.4160
   20SAPC  C218 2630   5.662   1.282   8.922  0.2027  0.0392 -0.4043
   20SAPC  H18R 2631   5.612   1.232   8.836  2.6469 -0.7446 -1.4651
   20SAPC  H18S 2632   5.692   1.197   8.987  0.3637  0.3819 -0.0276
   20SAPC  C219 2633   5.778   1.368   8.878 -0.0933 -0.6562  0.4561
   20SAPC  H19R 2634   5.845   1.385   8.965  0.3798 -0.9726  0.1566
   20SAPC  H19S 2635   5.740   1.466   8.842 -1.4323 -1.1705  0.3955
   20SAPC  C220 2636   5.852   1.305   8.761 -0.2037 -0.1489 -0.1324
   20SAPC  H20R 2637   5.793   1.313   8.667  1.3014 -0.2423 -1.1233
   20SAPC  H20S 2638   5.876   1.196   8.768  0.3771  0.0240  0.6090
   20SAPC  H20T 2639   5.947   1.362   8.756 -1.4565  1.9760 -0.9317
   20SAPC   C33 2640   5.040   0.433  10.326  0.0047  0.1156 -0.7655
   20SAPC   H3X 2641   5.010   0.383  10.232  0.9726 -1.7455 -0.1381
   20SAPC   H3Y 2642   5.121   0.506  10.304  1.6497 -0.8950  1.4725
   20SAPC   C34 2643   4.923   0.509  10.393 -0.0256 -0.3114 -0.3408
   20SAPC   H4X 2644   4.966   0.558  10.483 -1.6385  1.7165 -0.5918
   20SAPC   H4Y 2645   4.843   0.443  10.432 -0.6368  0.2917 -0.5500
   20SAPC   C35 2646   4.856   0.599  10.291  0.0861  0.3349 -0.1359
   20SAPC   H5X 2647   4.933   0.660  10.238 -0.9283  0.1353 -1.8933
   20SAPC   H5Y 2648   4.785   0.675  10.331 -0.3762 -0.5679  0.7991
   20SAPC   C36 2649   4.775   0.534  10.182  0.0133 -0.2208  0.9945
   20SAPC   H6X 2650   4.689   0.479  10.227 -1.8843  0.2637 -1.7416
   20SAPC   H6Y 2651   4.826   0.449  10.132 -1.2884 -0.4733  0.0247
   20SAPC   C37 2652   4.718   0.635  10.082  0.4041  0.3807  0.2896
   20SAPC   H7X 2653   4.800   0.706  10.063  2.4411 -0.9532  3.2753
   20SAPC   H7Y 2654   4.630   0.688  10.125 -0.5131 -0.4997 -0.4599
   20SAPC   C38 2655   4.649   0.574   9.959 -0.3938  0.1950  0.4104
   20SAPC   H8X 2656   4.556   0.522   9.989  1.3399 -3.4358  0.1045
   20SAPC   H8Y 2657   4.719   0.496   9.921  0.3065 -0.4711  2.8838
   20SAPC   C39 2658   4.626   0.668   9.837 -0.4383 -0.2431 -0.2915
   20SAPC   H9X 2659   4.729   0.701   9.811  0.0420 -2.5846 -1.6354
   20SAPC   H9Y 2660   4.571   0.762   9.859  1.0937  1.0555 -1.6877
   20SAPC  C310 2661   4.564   0.608   9.709  0.4270  0.3842 -0.1905
   20SAPC  H10X 2662   4.459   0.586   9.740  0.1895 -0.2731 -1.4127
   20SAPC  H10Y 2663   4.613   0.513   9.679 -0.6013 -1.1267  2.5185
   20SAPC  C311 2664   4.569   0.688   9.579  0.0576 -0.5689  0.3082
   20SAPC  H11X 2665   4.674   0.700   9.545 -0.6561  1.4405 -1.4318
   20SAPC  H11Y 2666   4.524   0.790   9.587  1.7134  0.1790  0.4600
   20SAPC  C312 2667   4.495   0.612   9.465  0.3989  0.2849 -0.3397
   20SAPC  H12X 2668   4.394   0.594   9.508  1.2509  0.2735  1.7568
   20SAPC  H12Y 2669   4.545   0.513   9.453  1.5735  0.9117 -0.8171
   20SAPC  C313 2670   4.492   0.675   9.328  0.1044 -0.6429  0.4091
   20SAPC  H13X 2671   4.597   0.689   9.296 -0.0922 -0.7190 -0.2971
   20SAPC  H13Y 2672   4.448   0.777   9.340  2.7035  0.3862  1.9150
   20SAPC  C314 2673   4.403   0.609   9.223 -1.1354  0.2478  0.2649
   20SAPC  H14X 2674   4.303   0.602   9.271  0.1782 -2.3888  2.9319
   20SAPC  H14Y 2675   4.425   0.501   9.206 -2.8603  0.2951 -3.2334
   20SAPC  C315 2676   4.403   0.690   9.089 -0.5459 -0.7756  0.2437
   20SAPC  H15X 2677   4.509   0.681   9.057 -0.5645  0.2150 -0.1240
   20SAPC  H15Y 2678   4.387   0.797   9.114 -0.1169 -1.2705  2.9430
   20SAPC  C316 2679   4.298   0.635   8.990 -0.7738 -0.1239 -0.7136
   20SAPC  H16X 2680   4.197   0.673   9.019  0.1394  2.5559 -0.8360
   20SAPC  H16Y 2681   4.315   0.525   8.993 -0.2028 -0.0839 -2.1583
   20SAPC  C317 2682   4.322   0.661   8.838 -0.1315  0.3943  0.6251
   20SAPC  H17X 2683   4.423   0.618   8.820 -1.0672 -1.3469 -0.7996
   20SAPC  H17Y 2684   4.325   0.769   8.812  1.4834  0.3804  0.6548
   20SAPC  C318 2685   4.215   0.588   8.761  0.3999 -0.5471  0.3471
   20SAPC  H18X 2686   4.231   0.605   8.653 -0.7086  4.5168  0.6840
   20SAPC  H18Y 2687   4.114   0.629   8.783 -0.0705 -0.2533 -2.0517
   20SAPC  H18Z 2688   4.213   0.481   8.790 -0.0578 -0.4084  0.8545
   21SAPC     N 2689   5.824   6.094  10.889 -0.6064 -0.7802 -0.4526
   21SAPC   C12 2690   5.822   6.116  10.737  0.0353 -0.2985 -0.2153
   21SAPC  H12A 2691   5.816   6.222  10.718  0.9808 -0.1596  0.1980
   21SAPC  H12B 2692   5.731   6.073  10.698 -0.7832  0.0460  1.2579
   21SAPC   C13 2693   5.728   6.188  10.956 -0.3696  0.5202  0.7434
   21SAPC  H13A 2694   5.775   6.284  10.972  0.3828  0.4503 -0.9011
   21SAPC  H13B 2695   5.642   6.197  10.891  1.2607 -0.3359 -1.6326
   21SAPC  H13C 2696   5.692   6.151  11.051 -0.8531  0.3025  0.4813
   21SAPC   C14 2697   5.789   5.950  10.918  0.0866 -0.5801  0.1303
   21SAPC  H14A 2698   5.690   5.927  10.881  0.2447 -0.2859 -0.4978
   21SAPC  H14B 2699   5.866   5.883  10.881 -0.1641 -2.0363  2.1095
   21SAPC  H14C 2700   5.787   5.939  11.025 -0.6584  0.4957  0.2421
   21SAPC   C15 2701   5.955   6.116  10.960  0.5513 -0.1067 -0.1448
   21SAPC  H15A 2702   6.032   6.048  10.929  0.6942 -0.3824  0.7983
   21SAPC  H15B 2703   5.999   6.214  10.952  0.9174  0.1282  3.1645
   21SAPC  H15C 2704   5.942   6.071  11.058 -0.7351 -1.1442 -0.7592
   21SAPC   C11 2705   5.940   6.080  10.638  0.0626 -0.3934 -0.6581
   21SAPC  H11A 2706   5.907   6.095  10.533  1.2002  1.1912 -0.8264
   21SAPC  H11B 2707   5.960   5.970  10.640  1.1200 -0.2068  1.0389
   21SAPC     P 2708   6.070   6.301  10.627  0.1195 -0.4827  0.0730
   21SAPC   O13 2709   5.965   6.369  10.700  0.0533 -0.3082 -0.5616
   21SAPC   O14 2710   6.210   6.350  10.650 -0.1173 -0.0869  0.2004
   21SAPC   O12 2711   6.064   6.151  10.664  0.2012  0.4892  0.1491
   21SAPC   O11 2712   6.043   6.316  10.468 -0.2644  0.8831  0.0827
   21SAPC    C1 2713   6.119   6.227  10.383 -0.2035 -0.7387  0.8704
   21SAPC    HA 2714   6.227   6.244  10.405  0.4752 -1.1686 -1.7796
   21SAPC    HB 2715   6.092   6.119  10.389  1.3214 -1.1788  0.3506
   21SAPC    C2 2716   6.109   6.277  10.238  0.4060  0.0442  0.1440
   21SAPC    HS 2717   6.056   6.374  10.227  0.7108  0.4159  1.7551
   21SAPC   O21 2718   6.040   6.177  10.158 -0.1132 -0.6625  0.4884
   21SAPC   C21 2719   5.937   6.224  10.078 -0.2915 -0.2684 -0.2261
   21SAPC   O22 2720   5.905   6.343  10.073 -0.1772  0.0763 -0.1511
   21SAPC   C22 2721   5.893   6.112   9.987  0.2860  0.2520  0.5586
   21SAPC   H2R 2722   5.869   6.021  10.046  1.6327 -2.6052 -2.9586
   21SAPC   H2S 2723   5.795   6.143   9.945  0.7764  0.2939 -0.6107
   21SAPC    C3 2724   6.256   6.309  10.181  0.0655  0.3904 -0.2530
   21SAPC    HX 2725   6.317   6.216  10.182 -1.2947 -0.5167 -0.3632
   21SAPC    HY 2726   6.304   6.373  10.259 -1.2939  1.1169  0.0213
   21SAPC   O31 2727   6.248   6.368  10.057  0.1309 -0.1519  0.1002
   21SAPC   C31 2728   6.371   6.382   9.999 -0.4109  0.6009  0.6232
   21SAPC   O32 2729   6.479   6.350  10.046 -0.0476  0.3801  0.7314
   21SAPC   C32 2730   6.350   6.466   9.878 -0.2230 -0.2758  0.1949
   21SAPC   H2X 2731   6.338   6.571   9.913  0.7391 -0.2047  0.3598
   21SAPC   H2Y 2732   6.257   6.437   9.825 -0.0345  0.1825 -0.3913
   21SAPC   C23 2733   6.000   6.080   9.882  0.3265  0.1079 -0.2888
   21SAPC   H3R 2734   5.974   5.978   9.846 -0.5348  1.1327 -2.7654
   21SAPC   H3S 2735   6.087   6.068   9.950  1.2846 -1.4212 -1.7186
   21SAPC   C24 2736   6.016   6.192   9.771  0.1819 -0.5911  0.2672
   21SAPC   H4R 2737   6.082   6.153   9.690 -1.5187  2.5565 -2.8777
   21SAPC   H4S 2738   6.067   6.280   9.814  2.8165 -1.9892  0.2393
   21SAPC   C25 2739   5.890   6.232   9.705  0.2604  0.5182 -0.0659
   21SAPC   H5R 2740   5.820   6.296   9.761  0.4592 -0.2609  1.1268
   21SAPC   C26 2741   5.842   6.192   9.584  0.5701  0.2545  0.5583
   21SAPC   H6R 2742   5.745   6.227   9.548  0.3558  2.1619  2.7474
   21SAPC   C27 2743   5.920   6.099   9.490  0.1358 -0.5569  0.1346
   21SAPC   H7R 2744   5.912   5.996   9.529 -4.4472 -0.7773 -0.8234
   21SAPC   H7S 2745   6.030   6.113   9.484 -0.0005 -0.0465 -2.3424
   21SAPC   C28 2746   5.850   6.093   9.355  0.1926 -0.1412  0.0201
   21SAPC   H8R 2747   5.754   6.039   9.354  0.3409 -0.4051 -0.0357
   21SAPC   C29 2748   5.889   6.138   9.236 -0.5114  0.2430  0.0109
   21SAPC   H9R 2749   5.836   6.099   9.148  0.2396 -1.9377  0.4446
   21SAPC  C210 2750   6.017   6.222   9.217 -0.1514 -0.0565  0.7098
   21SAPC  H10R 2751   6.101   6.169   9.267  1.8267  2.5304  0.3513
   21SAPC  H10S 2752   6.005   6.318   9.272  1.1183  0.9130 -0.6456
   21SAPC  C211 2753   6.039   6.255   9.073 -0.1107  0.0818 -0.3660
   21SAPC  H11R 2754   6.044   6.170   9.004 -1.1507 -2.1024  2.1006
   21SAPC  C212 2755   6.050   6.378   9.020 -0.0889 -0.0066 -0.3185
   21SAPC  H12R 2756   6.055   6.387   8.910 -0.9618 -2.4612 -0.6229
   21SAPC  C213 2757   6.035   6.513   9.092  0.4794  0.1506  0.1067
   21SAPC  H13R 2758   6.124   6.574   9.071 -0.4141  0.7911 -2.0444
   21SAPC  H13S 2759   6.029   6.508   9.203  1.2257 -0.2069  0.1393
   21SAPC  C214 2760   5.915   6.578   9.029 -0.0091 -0.3962  0.3018
   21SAPC  H14R 2761   5.815   6.544   9.060  0.2664 -1.9089 -0.3722
   21SAPC  C215 2762   5.906   6.684   8.946  0.6321 -0.5835 -0.1168
   21SAPC  H15R 2763   5.806   6.719   8.918  1.5815  4.2454  1.5481
   21SAPC  C216 2764   6.012   6.770   8.876  0.3742  0.1462 -0.2917
   21SAPC  H16R 2765   6.099   6.770   8.944  2.0591  1.0887 -2.3466
   21SAPC  H16S 2766   5.979   6.875   8.862  0.2949  0.1303 -0.2315
   21SAPC  C217 2767   6.059   6.698   8.748  0.0914  0.0601  0.5171
   21SAPC  H17R 2768   6.070   6.588   8.762 -0.6536 -0.3455 -1.7043
   21SAPC  H17S 2769   6.157   6.743   8.720 -1.2211  1.7092 -1.7198
   21SAPC  C218 2770   5.942   6.703   8.646 -0.2952  0.9778 -0.3632
   21SAPC  H18R 2771   5.846   6.678   8.695  0.3530 -0.6232  0.1366
   21SAPC  H18S 2772   5.945   6.635   8.558 -0.1049  1.2190 -0.5476
   21SAPC  C219 2773   5.934   6.847   8.585 -0.1785 -0.0000 -0.5942
   21SAPC  H19R 2774   6.025   6.867   8.524  0.3267 -1.0168 -0.1987
   21SAPC  H19S 2775   5.916   6.915   8.670  0.3932 -0.6895  0.0943
   21SAPC  C220 2776   5.815   6.861   8.488 -0.5309  0.2295 -0.4780
   21SAPC  H20R 2777   5.726   6.861   8.554  1.2861 -2.1565  2.2221
   21SAPC  H20S 2778   5.812   6.770   8.423  1.8554 -0.6437  0.5002
   21SAPC  H20T 2779   5.822   6.952   8.425  0.3057  2.0947  2.1801
   21SAPC   C33 2780   6.474   6.455   9.787  0.0118  0.0017  0.1231
   21SAPC   H3X 2781   6.567   6.472   9.845  0.2877  0.2355 -0.3718
   21SAPC   H3Y 2782   6.476   6.526   9.701  1.8459 -1.4255 -1.0865
   21SAPC   C34 2783   6.489   6.316   9.724 -0.4643  0.3229 -0.2058
   21SAPC   H4X 2784   6.495   6.243   9.808  0.2087  1.4270  0.7368
   21SAPC   H4Y 2785   6.587   6.298   9.675 -1.7088 -2.9298 -1.8105
   21SAPC   C35 2786   6.375   6.266   9.636 -0.1967  0.7351 -0.1563
   21SAPC   H5X 2787   6.351   6.353   9.572 -1.2515 -0.5271 -1.5408
   21SAPC   H5Y 2788   6.280   6.245   9.688 -0.3147  1.6182  0.0005
   21SAPC   C36 2789   6.416   6.146   9.553 -0.3702 -0.2513 -0.1735
   21SAPC   H6X 2790   6.328   6.086   9.520 -0.1212 -0.8854  0.2848
   21SAPC   H6Y 2791   6.472   6.080   9.623 -0.3914 -0.8512 -0.7132
   21SAPC   C37 2792   6.500   6.177   9.426 -0.9589  0.4823 -0.5156
   21SAPC   H7X 2793   6.532   6.076   9.395  0.0921  0.6445 -0.0223
   21SAPC   H7Y 2794   6.585   6.247   9.443  1.5162 -2.2347 -1.0676
   21SAPC   C38 2795   6.423   6.239   9.310  0.0605  0.2255  0.3949
   21SAPC   H8X 2796   6.359   6.324   9.342 -0.5076  0.8063 -2.0834
   21SAPC   H8Y 2797   6.364   6.154   9.269  0.4671  0.4461 -0.6916
   21SAPC   C39 2798   6.515   6.292   9.198 -0.1708 -0.1356  0.5107
   21SAPC   H9X 2799   6.601   6.224   9.180  1.8754  1.8421  2.2298
   21SAPC   H9Y 2800   6.564   6.382   9.242 -0.3265 -0.8960  2.3162
   21SAPC  C310 2801   6.434   6.335   9.073  0.0020  0.5169 -0.1311
   21SAPC  H10X 2802   6.365   6.414   9.111 -1.7357 -0.5324 -0.9798
   21SAPC  H10Y 2803   6.370   6.247   9.051 -2.2701  1.8808  0.6195
   21SAPC  C311 2804   6.506   6.391   8.951  0.2567 -0.1790  0.3468
   21SAPC  H11X 2805   6.590   6.323   8.924  0.7658  0.7686 -0.5188
   21SAPC  H11Y 2806   6.540   6.495   8.967 -2.3299  1.0603 -1.4420
   21SAPC  C312 2807   6.405   6.400   8.838 -0.1413 -0.2283 -0.4976
   21SAPC  H12X 2808   6.321   6.462   8.877  0.2355 -0.8060  1.3136
   21SAPC  H12Y 2809   6.369   6.297   8.816  0.2261 -0.4898  0.1372
   21SAPC  C313 2810   6.458   6.465   8.708 -0.4946 -0.1503  0.3728
   21SAPC  H13X 2811   6.544   6.402   8.677 -1.5816 -1.0132 -0.9760
   21SAPC  H13Y 2812   6.484   6.572   8.725 -1.2335  0.1545 -0.3259
   21SAPC  C314 2813   6.348   6.458   8.605  0.1819 -0.2557  0.4713
   21SAPC  H14X 2814   6.274   6.528   8.650  0.8718 -1.3497  3.5220
   21SAPC  H14Y 2815   6.307   6.355   8.606 -3.9249  1.1900  1.3650
   21SAPC  C315 2816   6.388   6.484   8.462  0.3811 -0.5003 -0.3228
   21SAPC  H15X 2817   6.322   6.427   8.393 -0.7794  0.1318  0.2364
   21SAPC  H15Y 2818   6.493   6.448   8.455  0.2725 -0.6501 -1.2077
   21SAPC  C316 2819   6.395   6.634   8.444  0.5266 -0.0563 -0.1625
   21SAPC  H16X 2820   6.466   6.657   8.362 -0.4413 -1.6669 -1.4999
   21SAPC  H16Y 2821   6.434   6.680   8.538 -2.5900 -0.6741  1.5738
   21SAPC  C317 2822   6.262   6.699   8.392  0.4977 -0.3844  0.0023
   21SAPC  H17X 2823   6.175   6.674   8.456  0.5772 -1.2431 -0.2027
   21SAPC  H17Y 2824   6.235   6.651   8.295 -0.4063 -1.1740  0.6169
   21SAPC  C318 2825   6.284   6.845   8.376 -0.8215 -0.0751  0.2724
   21SAPC  H18X 2826   6.369   6.861   8.306 -0.9901  2.0685  0.4954
   21SAPC  H18Y 2827   6.305   6.887   8.476 -0.0089 -4.6262  2.2803
   21SAPC  H18Z 2828   6.193   6.901   8.344 -0.0105  2.0458  1.4955
   22SAPC     N 2829   0.288   3.725  10.838 -0.2748  0.0920  0.2130
   22SAPC   C12 2830   0.185   3.621  10.845 -0.3264 -0.2188 -0.3538
   22SAPC  H12A 2831   0.197   3.567  10.938  1.0736 -1.5945 -1.2890
   22SAPC  H12B 2832   0.192   3.547  10.767  1.1436 -0.7048  0.2088
   22SAPC   C13 2833   0.425   3.667  10.865  0.0528 -0.6201 -0.1928
   22SAPC  H13A 2834   0.416   3.606  10.954 -0.2815  1.3296  1.1672
   22SAPC  H13B 2835   0.463   3.607  10.783 -0.0423  1.3973 -1.7797
   22SAPC  H13C 2836   0.501   3.742  10.876 -0.3008 -0.2837 -0.0299
   22SAPC   C14 2837   0.294   3.799  10.705  0.0201  0.1145  0.1331
   22SAPC  H14A 2838   0.345   3.743  10.628 -0.2482  0.2534 -0.1440
   22SAPC  H14B 2839   0.190   3.820  10.684  0.1455 -0.8039 -1.5332
   22SAPC  H14C 2840   0.341   3.896  10.715 -1.4883  0.6199  3.7565
   22SAPC   C15 2841   0.260   3.832  10.935  0.3034  0.3231  0.0632
   22SAPC  H15A 2842   0.349   3.892  10.944  0.8855 -0.6764  1.3062
   22SAPC  H15B 2843   0.170   3.886  10.908  0.9854  0.7358 -1.4860
   22SAPC  H15C 2844   0.245   3.810  11.039 -2.1189  1.0627 -0.0511
   22SAPC   C11 2845   0.044   3.678  10.837 -0.3715  0.6209 -0.9489
   22SAPC  H11A 2846   0.015   3.740  10.925 -3.7452 -2.2361  0.2380
   22SAPC  H11B 2847  -0.022   3.589  10.843  0.6719 -0.1508 -0.7198
   22SAPC     P 2848  -0.123   3.710  10.631  0.2320  0.4878 -0.1102
   22SAPC   O13 2849  -0.227   3.675  10.726  0.7715  0.1177  0.0555
   22SAPC   O14 2850  -0.159   3.813  10.537 -0.4362  0.2842  0.6260
   22SAPC   O12 2851   0.016   3.741  10.708 -0.0860 -0.0484 -0.2449
   22SAPC   O11 2852  -0.074   3.587  10.542  0.1342 -0.1533  0.0036
   22SAPC    C1 2853   0.036   3.618  10.447  0.0268  0.6466 -0.4188
   22SAPC    HA 2854   0.042   3.722  10.408  1.1488 -0.4265 -3.3789
   22SAPC    HB 2855   0.125   3.607  10.512  0.5328 -1.1044 -1.3461
   22SAPC    C2 2856   0.052   3.521  10.330  0.2267 -0.5809 -1.1397
   22SAPC    HS 2857   0.058   3.415  10.362 -0.5402 -0.5495 -0.8696
   22SAPC   O21 2858   0.173   3.566  10.268  0.0088 -0.8483  0.0654
   22SAPC   C21 2859   0.256   3.479  10.220  0.0366 -0.2274  0.5742
   22SAPC   O22 2860   0.248   3.359  10.249 -0.1130 -0.2681 -0.0113
   22SAPC   C22 2861   0.369   3.544  10.140 -1.3180 -0.3894  0.5426
   22SAPC   H2R 2862   0.436   3.596  10.211  0.3271 -0.7056 -0.7020
   22SAPC   H2S 2863   0.421   3.458  10.093 -1.8595  0.7609 -2.3893
   22SAPC    C3 2864  -0.067   3.539  10.233 -0.4484 -0.3096  0.2169
   22SAPC    HX 2865  -0.062   3.643  10.195 -0.5403 -0.6769 -0.8139
   22SAPC    HY 2866  -0.163   3.536  10.289 -0.8876  0.6227 -0.4677
   22SAPC   O31 2867  -0.061   3.447  10.118  0.0014 -0.2048 -0.3123
   22SAPC   C31 2868  -0.127   3.337  10.148 -0.0752 -1.0190  0.0180
   22SAPC   O32 2869  -0.175   3.312  10.258 -0.5618  0.4319  0.7707
   22SAPC   C32 2870  -0.124   3.245  10.026 -0.6662  0.0716  0.0705
   22SAPC   H2X 2871  -0.197   3.162  10.036  1.4270 -2.0272 -1.2937
   22SAPC   H2Y 2872  -0.022   3.204  10.011 -1.2304 -1.9501  1.3907
   22SAPC   C23 2873   0.317   3.634  10.029 -0.0274 -0.1682  0.0610
   22SAPC   H3R 2874   0.396   3.705   9.995  0.0196  0.7469  1.9491
   22SAPC   H3S 2875   0.238   3.707  10.057 -0.2466 -0.2881 -0.2490
   22SAPC   C24 2876   0.251   3.567   9.908  0.1356 -0.0932  0.3981
   22SAPC   H4R 2877   0.230   3.643   9.830  1.2337 -0.3176 -0.1321
   22SAPC   H4S 2878   0.153   3.524   9.940  0.2682 -0.3387  0.4752
   22SAPC   C25 2879   0.339   3.470   9.835  0.7396  0.2958 -0.4464
   22SAPC   H5R 2880   0.319   3.366   9.866 -1.0830  0.7010 -0.1573
   22SAPC   C26 2881   0.426   3.484   9.739 -0.0031 -0.3694 -0.2568
   22SAPC   H6R 2882   0.471   3.391   9.701 -1.2086 -0.9094 -0.4311
   22SAPC   C27 2883   0.473   3.609   9.666 -0.4067  0.7934 -0.7906
   22SAPC   H7R 2884   0.424   3.691   9.724  1.9285  1.2794  0.6474
   22SAPC   H7S 2885   0.417   3.618   9.571 -0.8771  1.4871 -0.4583
   22SAPC   C28 2886   0.623   3.620   9.647  0.4400  0.0609  0.1008
   22SAPC   H8R 2887   0.676   3.580   9.735  1.3290  1.0372  0.0346
   22SAPC   C29 2888   0.689   3.674   9.539 -0.3356 -0.2244  0.1976
   22SAPC   H9R 2889   0.799   3.663   9.535 -0.3007  0.3154 -0.5113
   22SAPC  C210 2890   0.625   3.738   9.425  0.2198 -0.1758  0.0869
   22SAPC  H10R 2891   0.689   3.823   9.393  1.2187 -0.8463  0.2343
   22SAPC  H10S 2892   0.534   3.792   9.458  0.1970 -0.8314  1.1668
   22SAPC  C211 2893   0.603   3.646   9.305 -0.2908  0.5507 -0.3914
   22SAPC  H11R 2894   0.611   3.538   9.319  0.2807  0.3328 -2.1801
   22SAPC  C212 2895   0.564   3.699   9.184 -0.7921 -0.2225 -0.4302
   22SAPC  H12R 2896   0.552   3.632   9.098  2.3336 -1.9405  0.3293
   22SAPC  C213 2897   0.544   3.842   9.140  0.4679  0.2180 -0.1522
   22SAPC  H13R 2898   0.635   3.905   9.148 -0.0272  0.7963  1.3659
   22SAPC  H13S 2899   0.471   3.875   9.217 -0.0376 -2.8189  0.7871
   22SAPC  C214 2900   0.474   3.875   9.007 -0.1420  0.5506 -0.2744
   22SAPC  H14R 2901   0.365   3.871   9.017  0.0393 -0.7060  1.8421
   22SAPC  C215 2902   0.534   3.877   8.887  0.1118  0.1137  0.3957
   22SAPC  H15R 2903   0.484   3.911   8.795  2.8067 -0.4789 -1.3926
   22SAPC  C216 2904   0.686   3.862   8.867  0.8847  0.5187 -0.3726
   22SAPC  H16R 2905   0.731   3.867   8.969  0.7979  1.8563 -0.3885
   22SAPC  H16S 2906   0.728   3.949   8.813  0.0086 -0.3514 -2.5635
   22SAPC  C217 2907   0.734   3.730   8.804 -0.4744 -0.0277  0.1722
   22SAPC  H17R 2908   0.727   3.641   8.870  0.3715  1.2223  2.0439
   22SAPC  H17S 2909   0.843   3.742   8.784 -0.5621  0.4483 -0.0237
   22SAPC  C218 2910   0.667   3.699   8.671 -0.2467 -0.3490  0.3585
   22SAPC  H18R 2911   0.688   3.769   8.587 -2.5988 -0.2394 -0.2147
   22SAPC  H18S 2912   0.556   3.694   8.673 -0.3148  0.5112 -0.5512
   22SAPC  C219 2913   0.723   3.577   8.605 -0.0731 -0.7686 -0.5728
   22SAPC  H19R 2914   0.833   3.593   8.597  0.2191 -2.0172  0.4160
   22SAPC  H19S 2915   0.685   3.587   8.501 -2.4145  0.8212  0.3642
   22SAPC  C220 2916   0.691   3.436   8.664  0.2820  0.6884  0.4558
   22SAPC  H20R 2917   0.610   3.453   8.738  2.3260 -0.2302  3.1093
   22SAPC  H20S 2918   0.780   3.393   8.716 -0.8713 -2.9287 -0.2953
   22SAPC  H20T 2919   0.672   3.361   8.585  2.1831  1.0749 -0.4400
   22SAPC   C33 2920  -0.164   3.320   9.896 -0.3154  0.6936 -0.7934
   22SAPC   H3X 2921  -0.076   3.386   9.878  0.3114  0.4619  1.1048
   22SAPC   H3Y 2922  -0.267   3.359   9.914 -0.5838 -0.2870 -0.1385
   22SAPC   C34 2923  -0.174   3.239   9.766 -0.0485  0.0069  0.1134
   22SAPC   H4X 2924  -0.253   3.162   9.772 -0.1718  0.1019 -0.2498
   22SAPC   H4Y 2925  -0.083   3.176   9.763  0.4491  0.7333 -0.8164
   22SAPC   C35 2926  -0.190   3.317   9.632 -0.5261  0.2348  0.4166
   22SAPC   H5X 2927  -0.287   3.370   9.632 -0.8233 -0.2470 -1.1549
   22SAPC   H5Y 2928  -0.198   3.243   9.549 -1.0042 -1.8877  2.2816
   22SAPC   C36 2929  -0.063   3.408   9.598 -0.7492 -0.1484 -0.3241
   22SAPC   H6X 2930   0.021   3.339   9.576 -0.9870 -1.4381  2.4468
   22SAPC   H6Y 2931  -0.035   3.471   9.684 -1.2678  0.5817 -0.6768
   22SAPC   C37 2932  -0.098   3.484   9.476 -0.4103  0.3290  0.1290
   22SAPC   H7X 2933  -0.188   3.548   9.483 -0.2232  0.7278 -0.9328
   22SAPC   H7Y 2934  -0.138   3.411   9.402  1.6114 -0.7905  0.0620
   22SAPC   C38 2935   0.012   3.574   9.407  0.1402 -0.7055  0.0317
   22SAPC   H8X 2936  -0.026   3.592   9.304 -0.1058  0.7982  0.3545
   22SAPC   H8Y 2937   0.112   3.526   9.403  0.1870 -0.5476 -1.6159
   22SAPC   C39 2938   0.019   3.713   9.484  0.3042 -0.0732  0.4917
   22SAPC   H9X 2939   0.067   3.687   9.581 -2.9776 -0.4328  2.1622
   22SAPC   H9Y 2940  -0.080   3.753   9.514 -0.8773 -1.0351 -1.8804
   22SAPC  C310 2941   0.103   3.816   9.414  0.3768  0.1008 -1.0897
   22SAPC  H10X 2942   0.205   3.777   9.393 -0.1853 -1.4842 -1.0293
   22SAPC  H10Y 2943   0.110   3.900   9.487  1.1193 -0.2851 -0.6934
   22SAPC  C311 2944   0.039   3.863   9.287 -0.3677  0.6446  0.4067
   22SAPC  H11X 2945   0.003   3.782   9.219  2.3777 -0.3290  0.0104
   22SAPC  H11Y 2946   0.096   3.939   9.228  0.8032 -2.2900 -2.5639
   22SAPC  C312 2947  -0.088   3.949   9.307  0.7082 -0.2646 -0.1443
   22SAPC  H12X 2948  -0.081   4.042   9.367 -0.0960 -1.5210  1.9767
   22SAPC  H12Y 2949  -0.161   3.895   9.370  0.3657 -0.0563 -0.3558
   22SAPC  C313 2950  -0.152   3.990   9.169  0.0124 -0.3873  0.3757
   22SAPC  H13X 2951  -0.167   3.914   9.089 -0.6420  0.5719 -0.4299
   22SAPC  H13Y 2952  -0.076   4.062   9.133  0.5855 -0.0576  2.1469
   22SAPC  C314 2953  -0.287   4.062   9.187  0.3203  1.0470  0.0691
   22SAPC  H14X 2954  -0.278   4.126   9.278 -0.8059 -1.3444  1.9734
   22SAPC  H14Y 2955  -0.355   3.979   9.212 -0.2710  1.6695  0.5667
   22SAPC  C315 2956  -0.335   4.144   9.069 -0.2216 -0.4387  0.2939
   22SAPC  H15X 2957  -0.272   4.235   9.055 -2.7340  1.1133 -2.1031
   22SAPC  H15Y 2958  -0.440   4.172   9.090 -0.1427 -0.2084  0.3883
   22SAPC  C316 2959  -0.324   4.071   8.940 -0.0275 -0.2144  0.6521
   22SAPC  H16X 2960  -0.374   3.974   8.960  1.3453 -0.5048  3.1005
   22SAPC  H16Y 2961  -0.219   4.038   8.923 -0.1620 -1.0218  1.3717
   22SAPC  C317 2962  -0.384   4.147   8.818  0.8000  0.3817  0.0620
   22SAPC  H17X 2963  -0.335   4.247   8.822  0.8699  0.4491 -1.8921
   22SAPC  H17Y 2964  -0.486   4.178   8.849  0.7963  0.7501 -0.3145
   22SAPC  C318 2965  -0.390   4.082   8.680  0.5098 -0.3091 -0.2520
   22SAPC  H18X 2966  -0.458   4.142   8.616  2.0509  3.2019  1.1597
   22SAPC  H18Y 2967  -0.432   3.979   8.686 -1.3237  0.2419 -2.3382
   22SAPC  H18Z 2968  -0.288   4.076   8.635 -0.3701 -1.6128 -2.2431
   23SAPC     N 2969   1.411   6.139  10.833 -0.1880  0.0047 -0.4551
   23SAPC   C12 2970   1.349   6.282  10.823  0.1199  0.0575 -0.0037
   23SAPC  H12A 2971   1.426   6.357  10.834 -1.4977  1.7514  0.2717
   23SAPC  H12B 2972   1.285   6.295  10.909 -3.4293 -0.6763 -2.3230
   23SAPC   C13 2973   1.478   6.113  10.962 -0.3972  0.1457 -0.0033
   23SAPC  H13A 2974   1.539   6.196  10.996 -2.9305  1.3771  1.8471
   23SAPC  H13B 2975   1.411   6.103  11.046  0.8803 -2.2779  0.8250
   23SAPC  H13C 2976   1.539   6.024  10.962 -1.1571 -0.5143 -3.4290
   23SAPC   C14 2977   1.301   6.036  10.820 -0.8779  0.2670  0.3469
   23SAPC  H14A 2978   1.327   5.936  10.852 -0.7980  0.4442  0.8253
   23SAPC  H14B 2979   1.218   6.061  10.884 -1.5959  0.0241 -0.4694
   23SAPC  H14C 2980   1.266   6.040  10.718 -0.4915 -0.4716  0.1786
   23SAPC   C15 2981   1.515   6.125  10.721 -0.1318 -0.5187 -0.1397
   23SAPC  H15A 2982   1.476   6.141  10.621  1.8284  0.2898 -0.8211
   23SAPC  H15B 2983   1.608   6.177  10.733  0.0908 -1.2179  1.4702
   23SAPC  H15C 2984   1.554   6.025  10.731  0.2064 -0.3885 -0.1714
   23SAPC   C11 2985   1.249   6.306  10.705  0.1717 -0.3001 -0.3268
   23SAPC  H11A 2986   1.166   6.233  10.695  0.0792  0.0323 -2.5730
   23SAPC  H11B 2987   1.319   6.311  10.618  0.2660 -0.2116 -0.2458
   23SAPC     P 2988   1.043   6.459  10.675  0.3035  0.0537 -0.3963
   23SAPC   O13 2989   0.955   6.366  10.746 -0.2758  0.1224 -0.5711
   23SAPC   O14 2990   1.016   6.600  10.683 -0.1089  0.4986 -0.0979
   23SAPC   O12 2991   1.190   6.436  10.722  0.2555 -0.0725 -0.2171
   23SAPC   O11 2992   1.044   6.413  10.522 -0.2351  0.5473  0.1323
   23SAPC    C1 2993   1.067   6.485  10.403  0.5836 -0.1683 -0.9220
   23SAPC    HA 2994   0.978   6.480  10.337 -0.4356  0.0698  0.3916
   23SAPC    HB 2995   1.088   6.592  10.426  0.9241 -0.5144  0.4961
   23SAPC    C2 2996   1.183   6.427  10.332  0.3388  0.5949 -0.1456
   23SAPC    HS 2997   1.270   6.436  10.401 -2.2466  0.3353  3.4222
   23SAPC   O21 2998   1.200   6.499  10.208 -0.6056  0.1594  0.2006
   23SAPC   C21 2999   1.321   6.496  10.154 -0.4346  0.4838 -1.0464
   23SAPC   O22 3000   1.417   6.432  10.196 -0.3402 -0.8253  0.0336
   23SAPC   C22 3001   1.331   6.587  10.027 -0.7637 -0.0985  0.3478
   23SAPC   H2R 3002   1.334   6.692  10.062  0.2679  0.0626 -0.1888
   23SAPC   H2S 3003   1.430   6.565   9.981 -1.2725  1.8413 -1.9001
   23SAPC    C3 3004   1.165   6.275  10.307 -0.0523  0.0379  0.0702
   23SAPC    HX 3005   1.162   6.226  10.406 -0.6613  2.2975  1.2289
   23SAPC    HY 3006   1.256   6.243  10.251 -0.0431 -0.4614  0.3653
   23SAPC   O31 3007   1.046   6.251  10.235  0.2345  0.1834  0.0233
   23SAPC   C31 3008   1.028   6.135  10.181 -0.0677  0.0608  0.5664
   23SAPC   O32 3009   1.116   6.046  10.191  0.0971 -0.3680 -0.3029
   23SAPC   C32 3010   0.893   6.124  10.102  0.7545 -0.6720 -0.3592
   23SAPC   H2X 3011   0.849   6.224  10.082 -0.0620 -1.0802 -0.6665
   23SAPC   H2Y 3012   0.818   6.087  10.175 -1.1337  1.0758 -1.3256
   23SAPC   C23 3013   1.222   6.556   9.929  0.2239 -0.3519  0.8003
   23SAPC   H3R 3014   1.125   6.562   9.982  1.2137  2.7011  2.5169
   23SAPC   H3S 3015   1.240   6.453   9.893 -2.1891  0.4026 -3.2206
   23SAPC   C24 3016   1.220   6.656   9.811  0.5346 -0.2123  0.7322
   23SAPC   H4R 3017   1.203   6.758   9.851 -4.0554 -0.5648  0.2058
   23SAPC   H4S 3018   1.124   6.640   9.759 -0.5561  2.3656  1.7995
   23SAPC   C25 3019   1.341   6.657   9.717  0.2591 -0.0810  0.2312
   23SAPC   H5R 3020   1.426   6.720   9.749 -0.0793  0.3552  0.2842
   23SAPC   C26 3021   1.343   6.584   9.597 -0.6233  0.1278 -0.2219
   23SAPC   H6R 3022   1.433   6.597   9.536 -0.4400  0.9610  0.2149
   23SAPC   C27 3023   1.235   6.501   9.539 -0.3589  0.0044  0.1638
   23SAPC   H7R 3024   1.178   6.569   9.473 -1.4772 -0.6886  0.3903
   23SAPC   H7S 3025   1.164   6.472   9.619 -0.7726 -1.7636 -0.8042
   23SAPC   C28 3026   1.272   6.368   9.473 -0.2042 -0.2229 -0.9077
   23SAPC   H8R 3027   1.284   6.280   9.537  2.9171  1.1824  0.6313
   23SAPC   C29 3028   1.320   6.346   9.350 -1.0224 -0.4290 -0.5093
   23SAPC   H9R 3029   1.349   6.245   9.317  1.2885 -0.5434  1.5682
   23SAPC  C210 3030   1.344   6.456   9.248  0.1767  0.5556 -0.4952
   23SAPC  H10R 3031   1.310   6.554   9.287 -0.0479  0.1784  0.2756
   23SAPC  H10S 3032   1.285   6.427   9.158 -1.1397  1.4625  0.0409
   23SAPC  C211 3033   1.494   6.469   9.232  0.0636  0.5811  0.4863
   23SAPC  H11R 3034   1.551   6.467   9.326 -0.4659 -3.0153  0.8658
   23SAPC  C212 3035   1.556   6.477   9.112 -0.4028 -0.5224 -1.1276
   23SAPC  H12R 3036   1.664   6.481   9.097 -0.5336  1.4431 -1.7627
   23SAPC  C213 3037   1.484   6.491   8.980 -0.4492 -0.1947 -0.3756
   23SAPC  H13R 3038   1.428   6.587   8.980  1.2814  0.8846  1.0421
   23SAPC  H13S 3039   1.413   6.405   8.971  1.3778 -1.6882 -1.2165
   23SAPC  C214 3040   1.574   6.499   8.867  0.0257  0.3094 -0.1645
   23SAPC  H14R 3041   1.628   6.595   8.860  1.9279 -0.7393 -0.6525
   23SAPC  C215 3042   1.600   6.399   8.781 -0.4872  0.3774  0.2312
   23SAPC  H15R 3043   1.665   6.426   8.697 -2.7020  3.5631 -0.6638
   23SAPC  C216 3044   1.546   6.263   8.762  0.3085 -0.0114  0.4901
   23SAPC  H16R 3045   1.448   6.243   8.808 -0.2924  2.7600  0.5951
   23SAPC  H16S 3046   1.627   6.193   8.791  2.2428  2.1558  0.6692
   23SAPC  C217 3047   1.519   6.227   8.612 -0.3563 -0.0884  0.0682
   23SAPC  H17R 3048   1.611   6.236   8.549 -1.9809  2.0968 -2.1987
   23SAPC  H17S 3049   1.445   6.306   8.588  0.3606  0.0838 -1.7323
   23SAPC  C218 3050   1.454   6.095   8.585  0.2567 -0.6368  0.7850
   23SAPC  H18R 3051   1.508   6.015   8.639 -0.8986 -0.4144  2.3256
   23SAPC  H18S 3052   1.458   6.074   8.476  1.2413  2.3495  0.1533
   23SAPC  C219 3053   1.307   6.079   8.626  0.4353  0.5324  0.4187
   23SAPC  H19R 3054   1.287   6.084   8.736 -0.6875  0.6771  0.2183
   23SAPC  H19S 3055   1.280   5.975   8.597 -0.7489  0.9548 -0.0801
   23SAPC  C220 3056   1.217   6.173   8.556  0.3574  0.1455  0.2982
   23SAPC  H20R 3057   1.112   6.138   8.569  0.3210 -0.3482 -1.1095
   23SAPC  H20S 3058   1.235   6.175   8.447  1.4799  0.0938  0.4742
   23SAPC  H20T 3059   1.227   6.282   8.578  0.7781  0.6857 -2.2703
   23SAPC   C33 3060   0.893   6.035   9.982  0.2821  0.5056 -0.2003
   23SAPC   H3X 3061   0.790   6.005   9.951  0.9815 -2.1347 -0.1912
   23SAPC   H3Y 3062   0.957   5.946   9.997 -0.2621  0.0909 -0.3177
   23SAPC   C34 3063   0.945   6.117   9.863 -0.2493  0.1047 -0.5826
   23SAPC   H4X 3064   1.048   6.151   9.886  0.0426 -1.6688  0.9396
   23SAPC   H4Y 3065   0.889   6.206   9.829  0.6386  1.1248  0.5540
   23SAPC   C35 3066   0.980   6.017   9.750  0.4801 -0.5811  0.2817
   23SAPC   H5X 3067   0.883   5.976   9.714  1.3704 -0.2783 -2.7308
   23SAPC   H5Y 3068   1.055   5.943   9.787  2.8321  1.9179  0.8214
   23SAPC   C36 3069   1.050   6.087   9.628 -0.2131  0.0643 -0.7895
   23SAPC   H6X 3070   1.146   6.125   9.669  0.3281 -2.3236  0.3462
   23SAPC   H6Y 3071   0.996   6.176   9.590  0.4254 -0.2492 -2.5653
   23SAPC   C37 3072   1.083   5.981   9.519  0.0266 -0.6333  0.4722
   23SAPC   H7X 3073   0.990   5.942   9.473  1.4062  0.1570 -3.3417
   23SAPC   H7Y 3074   1.138   5.897   9.566  3.4557  1.0099 -0.2783
   23SAPC   C38 3075   1.180   6.021   9.403 -0.0404 -0.1757  0.2209
   23SAPC   H8X 3076   1.282   6.041   9.443 -0.1696  1.8166 -0.3191
   23SAPC   H8Y 3077   1.146   6.121   9.369 -0.2107  0.6745  2.7060
   23SAPC   C39 3078   1.183   5.909   9.292 -0.6382 -0.5345  1.0037
   23SAPC   H9X 3079   1.078   5.895   9.257 -0.2357  0.0819 -0.5452
   23SAPC   H9Y 3080   1.217   5.810   9.328  1.2003  0.1602  1.2585
   23SAPC  C310 3081   1.268   5.939   9.166  0.2762  0.2124 -0.3858
   23SAPC  H10X 3082   1.269   5.848   9.101 -3.1504 -1.2155  1.3371
   23SAPC  H10Y 3083   1.373   5.942   9.202  0.0948 -1.0600  0.3320
   23SAPC  C311 3084   1.225   6.062   9.090  0.6332 -0.1757 -0.2894
   23SAPC  H11X 3085   1.262   6.047   8.987 -1.2465 -1.4714 -0.8397
   23SAPC  H11Y 3086   1.269   6.153   9.137 -3.8069  2.0138  0.1777
   23SAPC  C312 3087   1.070   6.072   9.066 -1.1586  0.3947  0.0977
   23SAPC  H12X 3088   1.035   6.132   9.153  1.3554  1.3167  0.5547
   23SAPC  H12Y 3089   1.019   5.973   9.068  1.1119 -0.8627 -0.5294
   23SAPC  C313 3090   1.030   6.156   8.941 -0.2382 -0.5157 -0.6485
   23SAPC  H13X 3091   1.043   6.087   8.855  1.9367 -0.1251 -0.6829
   23SAPC  H13Y 3092   1.107   6.236   8.940 -0.9896  0.2107 -0.7276
   23SAPC  C314 3093   0.892   6.220   8.962 -0.9252  0.1513 -0.1164
   23SAPC  H14X 3094   0.911   6.283   9.051 -0.2697 -1.1141  0.6576
   23SAPC  H14Y 3095   0.822   6.138   8.987  0.4317 -0.8441  0.4821
   23SAPC  C315 3096   0.846   6.298   8.838 -0.6474 -0.1200 -0.0522
   23SAPC  H15X 3097   0.934   6.349   8.793 -0.3626  1.4931  2.1574
   23SAPC  H15Y 3098   0.780   6.381   8.873 -1.2175 -0.2594 -0.7699
   23SAPC  C316 3099   0.783   6.203   8.742  0.4132  0.1056 -0.9565
   23SAPC  H16X 3100   0.689   6.178   8.797 -0.1441  3.1551 -0.3397
   23SAPC  H16Y 3101   0.845   6.110   8.740  0.3045 -0.0413  0.7132
   23SAPC  C317 3102   0.737   6.255   8.604 -0.4991  0.2528 -0.4379
   23SAPC  H17X 3103   0.689   6.174   8.545 -2.7758  2.6303 -2.0339
   23SAPC  H17Y 3104   0.832   6.285   8.555  0.2677  0.5963  1.1885
   23SAPC  C318 3105   0.651   6.377   8.611 -0.7640 -0.1373 -0.0770
   23SAPC  H18X 3106   0.580   6.388   8.526 -1.8218 -0.5898  0.7261
   23SAPC  H18Y 3107   0.708   6.472   8.619 -3.8116  2.0947 -2.3525
   23SAPC  H18Z 3108   0.596   6.378   8.708 -2.5013 -0.6259 -1.0235
   24SAPC     N 3109   5.078   5.480  11.338  0.3793  0.7735  0.0714
   24SAPC   C12 3110   5.067   5.358  11.248 -0.7082  0.2685  0.3292
   24SAPC  H12A 3111   5.001   5.285  11.292 -0.1517 -1.3637 -1.4226
   24SAPC  H12B 3112   5.160   5.306  11.232 -1.3741 -1.1586  0.8969
   24SAPC   C13 3113   5.152   5.454  11.463  0.4626  0.2486  0.0918
   24SAPC  H13A 3114   5.171   5.550  11.510  1.0992  1.3052 -2.1876
   24SAPC  H13B 3115   5.098   5.404  11.542 -0.3289  2.7105  1.2235
   24SAPC  H13C 3116   5.249   5.407  11.456  0.9621  1.3344 -0.5390
   24SAPC   C14 3117   5.148   5.585  11.270 -0.1617  0.2168 -0.1674
   24SAPC  H14A 3118   5.113   5.605  11.170  3.0292 -3.0080 -2.1699
   24SAPC  H14B 3119   5.144   5.685  11.310  0.4364  0.2699 -0.2287
   24SAPC  H14C 3120   5.254   5.565  11.270 -0.2458 -0.2493 -0.6707
   24SAPC   C15 3121   4.941   5.522  11.374  0.0258  0.3565 -0.6842
   24SAPC  H15A 3122   4.877   5.529  11.287 -1.8877  0.8879  0.6995
   24SAPC  H15B 3123   4.905   5.448  11.444  1.2003 -0.1113 -0.5536
   24SAPC  H15C 3124   4.948   5.618  11.423 -0.1585  0.4022 -0.7461
   24SAPC   C11 3125   5.023   5.383  11.099 -0.2410  0.0592 -0.0217
   24SAPC  H11A 3126   5.000   5.282  11.058 -0.7827 -0.4660  1.5011
   24SAPC  H11B 3127   5.113   5.425  11.049 -1.9093  3.2092 -0.6253
   24SAPC     P 3128   4.781   5.431  11.020  0.1967  0.0217  0.1548
   24SAPC   O13 3129   4.723   5.320  11.092  0.7805 -0.2944 -0.2214
   24SAPC   O14 3130   4.706   5.558  11.006 -0.7188 -0.2684  0.0037
   24SAPC   O12 3131   4.918   5.470  11.085 -0.3157 -0.4356  0.2619
   24SAPC   O11 3132   4.824   5.367  10.884  0.3939 -0.1889  0.3018
   24SAPC    C1 3133   4.867   5.442  10.769 -0.3119  0.7227 -0.2838
   24SAPC    HA 3134   4.884   5.551  10.779  0.1929  0.8341 -1.9971
   24SAPC    HB 3135   4.956   5.388  10.729 -1.8150 -0.9592 -1.5118
   24SAPC    C2 3136   4.765   5.437  10.658 -0.0905  0.1655 -0.2597
   24SAPC    HS 3137   4.665   5.469  10.696 -0.6042 -2.4568  0.8709
   24SAPC   O21 3138   4.766   5.307  10.599  0.1097 -0.2023 -0.3684
   24SAPC   C21 3139   4.686   5.222  10.655  0.3347  0.1062 -0.5252
   24SAPC   O22 3140   4.614   5.233  10.753  0.1734  0.2068 -0.1730
   24SAPC   C22 3141   4.663   5.104  10.552 -1.1349  0.2755  0.0819
   24SAPC   H2R 3142   4.727   5.129  10.464 -2.2181  1.4298 -0.4268
   24SAPC   H2S 3143   4.694   5.009  10.600  2.0855 -0.1680 -2.5181
   24SAPC    C3 3144   4.796   5.536  10.546 -0.5079 -0.4740  0.8932
   24SAPC    HX 3145   4.894   5.504  10.504 -1.4136 -2.0825 -0.1434
   24SAPC    HY 3146   4.803   5.634  10.596  1.0903  0.3660 -0.8437
   24SAPC   O31 3147   4.686   5.529  10.452  0.2911  0.1766 -0.1655
   24SAPC   C31 3148   4.717   5.544  10.323  0.1940  1.0139 -0.0052
   24SAPC   O32 3149   4.818   5.601  10.294  0.7305  0.0016  0.6120
   24SAPC   C32 3150   4.613   5.482  10.221 -1.2001  0.0818  0.3056
   24SAPC   H2X 3151   4.511   5.525  10.230 -1.5592  0.2866 -3.3155
   24SAPC   H2Y 3152   4.602   5.374  10.243 -1.8379  0.3294  1.2757
   24SAPC   C23 3153   4.526   5.092  10.483  0.3163  0.3272 -0.2148
   24SAPC   H3R 3154   4.502   5.189  10.435 -0.6389  1.2553  1.9901
   24SAPC   H3S 3155   4.445   5.085  10.559  2.8773  0.9401  2.7231
   24SAPC   C24 3156   4.515   4.977  10.390  0.6262 -0.2384 -0.1808
   24SAPC   H4R 3157   4.428   4.994  10.323 -0.0703 -0.0391  0.7541
   24SAPC   H4S 3158   4.493   4.885  10.449 -1.6250  0.7047  0.5540
   24SAPC   C25 3159   4.632   4.952  10.299  0.4195 -0.4232  0.1146
   24SAPC   H5R 3160   4.711   4.906  10.360 -1.2838 -0.2926  2.5610
   24SAPC   C26 3161   4.644   4.990  10.171 -0.4476  0.1619  0.4114
   24SAPC   H6R 3162   4.724   4.944  10.111  0.5920  1.0209  1.1099
   24SAPC   C27 3163   4.541   5.063  10.091 -0.4745 -0.0635 -0.4959
   24SAPC   H7R 3164   4.593   5.140  10.029  0.5776  1.4153  2.0738
   24SAPC   H7S 3165   4.481   5.116  10.168 -0.5996 -0.3055 -0.4291
   24SAPC   C28 3166   4.455   4.976  10.001  0.2409  0.5167  0.8596
   24SAPC   H8R 3167   4.359   4.949  10.048  0.0727  1.5399  1.1211
   24SAPC   C29 3168   4.494   4.917   9.886 -0.6601 -0.8506  0.1713
   24SAPC   H9R 3169   4.413   4.857   9.841 -1.7399  0.2558  0.5575
   24SAPC  C210 3170   4.621   4.949   9.807  0.8736  0.4414 -0.0704
   24SAPC  H10R 3171   4.669   4.862   9.758  0.0517  0.3104 -0.6750
   24SAPC  H10S 3172   4.696   4.997   9.874  1.5135  0.7066 -0.9637
   24SAPC  C211 3173   4.579   5.052   9.696  0.2186  0.3236  0.3238
   24SAPC  H11R 3174   4.562   5.158   9.720 -1.3418  1.4027 -4.5309
   24SAPC  C212 3175   4.558   5.020   9.570  0.5736  0.1657  0.8091
   24SAPC  H12R 3176   4.540   5.106   9.503 -0.3291  0.5217  1.4900
   24SAPC  C213 3177   4.589   4.885   9.497 -0.4664  0.4445 -0.5294
   24SAPC  H13R 3178   4.513   4.860   9.420  1.4786 -0.7079 -2.1768
   24SAPC  H13S 3179   4.581   4.798   9.566 -2.2075  2.9432  2.6716
   24SAPC  C214 3180   4.722   4.876   9.426 -0.1712  0.2227 -0.5488
   24SAPC  H14R 3181   4.802   4.928   9.481 -1.1135  1.5274 -0.3565
   24SAPC  C215 3182   4.758   4.830   9.310  0.4335 -0.4134 -0.5255
   24SAPC  H15R 3183   4.866   4.834   9.288  0.3254 -0.2369 -1.0415
   24SAPC  C216 3184   4.665   4.755   9.221  0.9665 -0.6222  0.3807
   24SAPC  H16R 3185   4.660   4.797   9.118 -0.2553 -0.3672  0.5251
   24SAPC  H16S 3186   4.564   4.750   9.268  0.7191  1.0156  0.0661
   24SAPC  C217 3187   4.688   4.605   9.215  0.0360  0.0685  0.1974
   24SAPC  H17R 3188   4.619   4.547   9.151  0.6023 -0.7901  0.3570
   24SAPC  H17S 3189   4.684   4.576   9.323  0.4938  0.0438  0.2086
   24SAPC  C218 3190   4.826   4.568   9.167 -0.7535 -0.2025  0.5270
   24SAPC  H18R 3191   4.912   4.631   9.200 -0.2808 -0.6487  0.1498
   24SAPC  H18S 3192   4.818   4.580   9.057 -0.0841  0.3457  0.5308
   24SAPC  C219 3193   4.861   4.426   9.199  1.1814  0.2949  0.1620
   24SAPC  H19R 3194   4.784   4.360   9.152  0.4679  1.6177 -0.5871
   24SAPC  H19S 3195   4.854   4.420   9.309  0.4451 -0.4542  0.0885
   24SAPC  C220 3196   4.996   4.372   9.148 -0.4778 -0.2894 -1.0722
   24SAPC  H20R 3197   5.077   4.432   9.195 -0.5460  1.2596 -2.8088
   24SAPC  H20S 3198   5.011   4.382   9.038  0.8762 -3.5596 -1.2969
   24SAPC  H20T 3199   5.015   4.264   9.162  3.9741  0.2406 -1.4262
   24SAPC   C33 3200   4.671   5.485  10.077  0.3160  0.5961  0.7405
   24SAPC   H3X 3201   4.761   5.420  10.073  0.2309  0.3313  2.4304
   24SAPC   H3Y 3202   4.701   5.589  10.051 -2.1988  0.8259 -1.7597
   24SAPC   C34 3203   4.565   5.444   9.975 -0.2097  0.0871  0.6376
   24SAPC   H4X 3204   4.469   5.484  10.013  0.8853  1.4798  2.0615
   24SAPC   H4Y 3205   4.569   5.333   9.979  0.5505  0.1145  3.4772
   24SAPC   C35 3206   4.592   5.520   9.840 -0.3568  0.4171 -0.2128
   24SAPC   H5X 3207   4.699   5.497   9.820 -0.1891  1.0219 -0.0419
   24SAPC   H5Y 3208   4.580   5.629   9.858 -1.8194  0.3807 -0.8362
   24SAPC   C36 3209   4.513   5.487   9.711  0.2032  0.2498  0.1583
   24SAPC   H6X 3210   4.408   5.519   9.730  0.6264  2.0050 -0.2282
   24SAPC   H6Y 3211   4.518   5.378   9.690 -2.0296 -0.0730  0.9990
   24SAPC   C37 3212   4.557   5.583   9.598 -0.1849 -0.4371 -0.0607
   24SAPC   H7X 3213   4.664   5.582   9.568 -0.0674  3.2667 -0.2593
   24SAPC   H7Y 3214   4.537   5.690   9.624  3.1359  0.1924  0.3705
   24SAPC   C38 3215   4.469   5.560   9.471  0.5240  0.1173 -0.1127
   24SAPC   H8X 3216   4.373   5.611   9.490  0.9734  1.2907 -0.8804
   24SAPC   H8Y 3217   4.453   5.453   9.447 -0.2667  0.6511 -2.2781
   24SAPC   C39 3218   4.521   5.620   9.337  0.1406  0.0075 -0.0055
   24SAPC   H9X 3219   4.623   5.576   9.331  1.1017  1.7715  1.9216
   24SAPC   H9Y 3220   4.539   5.730   9.343  0.8406 -0.0285 -1.0540
   24SAPC  C310 3221   4.437   5.580   9.210  0.2307  0.5940  0.6155
   24SAPC  H10X 3222   4.329   5.604   9.225 -0.0978 -1.2633  1.5898
   24SAPC  H10Y 3223   4.451   5.470   9.200 -0.6310  0.2707  2.4599
   24SAPC  C311 3224   4.496   5.652   9.081  0.2483 -0.2349 -0.0773
   24SAPC  H11X 3225   4.522   5.758   9.097  1.2866 -0.7433  1.8464
   24SAPC  H11Y 3226   4.407   5.650   9.014 -1.0069  0.5211  1.5043
   24SAPC  C312 3227   4.607   5.566   9.013 -0.5150  0.1855 -0.2498
   24SAPC  H12X 3228   4.563   5.469   8.979 -0.5212 -0.7074  2.1263
   24SAPC  H12Y 3229   4.664   5.520   9.096  0.2081 -0.0008 -0.8378
   24SAPC  C313 3230   4.695   5.644   8.908 -0.3322  0.2154 -0.3820
   24SAPC  H13X 3231   4.774   5.566   8.903 -0.0172  0.5202 -0.1828
   24SAPC  H13Y 3232   4.732   5.738   8.953  1.4753 -0.9181  0.6228
   24SAPC  C314 3233   4.621   5.680   8.777 -0.0625 -0.1396  0.6838
   24SAPC  H14X 3234   4.540   5.753   8.796  0.1432 -0.1372  1.6012
   24SAPC  H14Y 3235   4.566   5.595   8.731  0.2823 -0.6778  1.2401
   24SAPC  C315 3236   4.710   5.743   8.667  1.4567 -0.0856  0.1860
   24SAPC  H15X 3237   4.768   5.665   8.614  0.8326  0.2098 -0.9671
   24SAPC  H15Y 3238   4.775   5.819   8.715 -0.0819  0.8781  0.8456
   24SAPC  C316 3239   4.638   5.808   8.556  0.2019 -0.2783  0.1164
   24SAPC  H16X 3240   4.576   5.893   8.592  0.7425  1.4130 -2.6580
   24SAPC  H16Y 3241   4.586   5.733   8.492  0.4802  0.5945 -1.1713
   24SAPC  C317 3242   4.738   5.881   8.464 -1.1012 -0.5810 -0.0277
   24SAPC  H17X 3243   4.823   5.821   8.424 -2.3945 -1.4518 -1.6110
   24SAPC  H17Y 3244   4.773   5.967   8.526 -3.1125  1.6559 -1.7714
   24SAPC  C318 3245   4.682   5.953   8.339  0.1094 -0.0088  0.3246
   24SAPC  H18X 3246   4.626   6.039   8.381 -1.3041 -1.2933  1.1711
   24SAPC  H18Y 3247   4.611   5.900   8.272 -0.8049  2.2948 -0.6450
   24SAPC  H18Z 3248   4.761   5.995   8.272 -0.8401  1.1217 -0.1388
   25SAPC     N 3249   2.822   2.662   6.556  0.6419  0.0464  0.8470
   25SAPC   C12 3250   2.799   2.623   6.410 -0.6557  0.4785 -0.1871
   25SAPC  H12A 3251   2.694   2.600   6.398 -0.2085 -3.2318  1.7061
   25SAPC  H12B 3252   2.849   2.532   6.382  1.0531  1.6180 -0.9857
   25SAPC   C13 3253   2.958   2.719   6.568 -0.3273 -0.5049 -0.2070
   25SAPC  H13A 3254   2.976   2.803   6.503  0.0683 -1.1917 -1.0132
   25SAPC  H13B 3255   2.957   2.762   6.667 -0.9646  0.7475 -0.7387
   25SAPC  H13C 3256   3.038   2.646   6.566 -0.4162 -0.8576  3.3599
   25SAPC   C14 3257   2.723   2.774   6.594  0.0819  0.0601  0.3583
   25SAPC  H14A 3258   2.722   2.800   6.699  0.3896 -1.5398  0.7756
   25SAPC  H14B 3259   2.739   2.860   6.531 -0.3361 -0.3558 -0.3277
   25SAPC  H14C 3260   2.624   2.737   6.570 -0.4854 -1.0391  3.8707
   25SAPC   C15 3261   2.799   2.549   6.642 -0.4613  0.5132  0.0720
   25SAPC  H15A 3262   2.698   2.513   6.631 -1.0929  2.1410  0.2758
   25SAPC  H15B 3263   2.863   2.467   6.614 -1.4023 -0.1500 -0.2028
   25SAPC  H15C 3264   2.819   2.575   6.745 -0.1196  1.2372 -0.1743
   25SAPC   C11 3265   2.851   2.725   6.300  0.2066  0.3734 -0.3531
   25SAPC  H11A 3266   2.822   2.695   6.197 -1.8591  1.7688 -0.2295
   25SAPC  H11B 3267   2.962   2.717   6.309 -0.0072 -1.8079  1.2167
   25SAPC     P 3268   2.866   2.980   6.284  0.2217  0.2133  0.0799
   25SAPC   O13 3269   2.861   2.982   6.137  0.0470 -0.0650  0.4117
   25SAPC   O14 3270   2.791   3.086   6.351 -0.3163 -0.1503 -0.0509
   25SAPC   O12 3271   2.799   2.849   6.331 -0.5405 -0.5419  0.2998
   25SAPC   O11 3272   3.011   2.973   6.350 -0.1124 -0.0593  0.8021
   25SAPC    C1 3273   3.081   3.102   6.345 -0.2559  0.4881 -0.4323
   25SAPC    HA 3274   3.179   3.087   6.297 -0.0082 -0.2838  0.2979
   25SAPC    HB 3275   3.032   3.185   6.289 -1.7895 -0.3027 -0.3304
   25SAPC    C2 3276   3.126   3.165   6.482  0.6673 -0.7253 -0.1239
   25SAPC    HS 3277   3.217   3.225   6.459  0.1631  0.6397  1.2176
   25SAPC   O21 3278   3.151   3.063   6.579  0.0561  0.0568 -0.0505
   25SAPC   C21 3279   3.264   3.006   6.569 -0.0726  0.0525 -0.3510
   25SAPC   O22 3280   3.354   3.047   6.495 -0.2731 -0.0619  0.1483
   25SAPC   C22 3281   3.278   2.886   6.657 -0.2899 -0.3389 -0.3434
   25SAPC   H2R 3282   3.180   2.874   6.708 -0.4663  1.2607 -0.2722
   25SAPC   H2S 3283   3.305   2.801   6.591  0.9806  0.2984 -0.6825
   25SAPC    C3 3284   3.015   3.263   6.541 -0.0529  0.5399  0.9986
   25SAPC    HX 3285   2.916   3.222   6.511  0.9385  0.1633 -2.1595
   25SAPC    HY 3286   3.021   3.357   6.482 -0.6347 -0.8599 -1.4081
   25SAPC   O31 3287   3.029   3.284   6.677 -0.0644  0.1014 -0.3122
   25SAPC   C31 3288   3.111   3.386   6.719  0.5238  0.0813  1.0031
   25SAPC   O32 3289   3.180   3.456   6.647  0.4685 -0.2247 -0.3940
   25SAPC   C32 3290   3.117   3.373   6.871 -0.0207  0.5695  0.0615
   25SAPC   H2X 3291   3.139   3.269   6.901 -1.6571  0.5678  1.4458
   25SAPC   H2Y 3292   3.010   3.385   6.902 -0.5075 -2.3796 -0.2202
   25SAPC   C23 3293   3.394   2.905   6.760 -0.2558 -0.1285 -0.0624
   25SAPC   H3R 3294   3.483   2.953   6.714 -0.9666  0.3492 -0.9840
   25SAPC   H3S 3295   3.410   2.801   6.794 -3.0418  0.1269  2.4266
   25SAPC   C24 3296   3.350   2.983   6.893  0.2483  0.4294 -0.0854
   25SAPC   H4R 3297   3.302   3.076   6.855 -1.9682 -1.1458 -1.3448
   25SAPC   H4S 3298   3.442   3.011   6.949  0.3005 -0.3624  0.2281
   25SAPC   C25 3299   3.248   2.912   6.986  0.1466 -0.7138  0.1815
   25SAPC   H5R 3300   3.171   2.865   6.925  3.5642 -2.7538 -2.9679
   25SAPC   C26 3301   3.239   2.916   7.121  0.4808  0.0188  0.2502
   25SAPC   H6R 3302   3.154   2.868   7.172  0.2527 -0.4138 -0.5231
   25SAPC   C27 3303   3.342   2.983   7.208  0.1349 -0.0569 -0.6736
   25SAPC   H7R 3304   3.445   2.961   7.174  0.5623  2.5009 -1.2858
   25SAPC   H7S 3305   3.333   2.944   7.311 -0.1245 -0.9554 -1.0273
   25SAPC   C28 3306   3.323   3.136   7.207  0.2946  0.3134  0.0352
   25SAPC   H8R 3307   3.342   3.188   7.112 -0.2460 -0.6662 -0.6228
   25SAPC   C29 3308   3.300   3.212   7.316  0.4088 -0.3680  0.2737
   25SAPC   H9R 3309   3.267   3.316   7.306 -1.4060 -1.0157 -1.0988
   25SAPC  C210 3310   3.277   3.164   7.459  0.5919 -0.6226 -0.2845
   25SAPC  H10R 3311   3.225   3.066   7.457  0.0429 -0.3353 -0.2257
   25SAPC  H10S 3312   3.211   3.234   7.514 -1.8003 -0.5780 -2.9791
   25SAPC  C211 3313   3.417   3.162   7.524 -0.1099  0.3878  0.2789
   25SAPC  H11R 3314   3.503   3.164   7.456 -0.1497 -0.9145  0.1560
   25SAPC  C212 3315   3.437   3.146   7.654 -0.1226  0.3414  0.8324
   25SAPC  H12R 3316   3.538   3.139   7.696 -0.1223 -0.6979  0.6894
   25SAPC  C213 3317   3.330   3.129   7.756 -0.3862 -0.0735 -0.2114
   25SAPC  H13R 3318   3.228   3.148   7.718  0.1135 -1.2773 -2.3124
   25SAPC  H13S 3319   3.345   3.195   7.844  1.4667 -0.8216  0.0926
   25SAPC  C214 3320   3.336   2.982   7.804  0.5722 -0.3388  0.4320
   25SAPC  H14R 3321   3.289   2.915   7.731  1.1040  1.1409 -1.3458
   25SAPC  C215 3322   3.394   2.927   7.903 -0.7681 -0.7324 -0.2808
   25SAPC  H15R 3323   3.391   2.818   7.913  0.6500 -0.7088  0.6364
   25SAPC  C216 3324   3.474   3.007   8.004 -0.3556 -0.2876  0.3929
   25SAPC  H16R 3325   3.411   3.033   8.091 -0.4733  0.6732  0.0328
   25SAPC  H16S 3326   3.508   3.105   7.965  0.1884  0.4159  2.5177
   25SAPC  C217 3327   3.608   2.942   8.043 -0.3819  0.2266  0.3466
   25SAPC  H17R 3328   3.682   2.942   7.961 -0.0254  0.9437  0.6616
   25SAPC  H17S 3329   3.599   2.835   8.072  0.0748  0.4427  1.3323
   25SAPC  C218 3330   3.665   3.023   8.165 -0.6156  1.0497 -0.8631
   25SAPC  H18R 3331   3.582   3.030   8.239  0.0123 -0.2501  0.0088
   25SAPC  H18S 3332   3.697   3.126   8.138 -0.1949  1.0894 -0.2290
   25SAPC  C219 3333   3.786   2.958   8.228 -0.0894 -0.4352 -0.5165
   25SAPC  H19R 3334   3.823   3.031   8.303 -0.9127  0.6029 -1.0821
   25SAPC  H19S 3335   3.865   2.965   8.150  1.6212  2.9766  1.2929
   25SAPC  C220 3336   3.759   2.822   8.295 -0.0821  0.2665  0.7977
   25SAPC  H20R 3337   3.701   2.847   8.386 -0.2342  1.5995  0.3640
   25SAPC  H20S 3338   3.848   2.761   8.321  0.0883  0.0824 -0.1656
   25SAPC  H20T 3339   3.695   2.756   8.233  1.0894 -0.9142  0.8070
   25SAPC   C33 3340   3.222   3.463   6.935 -0.3305 -0.2332  0.2328
   25SAPC   H3X 3341   3.250   3.551   6.872  1.2582 -0.0619  1.1011
   25SAPC   H3Y 3342   3.318   3.414   6.962 -0.5888 -0.8797 -0.0019
   25SAPC   C34 3343   3.174   3.521   7.067  0.2252 -0.1475  0.3607
   25SAPC   H4X 3344   3.152   3.438   7.137 -1.5037  1.4745  1.8518
   25SAPC   H4Y 3345   3.075   3.565   7.042 -0.2886 -1.2450  0.4420
   25SAPC   C35 3346   3.268   3.630   7.127 -0.0530  0.5310  0.1467
   25SAPC   H5X 3347   3.276   3.717   7.059  0.5174 -0.2814 -0.8515
   25SAPC   H5Y 3348   3.372   3.593   7.140  0.4209  1.3621 -1.0887
   25SAPC   C36 3349   3.217   3.658   7.275 -0.5233 -0.0823 -0.0966
   25SAPC   H6X 3350   3.117   3.612   7.288  0.0198 -0.7484  2.2241
   25SAPC   H6Y 3351   3.206   3.767   7.294  0.7052  0.3809 -1.8969
   25SAPC   C37 3352   3.305   3.595   7.384  0.2605  0.8826  0.2773
   25SAPC   H7X 3353   3.388   3.662   7.415  4.4027 -3.6537  0.3036
   25SAPC   H7Y 3354   3.357   3.506   7.343  2.5397  1.5733  1.4969
   25SAPC   C38 3355   3.225   3.561   7.511 -0.9510  0.2347 -0.0275
   25SAPC   H8X 3356   3.145   3.487   7.490 -1.0700  0.2420  0.3996
   25SAPC   H8Y 3357   3.174   3.649   7.556  0.2989  1.7058 -1.3831
   25SAPC   C39 3358   3.326   3.512   7.617  0.3131  0.3890  0.0058
   25SAPC   H9X 3359   3.396   3.431   7.588  1.6224  1.1649  0.8855
   25SAPC   H9Y 3360   3.269   3.482   7.707  0.3708 -0.6802 -0.3060
   25SAPC  C310 3361   3.422   3.629   7.667  0.6054 -0.2867  0.5874
   25SAPC  H10X 3362   3.357   3.698   7.725  1.4942 -0.3574  1.6930
   25SAPC  H10Y 3363   3.485   3.675   7.587 -0.7162 -2.4408 -1.8794
   25SAPC  C311 3364   3.513   3.572   7.778  0.1223  0.0416  0.3267
   25SAPC  H11X 3365   3.566   3.663   7.813 -0.5082  1.0395 -1.2128
   25SAPC  H11Y 3366   3.580   3.497   7.731  0.5933  0.3652  0.4768
   25SAPC  C312 3367   3.455   3.503   7.898 -0.1979 -0.5372  0.5241
   25SAPC  H12X 3368   3.433   3.397   7.873  0.9242 -1.0411  1.5929
   25SAPC  H12Y 3369   3.353   3.546   7.914  0.0434 -0.2735  1.3893
   25SAPC  C313 3370   3.538   3.504   8.016 -0.1745 -0.2332  0.4599
   25SAPC  H13X 3371   3.545   3.609   8.053  1.9105 -0.8286  1.9488
   25SAPC  H13Y 3372   3.643   3.473   7.997  0.3329 -0.0065  2.5899
   25SAPC  C314 3373   3.480   3.424   8.134 -0.2103  0.3749 -0.2096
   25SAPC  H14X 3374   3.490   3.314   8.122 -0.4542 -0.1490  3.2925
   25SAPC  H14Y 3375   3.376   3.461   8.146  0.0593  1.1159 -0.0713
   25SAPC  C315 3376   3.565   3.444   8.257 -0.8343  0.0793 -0.2972
   25SAPC  H15X 3377   3.578   3.554   8.273 -0.9037 -0.0399  0.6382
   25SAPC  H15Y 3378   3.670   3.413   8.237 -0.4820 -0.3482  1.8792
   25SAPC  C316 3379   3.514   3.385   8.386  0.0359  0.5638 -0.0304
   25SAPC  H16X 3380   3.562   3.287   8.402 -0.2146 -0.7960 -5.5990
   25SAPC  H16Y 3381   3.406   3.358   8.382  0.1102  0.0989  0.7250
   25SAPC  C317 3382   3.522   3.484   8.508 -0.1997  0.0242  0.0022
   25SAPC  H17X 3383   3.454   3.448   8.588  1.2407  0.1912  1.3560
   25SAPC  H17Y 3384   3.476   3.579   8.474  0.8028  0.7859  0.7314
   25SAPC  C318 3385   3.660   3.515   8.561  0.1603  0.4154  0.1578
   25SAPC  H18X 3386   3.717   3.422   8.582  1.2485  0.9834 -0.1864
   25SAPC  H18Y 3387   3.644   3.570   8.656  0.0221  0.2174  0.2494
   25SAPC  H18Z 3388   3.725   3.568   8.488  1.2241 -1.2197 -0.1460
   26SAPC     N 3389   2.497   4.871   6.312  0.4107  0.4562  0.0976
   26SAPC   C12 3390   2.620   4.816   6.241 -0.4556  0.4083  0.3485
   26SAPC  H12A 3391   2.594   4.730   6.183  1.5296 -1.5518  2.1727
   26SAPC  H12B 3392   2.687   4.776   6.315  0.2469  1.5504  0.3633
   26SAPC   C13 3393   2.405   4.771   6.377 -0.8693 -0.0697 -0.2271
   26SAPC  H13A 3394   2.330   4.832   6.425 -1.0392  0.4894 -1.1802
   26SAPC  H13B 3395   2.355   4.699   6.315 -3.0675  2.0684 -1.0947
   26SAPC  H13C 3396   2.458   4.711   6.450 -0.6011 -0.1331 -0.4707
   26SAPC   C14 3397   2.536   4.969   6.416  0.4276  1.0725  0.0385
   26SAPC  H14A 3398   2.453   5.032   6.447 -0.1838  0.4432 -0.3140
   26SAPC  H14B 3399   2.583   4.917   6.498 -0.3354 -1.1367 -0.8503
   26SAPC  H14C 3400   2.612   5.037   6.379  1.4007  0.2397  0.4748
   26SAPC   C15 3401   2.412   4.942   6.216  0.5150  0.2616  0.1644
   26SAPC  H15A 3402   2.468   5.012   6.156 -1.8653  1.0122 -1.3149
   26SAPC  H15B 3403   2.367   4.869   6.151  0.1440  2.1474 -1.8135
   26SAPC  H15C 3404   2.337   5.009   6.256  0.5200 -0.0453  0.7046
   26SAPC   C11 3405   2.703   4.917   6.162  0.0016  0.0245 -0.0638
   26SAPC  H11A 3406   2.650   4.977   6.085  0.4105 -0.4417 -0.7159
   26SAPC  H11B 3407   2.779   4.859   6.106  1.2340  0.8538  0.6910
   26SAPC     P 3408   2.907   4.971   6.322  0.5238  0.0937  0.4181
   26SAPC   O13 3409   2.887   4.836   6.366 -0.5009  0.5148 -0.1713
   26SAPC   O14 3410   3.019   5.008   6.234  0.2077  0.3917  0.0581
   26SAPC   O12 3411   2.771   5.014   6.242  0.5267 -0.0663  0.0006
   26SAPC   O11 3412   2.899   5.072   6.446  0.1408  0.4379 -0.1497
   26SAPC    C1 3413   2.985   5.176   6.476 -0.5939 -0.5047  0.5171
   26SAPC    HA 3414   3.064   5.181   6.398 -0.2600  0.7854  0.9115
   26SAPC    HB 3415   2.932   5.273   6.462  1.2419  0.1892 -2.9844
   26SAPC    C2 3416   3.034   5.160   6.618 -0.4118  0.3257 -0.0300
   26SAPC    HS 3417   3.109   5.239   6.639 -0.5839  0.6400 -0.6012
   26SAPC   O21 3418   3.086   5.029   6.635  0.0465  0.0458  0.5437
   26SAPC   C21 3419   3.210   5.016   6.588  0.0215  0.5634  0.2590
   26SAPC   O22 3420   3.282   5.107   6.554  0.1922 -0.5614  0.1033
   26SAPC   C22 3421   3.251   4.866   6.578 -0.6079  0.4290  0.1639
   26SAPC   H2R 3422   3.273   4.833   6.474 -2.8658 -0.6785 -0.0247
   26SAPC   H2S 3423   3.351   4.866   6.626 -0.3818 -1.0510 -0.2474
   26SAPC    C3 3424   2.921   5.158   6.735  0.2426 -0.6840 -0.1342
   26SAPC    HX 3425   2.842   5.086   6.705 -1.6966  0.0670  2.7680
   26SAPC    HY 3426   2.874   5.259   6.733 -0.5718 -1.0563 -2.5811
   26SAPC   O31 3427   2.977   5.135   6.869 -0.2320  0.5466 -0.5027
   26SAPC   C31 3428   2.916   5.048   6.956 -0.0395  0.1613  0.2139
   26SAPC   O32 3429   2.808   4.992   6.931 -0.1481  0.4118  0.5804
   26SAPC   C32 3430   3.002   5.003   7.072  0.3210 -0.5459  0.8662
   26SAPC   H2X 3431   3.057   4.910   7.047 -1.2897 -1.1152 -0.7480
   26SAPC   H2Y 3432   2.939   4.983   7.161 -0.5284 -1.4945  0.0825
   26SAPC   C23 3433   3.163   4.756   6.652 -0.0409 -0.2252 -0.0711
   26SAPC   H3R 3434   3.068   4.731   6.601  0.7337 -1.4764 -0.9610
   26SAPC   H3S 3435   3.153   4.802   6.753 -0.9041  1.0991 -0.7297
   26SAPC   C24 3436   3.222   4.619   6.660 -0.1936  0.8668  0.2780
   26SAPC   H4R 3437   3.243   4.589   6.555 -3.0662 -3.3423  0.6879
   26SAPC   H4S 3438   3.142   4.558   6.706  1.5835 -0.0502  2.3653
   26SAPC   C25 3439   3.340   4.623   6.750 -0.7664  0.7599  0.4504
   26SAPC   H5R 3440   3.428   4.669   6.703  0.2706 -1.1969  0.3643
   26SAPC   C26 3441   3.349   4.586   6.877  0.6040  0.7728 -0.4191
   26SAPC   H6R 3442   3.443   4.605   6.930  1.2920  2.2076 -2.0508
   26SAPC   C27 3443   3.236   4.537   6.961 -0.0274 -0.7455  0.0223
   26SAPC   H7R 3444   3.253   4.434   7.001  0.7159 -0.1087  1.4065
   26SAPC   H7S 3445   3.138   4.536   6.907  0.4259 -0.3148 -0.8180
   26SAPC   C28 3446   3.212   4.639   7.062  0.2493 -0.3966  0.0536
   26SAPC   H8R 3447   3.143   4.715   7.024 -3.5990 -2.2651  2.6555
   26SAPC   C29 3448   3.255   4.646   7.186 -0.4667  0.4542 -0.6932
   26SAPC   H9R 3449   3.222   4.730   7.249 -1.0531 -0.3845  0.1410
   26SAPC  C210 3450   3.334   4.535   7.252 -0.3661  0.3386  0.1987
   26SAPC  H10R 3451   3.419   4.500   7.188 -0.6234  0.9245 -0.4766
   26SAPC  H10S 3452   3.268   4.452   7.285  1.2053  0.0768  2.9644
   26SAPC  C211 3453   3.411   4.577   7.376  0.0168  0.1053  0.6295
   26SAPC  H11R 3454   3.484   4.659   7.360 -0.1782  0.3358  0.9099
   26SAPC  C212 3455   3.388   4.534   7.500  0.0867 -0.0960  0.0881
   26SAPC  H12R 3456   3.447   4.574   7.583 -1.6619 -2.3740  2.6106
   26SAPC  C213 3457   3.286   4.433   7.549 -0.2004  0.1346 -0.3269
   26SAPC  H13R 3458   3.343   4.345   7.585 -0.0397  0.0022 -0.8860
   26SAPC  H13S 3459   3.216   4.383   7.479 -1.6959 -2.1885  2.5936
   26SAPC  C214 3460   3.213   4.488   7.669 -0.4144  0.0648  0.1974
   26SAPC  H14R 3461   3.121   4.540   7.640 -2.2046 -1.3954  2.9033
   26SAPC  C215 3462   3.241   4.489   7.800 -0.5620 -0.0631 -0.2501
   26SAPC  H15R 3463   3.180   4.544   7.874  0.2364 -1.0905  1.2283
   26SAPC  C216 3464   3.366   4.427   7.875 -0.2952 -0.0094 -0.3486
   26SAPC  H16R 3465   3.425   4.507   7.924 -1.8873  0.6804  0.5048
   26SAPC  H16S 3466   3.435   4.371   7.808 -0.1500  1.1033 -1.1627
   26SAPC  C217 3467   3.333   4.327   7.986 -0.4618 -0.3770 -0.6189
   26SAPC  H17R 3468   3.422   4.262   7.998 -0.4289 -0.6073 -1.9248
   26SAPC  H17S 3469   3.254   4.256   7.954  0.2865 -3.0008  2.7893
   26SAPC  C218 3470   3.293   4.380   8.127  0.3095  0.4862  0.1863
   26SAPC  H18R 3471   3.202   4.439   8.103 -0.8071 -0.9358  0.8093
   26SAPC  H18S 3472   3.367   4.455   8.163 -1.5919  3.0782 -0.9940
   26SAPC  C219 3473   3.236   4.271   8.222 -0.5361  0.1590 -0.9520
   26SAPC  H19R 3474   3.167   4.208   8.163  1.0302 -2.3731 -0.2282
   26SAPC  H19S 3475   3.195   4.325   8.310 -1.2735  0.0201 -1.2079
   26SAPC  C220 3476   3.348   4.176   8.280 -0.0759  0.7005  0.2277
   26SAPC  H20R 3477   3.425   4.246   8.317  1.0700  0.2000 -1.1169
   26SAPC  H20S 3478   3.393   4.122   8.194  0.2887  0.9613  0.2565
   26SAPC  H20T 3479   3.301   4.102   8.348  1.9127  0.4932  1.4485
   26SAPC   C33 3480   3.123   5.099   7.109  0.1198  0.0241 -0.1321
   26SAPC   H3X 3481   3.084   5.203   7.108 -2.6920 -0.9704 -1.0487
   26SAPC   H3Y 3482   3.199   5.080   7.030  1.8057  0.1084  1.3759
   26SAPC   C34 3483   3.187   5.069   7.249  0.1399 -0.2625 -0.5217
   26SAPC   H4X 3484   3.286   5.119   7.258  0.6098 -1.3237  0.4863
   26SAPC   H4Y 3485   3.203   4.959   7.252 -2.4749 -0.7122 -0.8653
   26SAPC   C35 3486   3.094   5.109   7.365  0.2299 -0.5039  1.3484
   26SAPC   H5X 3487   2.996   5.061   7.346  0.4621  0.0049 -1.7214
   26SAPC   H5Y 3488   3.082   5.220   7.364  0.8193 -0.4346  1.1242
   26SAPC   C36 3489   3.152   5.064   7.495  0.2291 -0.0772  0.0827
   26SAPC   H6X 3490   3.261   5.082   7.499  0.1374  0.6395 -0.5029
   26SAPC   H6Y 3491   3.145   4.953   7.498  1.3958 -0.1432  1.7659
   26SAPC   C37 3492   3.072   5.127   7.612 -0.1696  0.0345  0.0886
   26SAPC   H7X 3493   2.966   5.107   7.587  0.5049  0.2289 -3.3956
   26SAPC   H7Y 3494   3.080   5.238   7.616 -0.2731  0.0791 -0.7772
   26SAPC   C38 3495   3.103   5.071   7.755  0.3694  0.2729  0.3895
   26SAPC   H8X 3496   3.056   5.130   7.836  1.2151 -0.3343  1.3528
   26SAPC   H8Y 3497   3.213   5.073   7.773  0.4996 -0.6850 -0.1974
   26SAPC   C39 3498   3.038   4.934   7.782 -0.1122  0.2160 -0.0794
   26SAPC   H9X 3499   3.089   4.857   7.720  0.4773 -2.1783  3.1186
   26SAPC   H9Y 3500   2.928   4.950   7.771 -0.3920  0.5619  2.5994
   26SAPC  C310 3501   3.072   4.880   7.926 -0.1565  0.6860 -0.1148
   26SAPC  H10X 3502   2.999   4.799   7.948  0.2368  0.5721  0.8141
   26SAPC  H10Y 3503   3.038   4.958   7.996 -1.8078 -0.3785  0.3249
   26SAPC  C311 3504   3.221   4.845   7.946  0.3470 -0.4848 -0.5172
   26SAPC  H11X 3505   3.282   4.934   7.970 -0.9846 -0.1593  1.9543
   26SAPC  H11Y 3506   3.269   4.785   7.865  1.0188  1.2678 -1.4723
   26SAPC  C312 3507   3.237   4.753   8.067  0.7472  0.6414 -0.4940
   26SAPC  H12X 3508   3.344   4.724   8.067  0.6804  0.3928 -0.6186
   26SAPC  H12Y 3509   3.160   4.673   8.058 -0.0754  1.4049 -0.4597
   26SAPC  C313 3510   3.209   4.828   8.199  0.7057 -0.8762 -0.4888
   26SAPC  H13X 3511   3.106   4.868   8.199 -0.4311 -3.5700 -1.1038
   26SAPC  H13Y 3512   3.277   4.915   8.208  2.0812 -1.3929 -4.2293
   26SAPC  C314 3513   3.199   4.747   8.326  0.2072 -0.3668  1.7699
   26SAPC  H14X 3514   3.297   4.696   8.342 -1.1209 -3.3063  1.2157
   26SAPC  H14Y 3515   3.134   4.659   8.307  1.2390 -0.8440  0.1488
   26SAPC  C315 3516   3.157   4.825   8.446  0.4462  0.6144 -0.5939
   26SAPC  H15X 3517   3.054   4.863   8.430  0.0883 -0.6207 -1.3282
   26SAPC  H15Y 3518   3.213   4.919   8.467  0.7805  0.3852 -0.4506
   26SAPC  C316 3519   3.153   4.735   8.577  0.8139 -0.5196 -0.0789
   26SAPC  H16X 3520   3.240   4.667   8.571 -1.1057 -3.2152  0.7317
   26SAPC  H16Y 3521   3.059   4.678   8.593  0.5437 -0.5616 -1.7109
   26SAPC  C317 3522   3.173   4.821   8.712 -0.4405 -0.7495 -1.2977
   26SAPC  H17X 3523   3.261   4.888   8.712 -0.5100 -0.6568 -0.4175
   26SAPC  H17Y 3524   3.192   4.757   8.800  1.7564  2.5686  0.8792
   26SAPC  C318 3525   3.046   4.895   8.767  0.2347 -0.1454 -0.0288
   26SAPC  H18X 3526   2.959   4.827   8.772  0.4475 -0.9553 -3.8400
   26SAPC  H18Y 3527   3.019   4.985   8.707 -1.6232 -1.1159 -0.7206
   26SAPC  H18Z 3528   3.066   4.937   8.868  3.0755  0.2061 -0.6523
   27SAPC     N 3529   0.819   5.304   6.539  0.7056  0.3332  0.9187
   27SAPC   C12 3530   0.859   5.207   6.644 -0.8935  0.4516  0.5836
   27SAPC  H12A 3531   0.932   5.252   6.710 -0.6731  0.3209  0.4337
   27SAPC  H12B 3532   0.897   5.116   6.599  0.0569  1.2596 -0.3262
   27SAPC   C13 3533   0.761   5.427   6.595  0.2440 -0.4003 -0.6753
   27SAPC  H13A 3534   0.748   5.500   6.515  2.4904  2.1723  1.1385
   27SAPC  H13B 3535   0.667   5.404   6.644  0.8791  0.1195  0.8060
   27SAPC  H13C 3536   0.826   5.469   6.669 -0.1377  0.4847 -0.8174
   27SAPC   C14 3537   0.933   5.347   6.449 -0.2296  0.0859 -0.2678
   27SAPC  H14A 3538   1.010   5.402   6.500  0.4497 -0.2378 -0.9312
   27SAPC  H14B 3539   0.982   5.258   6.413  0.0529 -0.5458  1.5626
   27SAPC  H14C 3540   0.910   5.406   6.362  1.3660  0.1067 -0.7017
   27SAPC   C15 3541   0.723   5.246   6.447  0.9164  0.7813  0.9617
   27SAPC  H15A 3542   0.634   5.211   6.497  0.3413 -0.7646 -1.0060
   27SAPC  H15B 3543   0.678   5.312   6.374 -1.0329 -2.0911 -0.6350
   27SAPC  H15C 3544   0.779   5.167   6.399  1.2682  2.4981 -1.6829
   27SAPC   C11 3545   0.752   5.169   6.751 -0.6012 -0.5676 -0.0389
   27SAPC  H11A 3546   0.732   5.262   6.809 -0.7699  1.0945 -2.5958
   27SAPC  H11B 3547   0.814   5.103   6.816  0.1558 -2.4916 -2.5410
   27SAPC     P 3548   0.494   5.128   6.725 -0.1180 -0.0018 -0.0696
   27SAPC   O13 3549   0.472   5.270   6.695  0.0227 -0.3425 -0.2786
   27SAPC   O14 3550   0.404   5.034   6.659  0.4906 -0.4365  0.8032
   27SAPC   O12 3551   0.646   5.096   6.697 -0.1443  0.3728  0.2418
   27SAPC   O11 3552   0.476   5.103   6.880  0.5434 -0.5622  0.2277
   27SAPC    C1 3553   0.371   5.177   6.947  0.0488  0.2875 -0.1531
   27SAPC    HA 3554   0.293   5.220   6.881 -1.3287 -1.7895  0.0310
   27SAPC    HB 3555   0.319   5.100   7.008 -0.7563  0.4995 -0.5551
   27SAPC    C2 3556   0.431   5.279   7.047 -0.5232 -0.3044 -0.3814
   27SAPC    HS 3557   0.353   5.318   7.116  0.4359  1.3222 -0.1930
   27SAPC   O21 3558   0.492   5.388   6.978  0.3210 -0.8129 -0.2760
   27SAPC   C21 3559   0.403   5.468   6.920  0.2563 -0.0277  0.1538
   27SAPC   O22 3560   0.278   5.460   6.929 -0.2280 -0.1987  0.1333
   27SAPC   C22 3561   0.486   5.574   6.833  0.5044 -0.3387 -0.0404
   27SAPC   H2R 3562   0.584   5.535   6.800  0.5226 -1.7090  1.4959
   27SAPC   H2S 3563   0.429   5.593   6.740  0.6172 -0.2464 -0.0907
   27SAPC    C3 3564   0.555   5.215   7.126 -0.1951  0.0364  0.1188
   27SAPC    HX 3565   0.609   5.299   7.175 -0.7436  0.6713 -0.3548
   27SAPC    HY 3566   0.625   5.161   7.059 -0.1529 -1.7915  1.5758
   27SAPC   O31 3567   0.522   5.115   7.224  0.0738  0.1282  0.2790
   27SAPC   C31 3568   0.457   5.171   7.326  0.2403 -0.6015 -0.6968
   27SAPC   O32 3569   0.452   5.290   7.353 -0.9833 -0.0489 -0.1369
   27SAPC   C32 3570   0.376   5.063   7.404  0.1988 -0.2442  0.6668
   27SAPC   H2X 3571   0.447   4.994   7.456 -0.2386 -0.8543  0.4713
   27SAPC   H2Y 3572   0.329   4.999   7.326  2.5633  0.5052 -1.5332
   27SAPC   C23 3573   0.517   5.710   6.903  0.1979  0.9397  0.3546
   27SAPC   H3R 3574   0.539   5.779   6.819 -3.3352  1.0519 -0.6253
   27SAPC   H3S 3575   0.609   5.705   6.966  0.7132  1.0393 -0.3744
   27SAPC   C24 3576   0.396   5.764   6.990  0.0959 -0.3621  0.4903
   27SAPC   H4R 3577   0.364   5.682   7.057 -0.9898  0.3576  0.8821
   27SAPC   H4S 3578   0.314   5.792   6.921  0.2296  1.8734  1.1677
   27SAPC   C25 3579   0.440   5.893   7.057  0.6593 -0.8777  0.5421
   27SAPC   H5R 3580   0.509   5.944   6.988  0.4816 -1.9523 -0.4546
   27SAPC   C26 3581   0.406   5.932   7.182 -0.0241 -0.0446 -0.2218
   27SAPC   H6R 3582   0.457   6.024   7.214  1.1585  0.0955 -2.3295
   27SAPC   C27 3583   0.323   5.854   7.279  0.5790 -0.1843  0.6632
   27SAPC   H7R 3584   0.298   5.752   7.246 -0.6303  0.6653 -1.1778
   27SAPC   H7S 3585   0.224   5.903   7.288  0.9338  0.8586 -0.6998
   27SAPC   C28 3586   0.383   5.851   7.414  0.0885 -0.2247 -0.1731
   27SAPC   H8R 3587   0.398   5.949   7.461 -1.5473  0.6313 -1.2953
   27SAPC   C29 3588   0.415   5.741   7.483  0.0429 -0.6155 -0.3105
   27SAPC   H9R 3589   0.469   5.757   7.578 -1.6722 -1.4427  0.8532
   27SAPC  C210 3590   0.383   5.600   7.452 -0.8337 -0.5823  0.0043
   27SAPC  H10R 3591   0.467   5.541   7.493 -2.6991 -2.0722  1.9183
   27SAPC  H10S 3592   0.380   5.569   7.345 -0.3446  0.0762 -0.2078
   27SAPC  C211 3593   0.250   5.552   7.512 -0.1168 -0.4330  0.0043
   27SAPC  H11R 3594   0.172   5.552   7.435 -0.9629  1.3736  0.7929
   27SAPC  C212 3595   0.224   5.508   7.634  0.1204  0.0125  0.1744
   27SAPC  H12R 3596   0.121   5.474   7.655 -0.0384  1.0162  1.1587
   27SAPC  C213 3597   0.324   5.502   7.745 -0.3359  0.1796 -0.1345
   27SAPC  H13R 3598   0.268   5.542   7.832 -1.7782  0.9323 -1.3530
   27SAPC  H13S 3599   0.404   5.578   7.731  0.0632  0.3419  2.5878
   27SAPC  C214 3600   0.380   5.372   7.784 -0.7935 -0.2795 -0.1497
   27SAPC  H14R 3601   0.462   5.336   7.719 -0.7157  0.9649 -0.7594
   27SAPC  C215 3602   0.357   5.298   7.893 -0.1944 -0.1439  0.1797
   27SAPC  H15R 3603   0.403   5.200   7.913  0.2056  0.2555  1.3543
   27SAPC  C216 3604   0.258   5.336   8.000  0.1965 -1.2650 -0.3432
   27SAPC  H16R 3605   0.155   5.343   7.960 -0.3989 -3.5219  0.6385
   27SAPC  H16S 3606   0.285   5.436   8.040 -0.1431  0.6624 -4.3641
   27SAPC  C217 3607   0.237   5.251   8.131  0.5992 -0.7963  0.2674
   27SAPC  H17R 3608   0.182   5.156   8.115 -0.7687 -0.7177  3.6654
   27SAPC  H17S 3609   0.168   5.304   8.199  0.8431 -2.5149  1.9509
   27SAPC  C218 3610   0.370   5.215   8.206  0.4152  0.2615 -0.3752
   27SAPC  H18R 3611   0.431   5.307   8.197  0.7446  0.0390 -0.4160
   27SAPC  H18S 3612   0.429   5.140   8.149  0.1644 -0.0225 -0.2679
   27SAPC  C219 3613   0.348   5.180   8.350  0.5018  0.3665 -0.6592
   27SAPC  H19R 3614   0.260   5.113   8.347  1.5819 -1.5624  3.2780
   27SAPC  H19S 3615   0.325   5.270   8.412 -1.2995 -0.1351 -0.5364
   27SAPC  C220 3616   0.462   5.108   8.405 -0.3552  0.0515  0.2184
   27SAPC  H20R 3617   0.467   5.110   8.516  0.8279  2.4347  0.1803
   27SAPC  H20S 3618   0.553   5.160   8.371 -0.4430  0.0769  0.0248
   27SAPC  H20T 3619   0.470   5.010   8.353  0.3896 -1.4876  3.0185
   27SAPC   C33 3620   0.273   5.112   7.508 -0.2160  0.5997 -0.1730
   27SAPC   H3X 3621   0.189   5.166   7.458  0.3221  1.2722 -0.3685
   27SAPC   H3Y 3622   0.323   5.195   7.562  0.7183  0.3414 -0.6265
   27SAPC   C34 3623   0.221   4.996   7.597  0.6368 -0.0647 -0.1565
   27SAPC   H4X 3624   0.299   4.950   7.661  1.1581 -0.3718 -0.9869
   27SAPC   H4Y 3625   0.188   4.918   7.524 -0.3551  1.0508 -0.9292
   27SAPC   C35 3626   0.108   5.032   7.687  0.2280  0.2407  0.0717
   27SAPC   H5X 3627   0.020   5.058   7.625 -0.5179 -0.0640  0.9781
   27SAPC   H5Y 3628   0.142   5.112   7.756 -0.6493 -0.2329  1.0857
   27SAPC   C36 3629   0.050   4.922   7.786 -0.1123  0.1910 -0.0137
   27SAPC   H6X 3630   0.048   4.823   7.734  1.2537 -1.5411  2.9748
   27SAPC   H6Y 3631  -0.051   4.962   7.806 -0.3517 -0.1852 -0.4372
   27SAPC   C37 3632   0.125   4.905   7.920  0.2103  0.0113 -0.3780
   27SAPC   H7X 3633   0.168   5.002   7.954  1.1420 -1.2613  2.3558
   27SAPC   H7Y 3634   0.212   4.836   7.916 -0.2147 -0.6421  1.0716
   27SAPC   C38 3635   0.039   4.867   8.045  0.1366  0.0411  0.7899
   27SAPC   H8X 3636  -0.017   4.772   8.031 -2.0669  1.4928 -1.2676
   27SAPC   H8Y 3637  -0.037   4.945   8.065 -0.7072 -0.8508  1.1445
   27SAPC   C39 3638   0.109   4.849   8.180 -0.3157 -0.3581  0.1868
   27SAPC   H9X 3639   0.134   4.949   8.222  0.7771 -0.8855  0.8309
   27SAPC   H9Y 3640   0.204   4.792   8.169  0.9443  1.3834  1.4376
   27SAPC  C310 3641   0.030   4.776   8.285 -0.3085  0.0273  0.0104
   27SAPC  H10X 3642   0.016   4.671   8.252 -0.4963  0.0985 -0.1388
   27SAPC  H10Y 3643  -0.073   4.818   8.284 -0.6255 -0.6022  1.9747
   27SAPC  C311 3644   0.081   4.783   8.420 -0.7462  0.1339  0.3996
   27SAPC  H11X 3645   0.042   4.707   8.491  0.3862  0.0314  0.9381
   27SAPC  H11Y 3646   0.082   4.883   8.469 -0.4490  1.0693 -1.4130
   27SAPC  C312 3647   0.228   4.739   8.420  0.5613 -0.0080 -0.4099
   27SAPC  H12X 3648   0.277   4.815   8.356  0.3463 -0.2394 -0.8584
   27SAPC  H12Y 3649   0.250   4.635   8.387  0.3412 -0.2990  0.3329
   27SAPC  C313 3650   0.294   4.738   8.561  0.7546 -0.5825  0.5238
   27SAPC  H13X 3651   0.398   4.707   8.537  0.8188  0.2173 -0.3050
   27SAPC  H13Y 3652   0.256   4.651   8.618 -0.4888 -0.5652 -0.2473
   27SAPC  C314 3653   0.295   4.868   8.634  0.0728 -0.1229 -0.0371
   27SAPC  H14X 3654   0.201   4.884   8.691 -0.6822 -2.8840 -0.3542
   27SAPC  H14Y 3655   0.306   4.957   8.569  0.0458 -0.1396 -0.0644
   27SAPC  C315 3656   0.412   4.878   8.739  0.2221  0.1596  0.1878
   27SAPC  H15X 3657   0.505   4.891   8.680 -0.1108 -1.1635 -0.6748
   27SAPC  H15Y 3658   0.412   4.783   8.797 -1.1326 -0.0877 -0.1863
   27SAPC  C316 3659   0.403   4.999   8.832 -0.3567 -0.0184 -0.1028
   27SAPC  H16X 3660   0.302   5.011   8.876  0.1680 -0.5996  1.3325
   27SAPC  H16Y 3661   0.427   5.088   8.770 -2.3272 -0.4565 -1.5887
   27SAPC  C317 3662   0.501   4.987   8.954 -0.0356 -0.0845  0.6257
   27SAPC  H17X 3663   0.588   4.925   8.924  1.1715  0.7145  2.2944
   27SAPC  H17Y 3664   0.439   4.938   9.033 -2.3941 -0.3511 -1.2779
   27SAPC  C318 3665   0.538   5.133   9.003 -0.1675 -0.2260 -0.0996
   27SAPC  H18X 3666   0.529   5.134   9.113 -2.3451 -0.5797 -0.2253
   27SAPC  H18Y 3667   0.461   5.205   8.968 -1.0741 -1.2219 -0.2134
   27SAPC  H18Z 3668   0.635   5.159   8.955 -0.6326  0.0249 -0.9300
   28SAPC     N 3669   5.044   2.079   6.020  0.2719 -0.9059  0.4670
   28SAPC   C12 3670   5.063   2.105   6.168  0.1982  0.6040  0.7977
   28SAPC  H12A 3671   5.130   2.026   6.201  1.6004  1.6304  0.4978
   28SAPC  H12B 3672   4.969   2.086   6.217 -0.0816 -1.4824 -0.4187
   28SAPC   C13 3673   5.173   2.104   5.943 -0.2553 -0.5845  0.1241
   28SAPC  H13A 3674   5.215   2.200   5.970  0.0006 -0.2833 -1.2700
   28SAPC  H13B 3675   5.234   2.023   5.978 -1.1260 -1.2351  0.1738
   28SAPC  H13C 3676   5.163   2.089   5.836  0.4891 -0.7174  0.0704
   28SAPC   C14 3677   5.006   1.934   5.984  0.2244  0.4218  0.0289
   28SAPC  H14A 3678   4.974   1.922   5.881  0.3680 -2.6542  0.2703
   28SAPC  H14B 3679   5.087   1.864   5.994 -1.6874 -1.7592  0.9727
   28SAPC  H14C 3680   4.936   1.893   6.055  1.1236 -2.8145 -0.7748
   28SAPC   C15 3681   4.930   2.167   5.973  0.0113 -0.1542 -0.5255
   28SAPC  H15A 3682   4.834   2.145   6.016  0.3752 -2.1581 -0.6310
   28SAPC  H15B 3683   4.952   2.270   5.994 -0.6678 -0.1797  0.3563
   28SAPC  H15C 3684   4.924   2.163   5.865 -1.8421 -1.9282 -0.4260
   28SAPC   C11 3685   5.120   2.242   6.217  0.4083 -0.2324 -0.3495
   28SAPC  H11A 3686   5.095   2.250   6.325 -0.4115 -2.4268 -0.3330
   28SAPC  H11B 3687   5.061   2.324   6.170 -0.1194 -1.4532 -1.9023
   28SAPC     P 3688   5.369   2.176   6.263  0.0656  0.3264 -0.0087
   28SAPC   O13 3689   5.325   2.036   6.285  0.0894  0.3057 -0.7930
   28SAPC   O14 3690   5.497   2.189   6.193  1.1339 -0.1273  0.1940
   28SAPC   O12 3691   5.258   2.253   6.180 -0.2187 -0.1172  0.0383
   28SAPC   O11 3692   5.368   2.240   6.401  0.1848 -0.3221 -0.4037
   28SAPC    C1 3693   5.374   2.379   6.436  0.3050  0.0154  0.4174
   28SAPC    HA 3694   5.476   2.414   6.410  0.0864  0.5907  0.3396
   28SAPC    HB 3695   5.297   2.432   6.377  0.9531 -1.0559 -1.5065
   28SAPC    C2 3696   5.334   2.394   6.590 -0.6720 -0.2584  0.1338
   28SAPC    HS 3697   5.355   2.498   6.624  0.6382  0.2255 -1.9668
   28SAPC   O21 3698   5.414   2.297   6.666  0.5670 -0.4671  0.6683
   28SAPC   C21 3699   5.533   2.339   6.694 -0.8708 -0.2770  0.7033
   28SAPC   O22 3700   5.604   2.421   6.639  0.5864 -0.3416 -0.1622
   28SAPC   C22 3701   5.583   2.247   6.811  0.7201 -0.7775  0.1490
   28SAPC   H2R 3702   5.490   2.214   6.862 -1.1381  3.1543 -0.2723
   28SAPC   H2S 3703   5.638   2.159   6.772  3.2209  1.1958 -1.0588
   28SAPC    C3 3704   5.189   2.366   6.615 -0.3316  0.5143  0.4240
   28SAPC    HX 3705   5.166   2.265   6.576  0.1680  1.4367 -2.5308
   28SAPC    HY 3706   5.143   2.425   6.532  0.0700 -0.2348 -0.3394
   28SAPC   O31 3707   5.128   2.403   6.743  0.2122  0.4979  0.2821
   28SAPC   C31 3708   5.124   2.296   6.827 -0.3159  0.0741 -0.2406
   28SAPC   O32 3709   5.160   2.184   6.803  0.0793  0.1295  0.4004
   28SAPC   C32 3710   5.053   2.343   6.951  0.3299  0.5499 -0.1652
   28SAPC   H2X 3711   4.951   2.299   6.955  0.9650 -0.9717 -0.3325
   28SAPC   H2Y 3712   5.040   2.454   6.947 -7.3190  0.1258 -1.4198
   28SAPC   C23 3713   5.673   2.317   6.910 -0.2062  0.3337 -0.0189
   28SAPC   H3R 3714   5.604   2.381   6.969 -0.1518  1.4298 -1.0936
   28SAPC   H3S 3715   5.743   2.387   6.859  0.2601 -0.1990 -0.1207
   28SAPC   C24 3716   5.760   2.229   7.001  0.0098 -0.5774 -0.3018
   28SAPC   H4R 3717   5.806   2.149   6.939  0.2400 -2.6661  2.3681
   28SAPC   H4S 3718   5.841   2.295   7.038 -0.9100  0.7232 -0.5460
   28SAPC   C25 3719   5.673   2.164   7.105 -0.0623  0.1065  0.4182
   28SAPC   H5R 3720   5.583   2.116   7.067  1.5753 -2.0885 -0.9280
   28SAPC   C26 3721   5.681   2.175   7.234 -0.2047  0.8525  0.3686
   28SAPC   H6R 3722   5.606   2.118   7.291 -1.5378  1.7555 -0.4456
   28SAPC   C27 3723   5.779   2.253   7.322 -0.4821  0.0751 -0.3316
   28SAPC   H7R 3724   5.868   2.284   7.262 -0.3874  1.2541  0.3805
   28SAPC   H7S 3725   5.826   2.192   7.402 -1.3261 -1.4928 -1.0065
   28SAPC   C28 3726   5.721   2.368   7.396 -0.3267 -0.0724  0.5104
   28SAPC   H8R 3727   5.698   2.460   7.340 -1.6465 -0.9394 -0.4306
   28SAPC   C29 3728   5.659   2.353   7.513 -0.9528  0.1565  0.1001
   28SAPC   H9R 3729   5.609   2.436   7.565 -0.2187  0.3610  0.4961
   28SAPC  C210 3730   5.665   2.232   7.606 -0.6769  0.5901 -0.0023
   28SAPC  H10R 3731   5.679   2.284   7.703 -1.2109  0.1441  0.3181
   28SAPC  H10S 3732   5.753   2.166   7.588 -2.5818 -2.2636  0.4178
   28SAPC  C211 3733   5.534   2.153   7.612 -0.2773  0.3259 -0.1171
   28SAPC  H11R 3734   5.474   2.150   7.519  0.3476 -1.0616 -0.5025
   28SAPC  C212 3735   5.489   2.095   7.726 -0.6404  0.8753  0.6800
   28SAPC  H12R 3736   5.397   2.036   7.728 -1.0306  1.4268 -0.3477
   28SAPC  C213 3737   5.576   2.081   7.849 -0.5697 -0.6268  0.2304
   28SAPC  H13R 3738   5.684   2.065   7.827 -0.3902 -1.4140  1.5595
   28SAPC  H13S 3739   5.549   1.988   7.905  1.9273 -1.2059  0.6000
   28SAPC  C214 3740   5.555   2.204   7.936 -0.4377 -0.0884  0.2810
   28SAPC  H14R 3741   5.523   2.291   7.876  1.4339 -0.0249 -0.6963
   28SAPC  C215 3742   5.552   2.215   8.070 -0.1914 -0.1131 -0.0391
   28SAPC  H15R 3743   5.538   2.312   8.121 -4.6250 -0.6838  0.2197
   28SAPC  C216 3744   5.596   2.100   8.148  0.1738 -0.5980  0.3029
   28SAPC  H16R 3745   5.645   2.142   8.238 -0.8261  0.2203  0.4820
   28SAPC  H16S 3746   5.673   2.041   8.094 -1.1824 -1.8494 -0.3495
   28SAPC  C217 3747   5.473   2.006   8.168  0.8837 -0.0330 -0.4046
   28SAPC  H17R 3748   5.510   1.902   8.178  0.9816 -0.1016 -1.3601
   28SAPC  H17S 3749   5.403   2.022   8.083  0.0072 -0.8965  0.1290
   28SAPC  C218 3750   5.404   2.039   8.305  1.0088  0.1206  0.0791
   28SAPC  H18R 3751   5.371   2.145   8.305 -0.2814 -0.2221  2.4574
   28SAPC  H18S 3752   5.478   2.034   8.388 -1.2186  0.2340  2.1511
   28SAPC  C219 3753   5.294   1.940   8.334 -0.1643 -0.1227  0.5942
   28SAPC  H19R 3754   5.333   1.836   8.335 -1.8279 -0.7915 -0.4346
   28SAPC  H19S 3755   5.214   1.949   8.257 -1.9515 -1.2441  2.2106
   28SAPC  C220 3756   5.234   1.963   8.471 -0.6226  0.5254 -0.4982
   28SAPC  H20R 3757   5.172   2.055   8.469 -0.2324  0.8188  0.2177
   28SAPC  H20S 3758   5.312   1.956   8.550 -0.3593 -1.2981 -0.8715
   28SAPC  H20T 3759   5.155   1.887   8.492 -1.3187  1.5500  0.7544
   28SAPC   C33 3760   5.123   2.297   7.083 -0.2812 -0.1301  0.7227
   28SAPC   H3X 3761   5.231   2.317   7.094  0.0721 -2.4661  2.2024
   28SAPC   H3Y 3762   5.120   2.186   7.084  0.4279 -0.1933 -1.3489
   28SAPC   C34 3763   5.054   2.355   7.206 -0.2434 -0.2647  0.1255
   28SAPC   H4X 3764   4.952   2.316   7.226 -0.9261  1.8825  1.2028
   28SAPC   H4Y 3765   5.037   2.464   7.191 -1.1589  0.1688  3.5547
   28SAPC   C35 3766   5.141   2.332   7.327 -0.8817 -0.3056 -0.5787
   28SAPC   H5X 3767   5.233   2.393   7.316 -1.8405  1.0232 -1.4655
   28SAPC   H5Y 3768   5.186   2.231   7.334  0.6445  0.4395  1.0120
   28SAPC   C36 3769   5.078   2.366   7.459  0.4152 -0.1995  1.2797
   28SAPC   H6X 3770   4.981   2.313   7.460 -0.1521  0.7786  0.3725
   28SAPC   H6Y 3771   5.058   2.475   7.454  0.1155 -0.2255  1.8555
   28SAPC   C37 3772   5.163   2.333   7.580 -0.0567  0.6605  0.6520
   28SAPC   H7X 3773   5.249   2.404   7.582  0.9296 -0.4923  2.5120
   28SAPC   H7Y 3774   5.207   2.231   7.579 -1.6911 -0.1538  2.7504
   28SAPC   C38 3775   5.089   2.351   7.718 -0.4483 -0.1623  0.5077
   28SAPC   H8X 3776   5.001   2.284   7.726  0.0791 -0.6834  2.3766
   28SAPC   H8Y 3777   5.059   2.458   7.720 -1.9329 -0.4565 -2.0907
   28SAPC   C39 3778   5.182   2.315   7.834  0.5187  0.0888  0.2979
   28SAPC   H9X 3779   5.273   2.378   7.821  1.2880 -0.6729  1.8299
   28SAPC   H9Y 3780   5.224   2.213   7.843  2.2184  0.8515  1.4653
   28SAPC  C310 3781   5.106   2.354   7.963 -0.2795  0.0018  0.3860
   28SAPC  H10X 3782   5.009   2.301   7.958 -2.0828  2.6900  3.3193
   28SAPC  H10Y 3783   5.090   2.464   7.964  1.5054  0.2955  0.0693
   28SAPC  C311 3784   5.181   2.298   8.086 -0.0708  0.4040 -0.6335
   28SAPC  H11X 3785   5.286   2.333   8.089  0.0076  0.3386 -1.9288
   28SAPC  H11Y 3786   5.184   2.188   8.076  2.1533  0.5482 -2.1412
   28SAPC  C312 3787   5.113   2.333   8.219  0.0285 -0.0738 -0.1467
   28SAPC  H12X 3788   5.163   2.274   8.299  1.2016  1.5326  0.3611
   28SAPC  H12Y 3789   5.009   2.298   8.235 -0.6695  1.4680 -1.0357
   28SAPC  C313 3790   5.115   2.483   8.263 -0.1172 -0.5081 -0.2080
   28SAPC  H13X 3791   5.054   2.494   8.355 -0.7230 -0.6456 -0.5883
   28SAPC  H13Y 3792   5.048   2.538   8.193 -0.4893 -1.8965 -0.9803
   28SAPC  C314 3793   5.246   2.564   8.238  0.1311  0.4263  0.1187
   28SAPC  H14X 3794   5.246   2.673   8.257 -0.5853  0.2601  1.1528
   28SAPC  H14Y 3795   5.273   2.559   8.131  1.8924  0.5079  0.5159
   28SAPC  C315 3796   5.371   2.511   8.306  0.4529 -0.1450 -0.2282
   28SAPC  H15X 3797   5.401   2.409   8.276  1.5815 -0.7240  2.6062
   28SAPC  H15Y 3798   5.355   2.526   8.415 -0.9902 -2.5491 -0.0533
   28SAPC  C316 3799   5.481   2.608   8.264  0.2323  0.5556 -0.1015
   28SAPC  H16X 3800   5.438   2.706   8.293 -4.4464 -1.2543  0.0269
   28SAPC  H16Y 3801   5.510   2.600   8.157  0.8568  0.5981  0.0626
   28SAPC  C317 3802   5.613   2.576   8.335 -0.3598  0.4757 -0.6188
   28SAPC  H17X 3803   5.668   2.505   8.271 -0.2388  0.1671 -0.1787
   28SAPC  H17Y 3804   5.606   2.537   8.439 -0.5096 -1.8799 -1.4614
   28SAPC  C318 3805   5.698   2.703   8.357 -0.6863 -0.2565  0.3784
   28SAPC  H18X 3806   5.793   2.678   8.410  0.0635  0.2749 -0.6644
   28SAPC  H18Y 3807   5.638   2.779   8.411 -1.1570 -0.6613  0.4252
   28SAPC  H18Z 3808   5.740   2.737   8.260  0.6107  0.3958  1.1346
   29SAPC     N 3809   1.908   6.062   6.368  0.3958 -0.1073  0.1655
   29SAPC   C12 3810   2.021   5.992   6.438  0.1810 -0.6321 -0.0397
   29SAPC  H12A 3811   2.000   6.004   6.544 -0.7156  2.3174 -0.4634
   29SAPC  H12B 3812   2.112   6.046   6.417 -0.3305  0.1974 -0.1449
   29SAPC   C13 3813   1.946   6.066   6.216  0.0543  0.0761  0.0269
   29SAPC  H13A 3814   2.026   6.139   6.211 -0.3294  0.4189 -1.5437
   29SAPC  H13B 3815   1.978   5.975   6.167  1.0876  1.4123 -1.8967
   29SAPC  H13C 3816   1.867   6.111   6.158 -1.0354 -1.6318  0.1180
   29SAPC   C14 3817   1.779   5.990   6.387  0.5458  0.1137  0.5701
   29SAPC  H14A 3818   1.788   5.885   6.363  1.3196  0.7117 -1.9953
   29SAPC  H14B 3819   1.745   5.982   6.489 -1.1173 -0.4249 -0.0017
   29SAPC  H14C 3820   1.700   6.025   6.322  0.1216 -0.2405  0.8864
   29SAPC   C15 3821   1.885   6.206   6.420  0.1207  0.3795 -1.2814
   29SAPC  H15A 3822   1.978   6.257   6.435 -1.2101  2.1276  2.3849
   29SAPC  H15B 3823   1.824   6.258   6.348 -0.1089  0.1896 -1.2256
   29SAPC  H15C 3824   1.838   6.205   6.518  1.5084  3.4168 -0.4821
   29SAPC   C11 3825   2.029   5.836   6.432 -0.3881 -0.4946 -0.2674
   29SAPC  H11A 3826   1.951   5.797   6.501  0.7885 -0.0676  1.3593
   29SAPC  H11B 3827   2.123   5.800   6.480 -0.6070  1.5715  1.8807
   29SAPC     P 3828   1.949   5.668   6.248  0.5333  0.3934  0.2832
   29SAPC   O13 3829   1.806   5.682   6.286 -0.3367  0.5055  0.2838
   29SAPC   O14 3830   1.981   5.664   6.102 -0.1342  0.1212  0.1715
   29SAPC   O12 3831   2.028   5.786   6.298 -0.9389  0.1279 -0.3072
   29SAPC   O11 3832   2.004   5.534   6.309 -0.1808  0.2029 -0.3633
   29SAPC    C1 3833   2.149   5.514   6.315 -0.1257  0.4586  0.0382
   29SAPC    HA 3834   2.170   5.445   6.230 -0.8633 -0.4807  0.5885
   29SAPC    HB 3835   2.203   5.610   6.301 -1.2050  1.1393  0.3557
   29SAPC    C2 3836   2.189   5.463   6.451  0.0372  0.8575 -0.8698
   29SAPC    HS 3837   2.145   5.364   6.471  2.1156 -0.1955 -1.2083
   29SAPC   O21 3838   2.146   5.559   6.548 -0.0668 -0.2779  0.0329
   29SAPC   C21 3839   2.109   5.517   6.666  0.1012 -0.6938 -0.9395
   29SAPC   O22 3840   2.098   5.403   6.706 -0.3560 -0.2576  0.7208
   29SAPC   C22 3841   2.080   5.635   6.759 -0.5603  0.6639 -0.3828
   29SAPC   H2R 3842   2.158   5.712   6.741  1.5403 -1.3582 -0.2952
   29SAPC   H2S 3843   1.978   5.677   6.742 -1.1593 -0.4645  0.3416
   29SAPC    C3 3844   2.346   5.441   6.457 -0.0991 -1.4252  0.8570
   29SAPC    HX 3845   2.398   5.528   6.411 -0.1917 -0.8225  1.8604
   29SAPC    HY 3846   2.361   5.351   6.394 -0.0163 -1.2828  0.6711
   29SAPC   O31 3847   2.405   5.430   6.584  0.1918  0.2589  0.5155
   29SAPC   C31 3848   2.387   5.318   6.648  0.4239 -0.1712 -0.6032
   29SAPC   O32 3849   2.354   5.215   6.589 -0.0925 -0.1628  0.0283
   29SAPC   C32 3850   2.435   5.336   6.791  1.0878  0.1044 -0.3128
   29SAPC   H2X 3851   2.357   5.397   6.841  0.3462  0.9555 -2.3820
   29SAPC   H2Y 3852   2.536   5.383   6.784  0.6258  0.8657 -3.1076
   29SAPC   C23 3853   2.090   5.590   6.903 -0.6941  0.3901 -0.0034
   29SAPC   H3R 3854   2.183   5.532   6.915 -1.4387 -0.9604 -0.5080
   29SAPC   H3S 3855   2.009   5.514   6.914  0.4668 -0.9249 -0.3826
   29SAPC   C24 3856   2.097   5.699   7.010 -0.3849  0.1093 -0.2067
   29SAPC   H4R 3857   2.082   5.649   7.108 -1.2808  2.0406  0.7015
   29SAPC   H4S 3858   2.012   5.768   6.988 -0.7026  0.4013  1.7538
   29SAPC   C25 3859   2.224   5.785   7.009 -0.6647  0.1841  1.1498
   29SAPC   H5R 3860   2.234   5.839   6.913  2.0073 -1.3563  0.4582
   29SAPC   C26 3861   2.331   5.790   7.087 -0.2090  0.2005  0.2653
   29SAPC   H6R 3862   2.424   5.844   7.063  1.5166 -1.7002  2.2190
   29SAPC   C27 3863   2.344   5.700   7.210 -0.0873 -0.1641 -0.1890
   29SAPC   H7R 3864   2.382   5.602   7.174  1.3205  0.4566 -0.4597
   29SAPC   H7S 3865   2.249   5.690   7.267 -1.0511  0.5108 -1.6193
   29SAPC   C28 3866   2.437   5.757   7.320  0.1524 -0.1705  0.5879
   29SAPC   H8R 3867   2.530   5.702   7.339  0.9206  1.5920  2.1151
   29SAPC   C29 3868   2.416   5.860   7.405  0.0803 -0.4392 -0.0903
   29SAPC   H9R 3869   2.493   5.894   7.476  1.1113 -1.6066 -0.6119
   29SAPC  C210 3870   2.287   5.939   7.426 -0.1141  0.6805 -0.1569
   29SAPC  H10R 3871   2.201   5.884   7.470  0.7707 -0.7530 -0.1553
   29SAPC  H10S 3872   2.251   5.986   7.332  1.3452  0.3511 -0.9077
   29SAPC  C211 3873   2.300   6.047   7.532  0.3456  0.1939 -0.0557
   29SAPC  H11R 3874   2.295   6.149   7.491 -1.3331  0.9102  1.7388
   29SAPC  C212 3875   2.321   6.027   7.666  0.0320  0.3602  0.3692
   29SAPC  H12R 3876   2.310   6.113   7.733  0.4542  2.1258 -1.7082
   29SAPC  C213 3877   2.322   5.887   7.728  0.3405  0.7816 -0.4552
   29SAPC  H13R 3878   2.364   5.809   7.661 -3.1713 -1.5829 -0.2025
   29SAPC  H13S 3879   2.217   5.852   7.742  0.6612  0.0447  0.2092
   29SAPC  C214 3880   2.389   5.885   7.862  0.2157 -0.8727  0.1660
   29SAPC  H14R 3881   2.498   5.883   7.850  0.3089  1.6230  0.1794
   29SAPC  C215 3882   2.335   5.867   7.986  0.1967 -0.0929  0.5043
   29SAPC  H15R 3883   2.399   5.867   8.076  1.5658  0.9798 -0.4345
   29SAPC  C216 3884   2.187   5.846   8.005 -0.1843  0.3371 -0.3833
   29SAPC  H16R 3885   2.142   5.792   7.919  0.0574 -0.6764  0.1124
   29SAPC  H16S 3886   2.133   5.942   8.021 -0.9312  0.0221 -0.9493
   29SAPC  C217 3887   2.165   5.757   8.133 -0.0447 -0.4970  0.8535
   29SAPC  H17R 3888   2.210   5.656   8.128 -2.2685 -1.5047 -1.6667
   29SAPC  H17S 3889   2.055   5.746   8.139 -0.0645  0.2755  2.2760
   29SAPC  C218 3890   2.205   5.818   8.270 -0.1611 -0.1590 -0.0620
   29SAPC  H18R 3891   2.148   5.913   8.276 -1.4468 -0.9913  1.8562
   29SAPC  H18S 3892   2.311   5.853   8.272 -0.0892 -0.0147 -2.7290
   29SAPC  C219 3893   2.173   5.737   8.389  0.2401  0.3842  0.0928
   29SAPC  H19R 3894   2.226   5.639   8.379 -0.7635 -0.0341 -1.3740
   29SAPC  H19S 3895   2.065   5.713   8.384  0.5314 -0.9820 -0.1768
   29SAPC  C220 3896   2.216   5.807   8.510 -0.5385  0.3055  0.2531
   29SAPC  H20R 3897   2.318   5.848   8.496 -0.3867 -0.1860 -0.0772
   29SAPC  H20S 3898   2.212   5.736   8.595  0.0347  1.7792  1.5728
   29SAPC  H20T 3899   2.153   5.897   8.531  1.4762  1.4074  2.1326
   29SAPC   C33 3900   2.458   5.206   6.863  0.6029  0.4974 -0.0082
   29SAPC   H3X 3901   2.503   5.133   6.793 -1.5764  0.0471 -1.0360
   29SAPC   H3Y 3902   2.355   5.188   6.901  1.6106  1.1168  3.3789
   29SAPC   C34 3903   2.547   5.219   6.997  0.3660 -0.5338 -0.0824
   29SAPC   H4X 3904   2.645   5.263   6.967  0.0580  1.1991  1.3488
   29SAPC   H4Y 3905   2.558   5.110   7.018  0.3480 -0.4080  0.5742
   29SAPC   C35 3906   2.479   5.285   7.114 -0.2186 -0.1831 -0.0352
   29SAPC   H5X 3907   2.378   5.238   7.117  0.2080 -1.1707 -0.7991
   29SAPC   H5Y 3908   2.479   5.396   7.103  1.1955 -0.0014  1.3624
   29SAPC   C36 3909   2.539   5.251   7.251 -0.6329 -0.1350 -0.2034
   29SAPC   H6X 3910   2.645   5.285   7.251  0.5929 -3.4887 -1.5994
   29SAPC   H6Y 3911   2.553   5.142   7.264  2.9717  0.2609  0.3798
   29SAPC   C37 3912   2.460   5.293   7.368  0.2772 -0.5696 -0.3824
   29SAPC   H7X 3913   2.358   5.250   7.380 -0.2308  0.1534 -1.9303
   29SAPC   H7Y 3914   2.446   5.402   7.385 -3.5270 -1.2963  2.9678
   29SAPC   C38 3915   2.532   5.252   7.502  0.3169 -0.4812  0.3660
   29SAPC   H8X 3916   2.635   5.290   7.486 -0.1686 -0.0481 -2.3519
   29SAPC   H8Y 3917   2.530   5.141   7.511  0.8868 -0.6136 -0.8358
   29SAPC   C39 3918   2.474   5.331   7.616  0.8175  0.1065  0.2028
   29SAPC   H9X 3919   2.364   5.322   7.628  0.5555  0.0607 -1.8893
   29SAPC   H9Y 3920   2.478   5.441   7.604  0.3076 -0.0952 -2.4323
   29SAPC  C310 3921   2.550   5.294   7.742  0.0660  0.7946 -0.0225
   29SAPC  H10X 3922   2.653   5.336   7.739  0.6923 -0.4905  1.6817
   29SAPC  H10Y 3923   2.566   5.184   7.749 -1.0198  0.6388  0.1431
   29SAPC  C311 3924   2.482   5.338   7.871  0.4811 -0.3062  0.3420
   29SAPC  H11X 3925   2.393   5.272   7.885  0.8762 -0.8072  0.5326
   29SAPC  H11Y 3926   2.437   5.437   7.852 -1.2316 -1.1114 -0.0140
   29SAPC  C312 3927   2.572   5.341   8.003 -0.3530 -1.4424  0.4580
   29SAPC  H12X 3928   2.656   5.413   8.006 -1.7498  0.2429  0.7184
   29SAPC  H12Y 3929   2.597   5.233   8.014 -3.1761 -2.1885  0.3425
   29SAPC  C313 3930   2.486   5.374   8.127  0.5378 -0.1399 -0.7367
   29SAPC  H13X 3931   2.392   5.315   8.121  0.0261  0.4929  0.4875
   29SAPC  H13Y 3932   2.442   5.476   8.123 -3.4713 -1.6580 -0.3920
   29SAPC  C314 3933   2.555   5.353   8.265 -0.5437 -0.1651  0.2598
   29SAPC  H14X 3934   2.644   5.419   8.263 -1.1018  0.5912 -0.9439
   29SAPC  H14Y 3935   2.595   5.250   8.260 -1.9712 -0.7120 -0.5483
   29SAPC  C315 3936   2.477   5.387   8.386  0.2869  0.5924 -0.2118
   29SAPC  H15X 3937   2.386   5.324   8.399  1.2675 -1.1778 -1.4180
   29SAPC  H15Y 3938   2.443   5.492   8.381 -0.2006  0.4534  0.1136
   29SAPC  C316 3939   2.561   5.371   8.516 -0.1336 -0.3423  0.1355
   29SAPC  H16X 3940   2.506   5.422   8.598 -0.9051 -0.4242 -0.3241
   29SAPC  H16Y 3941   2.654   5.427   8.492 -0.3902  0.9348  1.9379
   29SAPC  C317 3942   2.586   5.230   8.565 -0.3542  0.1315  0.3396
   29SAPC  H17X 3943   2.644   5.177   8.486  1.8143  0.6104  1.5323
   29SAPC  H17Y 3944   2.488   5.183   8.589 -0.5855 -0.2706 -1.2460
   29SAPC  C318 3945   2.673   5.223   8.691  0.6186 -0.2433 -0.5166
   29SAPC  H18X 3946   2.636   5.304   8.757 -1.2054  0.0762 -1.8299
   29SAPC  H18Y 3947   2.780   5.244   8.673  0.1789  0.6731 -2.4505
   29SAPC  H18Z 3948   2.654   5.127   8.743 -1.7143  1.2042  1.5122
   30SAPC     N 3949   3.052   5.775   5.933  0.1678 -0.3145 -0.1962
   30SAPC   C12 3950   2.997   5.748   6.076  0.0958  0.0637  0.5401
   30SAPC  H12A 3951   3.047   5.654   6.093 -0.1866 -0.2027 -0.0799
   30SAPC  H12B 3952   2.890   5.736   6.069  0.0425  1.3777 -2.9906
   30SAPC   C13 3953   3.005   5.670   5.846 -0.3545 -0.2524 -0.1335
   30SAPC  H13A 3954   2.902   5.679   5.814 -0.3606  0.4421  0.0840
   30SAPC  H13B 3955   3.057   5.663   5.752 -0.3505 -2.1402 -0.0414
   30SAPC  H13C 3956   3.038   5.577   5.891  0.4552  0.5570  0.9988
   30SAPC   C14 3957   3.015   5.912   5.880  0.0434 -0.0228  0.0435
   30SAPC  H14A 3958   2.908   5.915   5.864  0.0415  1.0008  0.2008
   30SAPC  H14B 3959   3.029   5.987   5.957  3.5490  0.0261 -0.4688
   30SAPC  H14C 3960   3.066   5.939   5.788  0.0481 -3.8298 -1.2746
   30SAPC   C15 3961   3.201   5.752   5.947  0.0630  0.1215 -0.2849
   30SAPC  H15A 3962   3.225   5.651   5.979 -1.9907 -0.6495 -0.9882
   30SAPC  H15B 3963   3.261   5.765   5.858  0.4469  1.3183  0.1350
   30SAPC  H15C 3964   3.235   5.820   6.023  0.2771  0.2051 -0.4550
   30SAPC   C11 3965   3.028   5.848   6.192 -0.7171 -0.1630  0.6026
   30SAPC  H11A 3966   3.135   5.851   6.224 -0.8024  0.8728  0.8212
   30SAPC  H11B 3967   2.980   5.803   6.282 -0.7920 -0.3884  0.4497
   30SAPC     P 3968   2.870   6.064   6.211 -0.2503  0.0762  0.0975
   30SAPC   O13 3969   2.881   6.198   6.149 -1.0680 -0.1424  0.6372
   30SAPC   O14 3970   2.749   5.981   6.167  0.5757 -0.1838 -0.2530
   30SAPC   O12 3971   2.996   5.983   6.170 -0.0196 -0.7635  0.1953
   30SAPC   O11 3972   2.869   6.069   6.365 -0.7860 -0.1673  0.0235
   30SAPC    C1 3973   2.990   6.086   6.441 -0.4282 -0.2995  0.3215
   30SAPC    HA 3974   3.075   6.107   6.373 -0.8862 -0.4766 -0.3061
   30SAPC    HB 3975   2.975   6.183   6.493 -0.8247 -0.1931  0.0167
   30SAPC    C2 3976   3.018   5.969   6.537  0.1768 -0.0883 -0.4828
   30SAPC    HS 3977   3.027   5.871   6.485 -2.0039 -1.3847  1.3917
   30SAPC   O21 3978   2.905   5.962   6.638 -0.3059 -0.0944  0.3929
   30SAPC   C21 3979   2.822   5.863   6.622  0.0534 -0.1024 -0.6777
   30SAPC   O22 3980   2.822   5.781   6.530 -0.1900 -0.3176 -0.2353
   30SAPC   C22 3981   2.715   5.860   6.730  0.6108  0.9094 -0.2635
   30SAPC   H2R 3982   2.747   5.925   6.814  1.7184  0.5159 -0.3650
   30SAPC   H2S 3983   2.617   5.897   6.693  1.0236  0.7078 -1.6169
   30SAPC    C3 3984   3.158   5.991   6.610  0.1655 -0.3008 -0.0643
   30SAPC    HX 3985   3.136   6.082   6.670  0.5188 -1.5782  2.0961
   30SAPC    HY 3986   3.244   6.003   6.541 -0.2823 -0.0968 -0.5914
   30SAPC   O31 3987   3.190   5.876   6.698  0.5884 -0.1913 -0.1988
   30SAPC   C31 3988   3.225   5.764   6.636 -0.9129 -1.0356 -0.0186
   30SAPC   O32 3989   3.224   5.741   6.518  0.2784 -0.1947  0.5440
   30SAPC   C32 3990   3.266   5.666   6.737  0.1711 -0.5436 -0.6260
   30SAPC   H2X 3991   3.189   5.667   6.817 -0.4898 -0.6493 -1.2490
   30SAPC   H2Y 3992   3.372   5.686   6.761  0.4837 -0.7703 -1.7338
   30SAPC   C23 3993   2.702   5.717   6.796  0.0205  0.0713 -0.1962
   30SAPC   H3R 3994   2.671   5.647   6.716 -0.8988  0.0045  0.2107
   30SAPC   H3S 3995   2.640   5.704   6.887  2.4121 -2.1890  1.2679
   30SAPC   C24 3996   2.841   5.672   6.835  0.3460  0.6504 -0.3367
   30SAPC   H4R 3997   2.887   5.734   6.915  1.3103 -0.8557  0.3273
   30SAPC   H4S 3998   2.909   5.664   6.748  1.2368 -0.2205  0.4167
   30SAPC   C25 3999   2.838   5.532   6.881  0.6272 -0.1639 -0.4137
   30SAPC   H5R 4000   2.797   5.460   6.808 -1.3943 -0.7099  1.1580
   30SAPC   C26 4001   2.873   5.487   7.005 -0.0576  0.4781  0.1052
   30SAPC   H6R 4002   2.890   5.379   7.018 -0.7164  0.5978  2.4526
   30SAPC   C27 4003   2.923   5.554   7.124 -0.1617  0.4055  0.0009
   30SAPC   H7R 4004   2.971   5.649   7.093  1.4347 -1.0320 -2.2043
   30SAPC   H7S 4005   3.012   5.506   7.169  0.4549  0.9477 -0.6121
   30SAPC   C28 4006   2.823   5.581   7.226 -0.0647 -0.4692 -0.4004
   30SAPC   H8R 4007   2.743   5.644   7.184  1.0631  0.5242 -1.1158
   30SAPC   C29 4008   2.818   5.532   7.352  0.0265 -0.1752  1.3042
   30SAPC   H9R 4009   2.744   5.562   7.428 -1.4632 -1.5813  0.4821
   30SAPC  C210 4010   2.915   5.437   7.408 -1.1214 -0.3552  0.0583
   30SAPC  H10R 4011   2.971   5.382   7.328  0.7033 -2.7471  2.7665
   30SAPC  H10S 4012   2.863   5.351   7.455 -1.0038  0.6851  2.1749
   30SAPC  C211 4013   3.021   5.517   7.486  0.4981  0.5186 -0.5617
   30SAPC  H11R 4014   3.113   5.533   7.429  1.5662  2.5457  1.5694
   30SAPC  C212 4015   3.017   5.547   7.616  0.3196 -0.0175 -0.5869
   30SAPC  H12R 4016   3.101   5.603   7.660  2.2547 -1.7662 -1.8565
   30SAPC  C213 4017   2.908   5.514   7.720 -0.7880  0.2516  0.3055
   30SAPC  H13R 4018   2.917   5.407   7.745 -0.5718  0.6869  2.2352
   30SAPC  H13S 4019   2.807   5.538   7.679  0.0044  0.4634 -1.6176
   30SAPC  C214 4020   2.930   5.583   7.855 -0.4913  0.0236 -0.4632
   30SAPC  H14R 4021   2.856   5.663   7.870  2.5546  3.4870 -2.3140
   30SAPC  C215 4022   3.010   5.554   7.952  0.4210 -0.2321 -0.1484
   30SAPC  H15R 4023   2.997   5.599   8.051 -2.8725  1.7902 -1.3394
   30SAPC  C216 4024   3.112   5.445   7.949 -0.2616  0.1778 -0.3847
   30SAPC  H16R 4025   3.206   5.481   7.996  0.1770 -0.5913 -0.6479
   30SAPC  H16S 4026   3.139   5.409   7.847 -1.8083 -0.5617 -0.5600
   30SAPC  C217 4027   3.076   5.320   8.032  0.4537  1.3679 -0.6318
   30SAPC  H17R 4028   3.152   5.242   8.008  1.1209  1.9772 -0.5260
   30SAPC  H17S 4029   2.978   5.280   7.999 -0.0150 -0.1206  2.2413
   30SAPC  C218 4030   3.062   5.337   8.181 -0.7101  0.3336 -0.1278
   30SAPC  H18R 4031   3.004   5.429   8.203 -0.2901  0.1583  1.9570
   30SAPC  H18S 4032   3.163   5.348   8.226 -0.5214  0.1301 -0.5037
   30SAPC  C219 4033   2.984   5.221   8.236 -0.6760  0.2154  0.0267
   30SAPC  H19R 4034   3.030   5.123   8.210 -3.2425 -1.2060  0.5286
   30SAPC  H19S 4035   2.879   5.230   8.200 -0.0434  1.7086 -1.5876
   30SAPC  C220 4036   2.972   5.210   8.387  0.2445  0.4572  0.0784
   30SAPC  H20R 4037   2.921   5.303   8.421  0.1584  0.3714  0.1847
   30SAPC  H20S 4038   3.072   5.210   8.437  0.3095 -0.8418 -0.0105
   30SAPC  H20T 4039   2.913   5.125   8.427  1.2868 -0.3914 -0.1413
   30SAPC   C33 4040   3.270   5.528   6.690  0.2050 -0.6021  0.1371
   30SAPC   H3X 4041   3.308   5.532   6.586 -0.5445  0.0969 -0.1271
   30SAPC   H3Y 4042   3.172   5.482   6.666  0.7795 -1.1352 -1.2495
   30SAPC   C34 4043   3.351   5.440   6.781  0.4048 -0.2190  0.1886
   30SAPC   H4X 4044   3.459   5.466   6.772  0.5712 -1.0640 -0.4408
   30SAPC   H4Y 4045   3.339   5.337   6.741  1.8255 -0.1706 -0.4452
   30SAPC   C35 4046   3.303   5.453   6.922 -0.1934  0.2864  0.0439
   30SAPC   H5X 4047   3.203   5.405   6.914  0.7220 -1.9360  1.1482
   30SAPC   H5Y 4048   3.293   5.552   6.971  0.2627 -0.5575  1.9111
   30SAPC   C36 4049   3.381   5.367   7.034 -0.4774  0.7480 -0.1487
   30SAPC   H6X 4050   3.487   5.399   7.025 -0.2641 -0.1126 -0.6868
   30SAPC   H6Y 4051   3.359   5.260   7.015 -0.7284  1.2408 -2.9762
   30SAPC   C37 4052   3.346   5.412   7.172 -0.0267 -0.2650 -0.2652
   30SAPC   H7X 4053   3.243   5.378   7.195  0.5044 -2.9819 -1.5375
   30SAPC   H7Y 4054   3.340   5.523   7.177  2.1355 -0.1365  4.2070
   30SAPC   C38 4055   3.449   5.352   7.281 -0.1141  0.0719  0.0042
   30SAPC   H8X 4056   3.550   5.393   7.264  0.8859 -2.1760  0.2563
   30SAPC   H8Y 4057   3.469   5.245   7.262  2.7839  0.5649 -0.0669
   30SAPC   C39 4058   3.406   5.365   7.426  0.5283  0.5588  0.2665
   30SAPC   H9X 4059   3.311   5.309   7.437 -1.3829  3.3652 -0.5985
   30SAPC   H9Y 4060   3.382   5.468   7.460  1.6397  0.2662  2.0511
   30SAPC  C310 4061   3.500   5.315   7.534 -0.0091 -0.4300  0.1585
   30SAPC  H10X 4062   3.604   5.349   7.515 -0.1273  0.5206  1.1508
   30SAPC  H10Y 4063   3.516   5.206   7.549 -1.8607 -0.7299  0.1757
   30SAPC  C311 4064   3.453   5.356   7.678  0.4346 -1.0072 -0.1021
   30SAPC  H11X 4065   3.344   5.335   7.687  0.4034 -0.9737 -0.3757
   30SAPC  H11Y 4066   3.468   5.466   7.681  1.3250 -1.0980 -0.7182
   30SAPC  C312 4067   3.520   5.288   7.790 -0.2775 -0.3580  0.2618
   30SAPC  H12X 4068   3.629   5.313   7.795 -0.4615  0.4361  0.5402
   30SAPC  H12Y 4069   3.507   5.178   7.780  1.4613 -0.6633  0.9686
   30SAPC  C313 4070   3.450   5.327   7.919  0.4373 -0.4726  0.1439
   30SAPC  H13X 4071   3.353   5.272   7.912 -0.7613  1.3962  1.1843
   30SAPC  H13Y 4072   3.429   5.436   7.927  2.1407 -0.1951  1.1508
   30SAPC  C314 4073   3.516   5.270   8.047  0.6534 -0.0487  0.2109
   30SAPC  H14X 4074   3.622   5.301   8.060  0.2548  0.5669  2.5090
   30SAPC  H14Y 4075   3.519   5.160   8.039 -0.5305 -0.0705 -0.1933
   30SAPC  C315 4076   3.421   5.307   8.158 -0.4622 -0.4875 -0.6959
   30SAPC  H15X 4077   3.321   5.258   8.149 -0.8185 -0.7909  3.1548
   30SAPC  H15Y 4078   3.403   5.416   8.165  0.9971 -0.1973 -1.1143
   30SAPC  C316 4079   3.473   5.255   8.297  0.3509  0.3885 -0.4899
   30SAPC  H16X 4080   3.539   5.332   8.340  0.3446 -0.0173  0.2832
   30SAPC  H16Y 4081   3.520   5.154   8.291 -0.4096 -0.2000  1.9761
   30SAPC  C317 4082   3.354   5.231   8.383 -0.0043 -0.0857  0.2122
   30SAPC  H17X 4083   3.275   5.181   8.322 -0.0041  1.8723 -1.5284
   30SAPC  H17Y 4084   3.300   5.320   8.421 -0.5570 -0.7462  1.0214
   30SAPC  C318 4085   3.383   5.140   8.503  0.0494 -0.1227 -0.0693
   30SAPC  H18X 4086   3.444   5.052   8.474 -0.0865 -0.5921  1.0222
   30SAPC  H18Y 4087   3.291   5.104   8.555  0.8529  0.5280  1.8834
   30SAPC  H18Z 4088   3.444   5.193   8.579 -1.2572 -0.4826  1.2832
   31SAPC     N 4089   5.072   6.090   6.298  1.4849 -0.1889 -0.0536
   31SAPC   C12 4090   5.055   5.998   6.414  0.3456  0.1903 -0.3434
   31SAPC  H12A 4091   5.080   6.047   6.506  0.7597 -0.7525  0.0580
   31SAPC  H12B 4092   5.131   5.922   6.406 -0.4292 -0.7209  0.7708
   31SAPC   C13 4093   5.032   6.032   6.167  0.3208  0.8810 -0.4064
   31SAPC  H13A 4094   4.937   5.984   6.181  0.2422  1.3632  0.8985
   31SAPC  H13B 4095   5.016   6.117   6.102 -0.5482  0.5880 -0.5834
   31SAPC  H13C 4096   5.108   5.965   6.130 -0.8181 -0.4957 -0.3237
   31SAPC   C14 4097   4.975   6.214   6.327  0.9101  0.1549  0.3774
   31SAPC  H14A 4098   5.006   6.277   6.409  0.9879  1.3736 -0.5594
   31SAPC  H14B 4099   4.971   6.280   6.242  1.6086 -1.1015 -0.6775
   31SAPC  H14C 4100   4.875   6.190   6.359  0.9276 -0.0341  0.2917
   31SAPC   C15 4101   5.213   6.150   6.282  0.7580  0.2002  0.4984
   31SAPC  H15A 4102   5.280   6.066   6.276  1.0586  0.5428 -2.6480
   31SAPC  H15B 4103   5.225   6.215   6.196  0.8486 -0.0574  0.3156
   31SAPC  H15C 4104   5.241   6.215   6.363  1.1806  2.2958 -1.2171
   31SAPC   C11 4105   4.916   5.928   6.435 -0.4036  0.3157  0.0710
   31SAPC  H11A 4106   4.836   6.005   6.432  1.3553  2.1957 -0.2438
   31SAPC  H11B 4107   4.907   5.874   6.532 -0.0318 -2.0070 -1.1117
   31SAPC     P 4108   4.969   5.690   6.332  0.1812  0.2757 -0.2069
   31SAPC   O13 4109   4.928   5.601   6.219  0.4828  0.4897 -0.1577
   31SAPC   O14 4110   5.116   5.702   6.356  0.2414  0.1155 -0.0154
   31SAPC   O12 4111   4.890   5.828   6.329 -0.3173 -0.6145 -0.4094
   31SAPC   O11 4112   4.916   5.626   6.467  0.2083 -0.4191  0.7792
   31SAPC    C1 4113   4.775   5.600   6.489  0.4799  0.1403  0.5119
   31SAPC    HA 4114   4.734   5.679   6.555 -1.6915  1.8925 -2.6813
   31SAPC    HB 4115   4.727   5.591   6.389  2.3304  0.0547 -0.3985
   31SAPC    C2 4116   4.762   5.460   6.558  0.3368  0.9365 -0.5937
   31SAPC    HS 4117   4.655   5.428   6.551  0.5540  0.6031 -2.9523
   31SAPC   O21 4118   4.820   5.455   6.688 -0.1553  0.4801  0.2787
   31SAPC   C21 4119   4.746   5.494   6.782  0.5686  0.0572  0.0655
   31SAPC   O22 4120   4.643   5.559   6.778 -0.0186  0.1526  0.2557
   31SAPC   C22 4121   4.790   5.423   6.914  0.4718 -0.1941  0.5384
   31SAPC   H2R 4122   4.701   5.387   6.971  0.7467 -0.7373  0.6237
   31SAPC   H2S 4123   4.848   5.333   6.887 -0.2999 -0.0706 -1.7356
   31SAPC    C3 4124   4.836   5.345   6.481 -0.0294 -0.3298 -0.0196
   31SAPC    HX 4125   4.944   5.360   6.459 -0.2243 -1.9873 -2.6504
   31SAPC    HY 4126   4.782   5.336   6.384 -0.2918  1.5551 -0.0927
   31SAPC   O31 4127   4.807   5.222   6.544 -0.0216 -0.2592  0.0694
   31SAPC   C31 4128   4.892   5.190   6.635  0.2198  0.3094  0.2464
   31SAPC   O32 4129   4.990   5.253   6.673  0.0428  0.3269 -0.2140
   31SAPC   C32 4130   4.843   5.056   6.694 -0.3455 -0.0113 -0.8565
   31SAPC   H2X 4131   4.803   4.987   6.617 -0.7129 -0.3418 -0.3782
   31SAPC   H2Y 4132   4.760   5.085   6.763 -0.2784 -1.3231 -0.1984
   31SAPC   C23 4133   4.875   5.511   7.014  0.0983 -0.1725 -0.3799
   31SAPC   H3R 4134   4.805   5.585   7.057 -1.6165 -2.5265  1.1644
   31SAPC   H3S 4135   4.951   5.565   6.954  1.3099 -2.9938 -1.5846
   31SAPC   C24 4136   4.936   5.428   7.131 -0.5136 -0.7826  0.5774
   31SAPC   H4R 4137   4.992   5.495   7.200 -2.1453  1.2225  0.0703
   31SAPC   H4S 4138   4.994   5.348   7.081 -0.7915 -1.0359  0.6622
   31SAPC   C25 4139   4.834   5.367   7.219 -0.7398  0.8895  0.4706
   31SAPC   H5R 4140   4.802   5.266   7.189 -0.9341  1.0804  0.0305
   31SAPC   C26 4141   4.780   5.413   7.337  0.0429  0.3021 -0.1647
   31SAPC   H6R 4142   4.714   5.341   7.388  1.6352 -0.7659  0.4754
   31SAPC   C27 4143   4.806   5.549   7.394  0.6103  0.5237 -0.1164
   31SAPC   H7R 4144   4.845   5.620   7.319 -3.0718  1.6672 -1.1356
   31SAPC   H7S 4145   4.886   5.535   7.470  1.2461 -1.3193 -1.0681
   31SAPC   C28 4146   4.676   5.601   7.451  0.1699  0.0821  0.3272
   31SAPC   H8R 4147   4.610   5.641   7.373  1.8322 -0.7241 -1.5882
   31SAPC   C29 4148   4.637   5.589   7.580  0.4475  0.2482  0.3556
   31SAPC   H9R 4149   4.544   5.635   7.615 -0.6846  0.8349 -3.0633
   31SAPC  C210 4150   4.717   5.520   7.687  0.0319  0.4843 -0.2276
   31SAPC  H10R 4151   4.765   5.427   7.651  1.1753  0.8666  0.2692
   31SAPC  H10S 4152   4.641   5.504   7.766  0.7606  0.1331  0.4115
   31SAPC  C211 4153   4.820   5.621   7.742 -0.1669 -0.2266 -0.5415
   31SAPC  H11R 4154   4.898   5.660   7.676 -1.6771  1.8408 -1.2022
   31SAPC  C212 4155   4.823   5.656   7.874  0.1789 -0.8354 -0.1886
   31SAPC  H12R 4156   4.874   5.753   7.889 -1.3328  0.1645 -1.1467
   31SAPC  C213 4157   4.727   5.615   7.985 -0.3760  0.3839  0.1463
   31SAPC  H13R 4158   4.658   5.530   7.966 -1.4036  0.5807  2.6409
   31SAPC  H13S 4159   4.660   5.702   8.001  0.9094  0.9913  2.7327
   31SAPC  C214 4160   4.794   5.587   8.118  0.6018 -0.1742 -0.1855
   31SAPC  H14R 4161   4.762   5.647   8.205  0.7863  0.6888 -0.7032
   31SAPC  C215 4162   4.889   5.490   8.157  0.2033 -0.8125  1.0500
   31SAPC  H15R 4163   4.928   5.485   8.260  1.0646 -1.6741  0.6996
   31SAPC  C216 4164   4.948   5.388   8.065  0.0119 -0.3333 -0.0143
   31SAPC  H16R 4165   4.906   5.396   7.963  0.2451  0.4315 -0.0536
   31SAPC  H16S 4166   4.911   5.288   8.097 -2.4033 -0.2809 -2.2927
   31SAPC  C217 4167   5.103   5.389   8.044  0.6214  0.1158 -0.3156
   31SAPC  H17R 4168   5.140   5.287   8.064  2.2976  1.0064  1.4729
   31SAPC  H17S 4169   5.148   5.447   8.128 -0.2237 -0.1895  0.3643
   31SAPC  C218 4170   5.149   5.432   7.899  0.4202 -0.1952  0.2007
   31SAPC  H18R 4171   5.071   5.507   7.873 -2.1359 -1.8572  2.5716
   31SAPC  H18S 4172   5.132   5.349   7.827 -2.5650 -1.5205  2.2495
   31SAPC  C219 4173   5.286   5.481   7.890 -0.2714  0.0506  0.0624
   31SAPC  H19R 4174   5.358   5.419   7.946 -1.1535 -0.1400  1.0173
   31SAPC  H19S 4175   5.298   5.580   7.940 -0.4393  0.4903 -0.7551
   31SAPC  C220 4176   5.327   5.509   7.748  0.2961  0.4324  0.3699
   31SAPC  H20R 4177   5.431   5.549   7.756  0.7433  0.2849 -3.0496
   31SAPC  H20S 4178   5.263   5.582   7.695  1.2815  0.6309 -0.5822
   31SAPC  H20T 4179   5.326   5.418   7.684 -0.2204 -1.1999  2.5620
   31SAPC   C33 4180   4.952   4.987   6.778 -0.3966  0.4358  0.6795
   31SAPC   H3X 4181   5.012   5.057   6.839  1.4581 -0.4020 -0.1246
   31SAPC   H3Y 4182   5.025   4.939   6.710 -1.1147  2.5943 -1.7543
   31SAPC   C34 4183   4.882   4.884   6.874  0.2749 -0.4531 -0.4410
   31SAPC   H4X 4184   4.961   4.817   6.914  2.3510  1.2285 -1.5566
   31SAPC   H4Y 4185   4.829   4.814   6.806  3.2448 -2.2335 -1.1208
   31SAPC   C35 4186   4.796   4.949   6.988  0.2692  0.2601  0.5398
   31SAPC   H5X 4187   4.711   5.012   6.955 -0.4675  0.9782  3.5046
   31SAPC   H5Y 4188   4.845   5.025   7.052  1.9924 -1.3302  1.2370
   31SAPC   C36 4189   4.743   4.844   7.084  0.0629 -0.3968 -0.0974
   31SAPC   H6X 4190   4.795   4.747   7.072 -0.9605 -0.9806  0.0337
   31SAPC   H6Y 4191   4.637   4.843   7.051  0.4904  0.8952 -1.6493
   31SAPC   C37 4192   4.742   4.873   7.236  0.2674 -0.9107  0.7189
   31SAPC   H7X 4193   4.736   4.979   7.269  1.0052 -0.5542 -0.2723
   31SAPC   H7Y 4194   4.833   4.825   7.277  1.3031  0.2855 -0.1110
   31SAPC   C38 4195   4.610   4.816   7.291 -0.5424 -0.4555  0.6361
   31SAPC   H8X 4196   4.525   4.856   7.231 -0.5546  0.4136  1.2166
   31SAPC   H8Y 4197   4.590   4.865   7.389  0.0765  0.8764  0.1183
   31SAPC   C39 4198   4.604   4.666   7.295 -0.2294  0.2829  0.3865
   31SAPC   H9X 4199   4.677   4.627   7.369 -1.8751 -0.4432  1.6782
   31SAPC   H9Y 4200   4.643   4.628   7.198 -0.0408  1.9276 -0.2104
   31SAPC  C310 4201   4.459   4.620   7.326  0.0507 -0.3282  0.8485
   31SAPC  H10X 4202   4.454   4.509   7.326  1.4890 -0.4230  0.1306
   31SAPC  H10Y 4203   4.396   4.662   7.244  1.4855  3.2785  1.4295
   31SAPC  C311 4204   4.403   4.666   7.469 -0.2952 -0.3411 -0.7925
   31SAPC  H11X 4205   4.303   4.618   7.478 -0.8191  0.9111  0.3961
   31SAPC  H11Y 4206   4.392   4.776   7.464 -0.6688 -0.4191 -4.4263
   31SAPC  C312 4207   4.492   4.635   7.590 -0.3687  0.7496  0.1445
   31SAPC  H12X 4208   4.597   4.661   7.565  0.1095  0.4409  1.7297
   31SAPC  H12Y 4209   4.504   4.525   7.604 -1.7785  0.7741  1.8767
   31SAPC  C313 4210   4.447   4.691   7.720 -0.9243  0.4052 -0.0311
   31SAPC  H13X 4211   4.351   4.640   7.743 -0.7695  1.1732  2.6429
   31SAPC  H13Y 4212   4.429   4.801   7.710  0.5425  0.6519 -0.1402
   31SAPC  C314 4213   4.544   4.672   7.840 -0.5064  0.5865 -0.6422
   31SAPC  H14X 4214   4.640   4.717   7.806 -0.2942  0.8452  0.2554
   31SAPC  H14Y 4215   4.562   4.566   7.868  1.6397  1.5330  2.0560
   31SAPC  C315 4216   4.500   4.754   7.961  0.3719 -0.2926 -0.5593
   31SAPC  H15X 4217   4.395   4.731   7.987  0.7122 -1.9269 -0.4946
   31SAPC  H15Y 4218   4.503   4.862   7.934 -0.5665 -0.2013 -0.3065
   31SAPC  C316 4219   4.578   4.735   8.079 -0.6628  0.9386 -0.5607
   31SAPC  H16X 4220   4.671   4.787   8.051  0.6468 -1.5579 -1.1959
   31SAPC  H16Y 4221   4.620   4.632   8.082 -0.5008  1.0081 -0.3564
   31SAPC  C317 4222   4.511   4.783   8.208  0.0374  0.4087  0.0166
   31SAPC  H17X 4223   4.486   4.686   8.256  0.5418  0.2570 -0.0247
   31SAPC  H17Y 4224   4.411   4.828   8.193  0.8037  1.4827 -2.4966
   31SAPC  C318 4225   4.588   4.878   8.299 -0.2036 -0.4161  0.0269
   31SAPC  H18X 4226   4.691   4.838   8.314  1.2041  1.8344 -2.6019
   31SAPC  H18Y 4227   4.539   4.901   8.396 -1.9384 -0.3378 -0.8311
   31SAPC  H18Z 4228   4.622   4.976   8.259  0.5368 -1.0417 -0.9383
   32SAPC     N 4229   0.478   0.125   5.865 -0.1930 -0.1369 -0.0029
   32SAPC   C12 4230   0.460   0.209   5.987 -0.5390 -0.4573 -0.5098
   32SAPC  H12A 4231   0.530   0.291   5.984 -1.2426  0.1364 -0.8281
   32SAPC  H12B 4232   0.492   0.140   6.064  1.0124 -0.1320 -0.8396
   32SAPC   C13 4233   0.609   0.052   5.860 -0.0074  0.3838  0.4544
   32SAPC  H13A 4234   0.640   0.020   5.958  3.7462  1.2168 -0.3004
   32SAPC  H13B 4235   0.593  -0.021   5.782 -0.8255  0.6813  0.3357
   32SAPC  H13C 4236   0.683   0.119   5.819  0.0707  0.1705  0.2410
   32SAPC   C14 4237   0.375   0.018   5.854 -0.1382 -0.1638 -0.0956
   32SAPC  H14A 4238   0.274   0.056   5.845 -1.3347 -2.8309  0.9016
   32SAPC  H14B 4239   0.396  -0.053   5.776  1.7308 -1.2629  1.3335
   32SAPC  H14C 4240   0.368  -0.042   5.944 -2.5124  0.6951  0.3791
   32SAPC   C15 4241   0.473   0.226   5.755 -0.3699 -0.0638 -0.0879
   32SAPC  H15A 4242   0.564   0.283   5.744  0.0562 -0.7197 -0.0705
   32SAPC  H15B 4243   0.449   0.186   5.657  2.0433  1.8903 -1.6149
   32SAPC  H15C 4244   0.394   0.299   5.765  2.1808  3.6458 -3.8960
   32SAPC   C11 4245   0.322   0.267   6.015  0.1907 -0.2118 -0.2463
   32SAPC  H11A 4246   0.284   0.314   5.922 -1.8001  1.3941  1.2603
   32SAPC  H11B 4247   0.333   0.345   6.093 -0.6600  1.0920 -1.3796
   32SAPC     P 4248   0.222   0.097   6.189  0.0179 -0.2046 -0.2861
   32SAPC   O13 4249   0.098   0.016   6.189  0.2784 -0.3655 -0.5953
   32SAPC   O14 4250   0.347   0.015   6.192 -0.4295  0.8177 -0.6087
   32SAPC   O12 4251   0.228   0.175   6.062  0.4092  0.2100  0.2907
   32SAPC   O11 4252   0.219   0.215   6.299  0.1772 -0.0406 -0.5090
   32SAPC    C1 4253   0.339   0.238   6.373  0.7885  0.2998  0.4141
   32SAPC    HA 4254   0.426   0.178   6.339 -0.2018 -1.8140  1.3763
   32SAPC    HB 4255   0.372   0.342   6.354  0.7711  0.4181  0.9927
   32SAPC    C2 4256   0.313   0.232   6.527 -0.0503 -0.8771 -0.1262
   32SAPC    HS 4257   0.387   0.294   6.582  1.9629 -0.9483 -2.5433
   32SAPC   O21 4258   0.309   0.089   6.565  0.5856  0.3830 -0.1090
   32SAPC   C21 4259   0.426   0.044   6.590 -0.8128 -0.3745  0.0122
   32SAPC   O22 4260   0.533   0.102   6.565  0.0467 -0.2232  0.3701
   32SAPC   C22 4261   0.411  -0.076   6.676  0.0435  0.6005  0.2285
   32SAPC   H2R 4262   0.340  -0.148   6.629 -1.7434  1.3021  1.7162
   32SAPC   H2S 4263   0.510  -0.126   6.685 -0.4205 -0.2939  0.4948
   32SAPC    C3 4264   0.182   0.304   6.561  0.4141 -0.4469 -0.1112
   32SAPC    HX 4265   0.097   0.242   6.525  2.5836 -3.0479 -1.0714
   32SAPC    HY 4266   0.178   0.397   6.501 -4.0557  0.6271  1.4617
   32SAPC   O31 4267   0.165   0.326   6.708 -0.5476 -0.0544  0.1319
   32SAPC   C31 4268   0.129   0.450   6.735  0.5922 -0.0482 -0.1846
   32SAPC   O32 4269   0.097   0.542   6.662 -0.5717 -0.5672 -0.1626
   32SAPC   C32 4270   0.164   0.461   6.884 -0.5279 -0.5127  0.1457
   32SAPC   H2X 4271   0.275   0.466   6.886 -0.5819  0.5654  1.1435
   32SAPC   H2Y 4272   0.130   0.371   6.939  1.1679 -0.5877  1.1397
   32SAPC   C23 4273   0.347  -0.049   6.816  0.5341  0.5972  0.0742
   32SAPC   H3R 4274   0.321  -0.152   6.849  0.7559 -0.1136 -1.8468
   32SAPC   H3S 4275   0.253   0.009   6.801 -0.5323 -1.1245 -0.1881
   32SAPC   C24 4276   0.443   0.023   6.918  0.0904 -0.5692  0.2160
   32SAPC   H4R 4277   0.392   0.036   7.016  2.0262 -1.1430  1.3467
   32SAPC   H4S 4278   0.466   0.126   6.884 -0.9154 -0.4616 -0.1577
   32SAPC   C25 4279   0.567  -0.056   6.955  0.0310 -0.9503  0.3434
   32SAPC   H5R 4280   0.621  -0.093   6.867  2.1649  0.4832  0.9777
   32SAPC   C26 4281   0.611  -0.093   7.077  0.7062  0.3576  0.0716
   32SAPC   H6R 4282   0.700  -0.157   7.094  0.6036  0.8112  2.7473
   32SAPC   C27 4283   0.554  -0.052   7.204 -0.0370 -0.3406 -0.3159
   32SAPC   H7R 4284   0.540  -0.142   7.267  2.3728  0.3002  1.2948
   32SAPC   H7S 4285   0.452  -0.008   7.201  0.1070 -0.0405 -1.0389
   32SAPC   C28 4286   0.644   0.041   7.285  0.2600  0.2141  0.1685
   32SAPC   H8R 4287   0.639   0.149   7.264  1.0455  0.4612  1.1879
   32SAPC   C29 4288   0.722   0.007   7.389 -0.8667 -0.3328 -0.0103
   32SAPC   H9R 4289   0.781   0.088   7.433  2.5801 -2.2084 -0.8415
   32SAPC  C210 4290   0.761  -0.120   7.461 -0.6151  0.7340  0.1929
   32SAPC  H10R 4291   0.852  -0.147   7.403 -1.2122 -1.8750  0.3569
   32SAPC  H10S 4292   0.683  -0.198   7.448  0.8242 -0.8077  0.4516
   32SAPC  C211 4293   0.791  -0.113   7.613  0.6150 -0.8531  0.0006
   32SAPC  H11R 4294   0.845  -0.021   7.640  1.2508 -0.7738 -1.4843
   32SAPC  C212 4295   0.758  -0.210   7.701  0.3954  1.2159  0.6508
   32SAPC  H12R 4296   0.781  -0.195   7.808  1.3481 -0.0399  0.6448
   32SAPC  C213 4297   0.693  -0.345   7.665  0.2268 -0.4616  0.0115
   32SAPC  H13R 4298   0.752  -0.426   7.713  2.5372  0.4360 -1.1842
   32SAPC  H13S 4299   0.688  -0.371   7.557 -0.5915 -0.2428 -0.0090
   32SAPC  C214 4300   0.542  -0.337   7.701 -0.2579 -0.3148  0.5073
   32SAPC  H14R 4301   0.481  -0.275   7.633 -0.6029 -0.5911  0.5629
   32SAPC  C215 4302   0.485  -0.392   7.807  0.1038 -0.7213 -0.4473
   32SAPC  H15R 4303   0.378  -0.367   7.818  0.6575  2.4394 -1.4722
   32SAPC  C216 4304   0.550  -0.467   7.918  0.3030  0.3439  0.2168
   32SAPC  H16R 4305   0.650  -0.429   7.946  1.1509 -1.9182  0.4388
   32SAPC  H16S 4306   0.573  -0.571   7.886  0.6481  0.2474  0.7657
   32SAPC  C217 4307   0.460  -0.476   8.045 -0.3672  0.2162  0.1299
   32SAPC  H17R 4308   0.358  -0.501   8.008  0.4013 -2.5158 -0.3797
   32SAPC  H17S 4309   0.449  -0.374   8.089 -2.3272 -0.2065  0.7330
   32SAPC  C218 4310   0.507  -0.561   8.158 -0.3064 -0.3389  0.6358
   32SAPC  H18R 4311   0.599  -0.510   8.196  0.5559 -1.1494 -0.3037
   32SAPC  H18S 4312   0.543  -0.659   8.120 -0.4230  0.3171 -1.2822
   32SAPC  C219 4313   0.404  -0.594   8.264 -0.4370 -1.3089 -0.0240
   32SAPC  H19R 4314   0.452  -0.643   8.351  0.6090 -0.9606 -0.3948
   32SAPC  H19S 4315   0.332  -0.672   8.230 -0.0942 -1.5146 -0.2775
   32SAPC  C220 4316   0.345  -0.466   8.317 -0.5949 -0.0850  0.5964
   32SAPC  H20R 4317   0.280  -0.419   8.240 -1.2109  1.2084  1.8515
   32SAPC  H20S 4318   0.422  -0.388   8.333  0.1654 -0.6275 -0.3145
   32SAPC  H20T 4319   0.279  -0.476   8.406 -0.9409  0.0788  0.3588
   32SAPC   C33 4320   0.115   0.589   6.956 -0.1529  0.6615  0.2351
   32SAPC   H3X 4321   0.005   0.572   6.958 -0.1753  0.8651  1.7156
   32SAPC   H3Y 4322   0.146   0.680   6.901  0.5082  1.2385  1.5015
   32SAPC   C34 4323   0.157   0.630   7.099  0.5763 -0.2816 -0.6306
   32SAPC   H4X 4324   0.132   0.738   7.113 -1.5814 -0.6308 -1.3949
   32SAPC   H4Y 4325   0.266   0.610   7.104  0.6258 -0.1326 -1.0818
   32SAPC   C35 4326   0.087   0.547   7.214 -0.0782 -0.5679  0.5824
   32SAPC   H5X 4327   0.097   0.440   7.186 -1.9776 -0.5809 -0.2426
   32SAPC   H5Y 4328  -0.022   0.570   7.215 -0.1979 -1.0317  2.5106
   32SAPC   C36 4329   0.145   0.568   7.348 -0.5965  0.3333  0.0804
   32SAPC   H6X 4330   0.208   0.660   7.352 -1.7004  1.0903  0.3407
   32SAPC   H6Y 4331   0.204   0.477   7.370 -0.7470 -0.0564 -1.0397
   32SAPC   C37 4332   0.049   0.573   7.472  0.4415 -0.0838 -0.2500
   32SAPC   H7X 4333   0.008   0.473   7.499 -2.0280  0.6984 -0.8400
   32SAPC   H7Y 4334  -0.041   0.627   7.436 -0.0545 -0.6969  0.0433
   32SAPC   C38 4335   0.110   0.636   7.595  0.4193  0.2312 -0.3335
   32SAPC   H8X 4336   0.029   0.652   7.669 -0.8016 -1.7721 -1.1545
   32SAPC   H8Y 4337   0.148   0.737   7.566  1.8556 -0.3524 -0.5941
   32SAPC   C39 4338   0.228   0.555   7.658  0.6013  0.0148  0.4070
   32SAPC   H9X 4339   0.315   0.552   7.589  0.8625  0.0380  0.7322
   32SAPC   H9Y 4340   0.198   0.453   7.690 -3.2454  0.4157 -1.3749
   32SAPC  C310 4341   0.292   0.611   7.780  0.2622  0.1203 -0.3335
   32SAPC  H10X 4342   0.209   0.638   7.848 -1.6611 -1.8394 -1.7652
   32SAPC  H10Y 4343   0.355   0.699   7.755 -0.5431  0.8522  0.1500
   32SAPC  C311 4344   0.370   0.508   7.864 -0.0199 -0.2815  0.5154
   32SAPC  H11X 4345   0.460   0.470   7.811  0.7058  1.9526  0.0131
   32SAPC  H11Y 4346   0.310   0.417   7.887  2.6453 -2.6768 -1.2624
   32SAPC  C312 4347   0.435   0.560   7.992 -0.3187  0.2862 -0.8058
   32SAPC  H12X 4348   0.349   0.578   8.060 -0.4426  0.1534 -0.9268
   32SAPC  H12Y 4349   0.491   0.655   7.979  0.5582 -0.1743 -0.4915
   32SAPC  C313 4350   0.523   0.450   8.064  0.3629  0.0479 -0.8319
   32SAPC  H13X 4351   0.590   0.494   8.141 -1.1598  1.4238 -0.2456
   32SAPC  H13Y 4352   0.593   0.402   7.992  1.3938 -0.5816  0.5384
   32SAPC  C314 4353   0.426   0.346   8.120  0.6103  0.3654 -0.8866
   32SAPC  H14X 4354   0.360   0.301   8.042 -1.5924  0.4496  0.8405
   32SAPC  H14Y 4355   0.355   0.395   8.190  0.5560  1.7745 -1.8747
   32SAPC  C315 4356   0.503   0.238   8.202 -0.2156  0.2288  0.9243
   32SAPC  H15X 4357   0.439   0.176   8.268 -0.5876  2.1396  2.4538
   32SAPC  H15Y 4358   0.557   0.305   8.273 -1.2029  0.5433  1.3922
   32SAPC  C316 4359   0.593   0.143   8.123  0.5202 -0.1500  0.0702
   32SAPC  H16X 4360   0.691   0.189   8.099  1.1261 -1.4899 -0.1172
   32SAPC  H16Y 4361   0.542   0.111   8.029  0.0050 -0.5482  0.4795
   32SAPC  C317 4362   0.621   0.018   8.204 -0.8118  0.5287 -0.3899
   32SAPC  H17X 4363   0.708  -0.031   8.156 -0.9419  0.3844 -0.4798
   32SAPC  H17Y 4364   0.535  -0.051   8.196  1.6627 -2.8650  0.0346
   32SAPC  C318 4365   0.683   0.010   8.346 -0.0168  0.8542  0.4163
   32SAPC  H18X 4366   0.700  -0.095   8.377  2.2286  1.2401  0.6840
   32SAPC  H18Y 4367   0.617   0.053   8.425  1.0331  2.4145  0.5057
   32SAPC  H18Z 4368   0.777   0.068   8.359  0.8574 -0.4396 -0.0148
   33POPC     N 4369   6.071   1.799  10.996 -0.8546  0.0483 -0.4481
   33POPC   C12 4370   6.217   1.852  10.990 -0.1048 -0.2564  0.6825
   33POPC  H12A 4371   6.263   1.851  11.087 -1.2785 -1.6568  1.2595
   33POPC  H12B 4372   6.198   1.954  10.961  0.6900 -0.3511 -0.2332
   33POPC   C13 4373   6.081   1.661  11.044 -0.0703  1.0506 -0.3893
   33POPC  H13A 4374   5.986   1.612  11.059  0.4554 -0.0375 -0.4929
   33POPC  H13B 4375   6.129   1.589  10.979 -3.6578 -0.8829 -1.1736
   33POPC  H13C 4376   6.146   1.656  11.130  1.3485  2.0884 -1.3615
   33POPC   C14 4377   5.982   1.873  11.081 -0.5935 -0.4200 -0.0520
   33POPC  H14A 4378   6.000   1.856  11.186 -1.7616  1.6369  0.5274
   33POPC  H14B 4379   5.973   1.980  11.077 -2.3561 -0.4701  1.1242
   33POPC  H14C 4380   5.883   1.829  11.078 -0.5798 -0.7769  2.3016
   33POPC   C15 4381   6.017   1.808  10.860 -1.1817  0.1048 -0.2818
   33POPC  H15A 4382   6.059   1.743  10.785 -2.3049 -0.8350 -0.1150
   33POPC  H15B 4383   6.030   1.910  10.827  2.2625  0.3653  1.4547
   33POPC  H15C 4384   5.911   1.785  10.860 -1.9006  2.9769  0.4822
   33POPC   C11 4385   6.322   1.788  10.887  0.2744  0.1668 -0.0052
   33POPC  H11A 4386   6.316   1.678  10.899 -1.6445  0.3378  0.9858
   33POPC  H11B 4387   6.419   1.830  10.920 -0.2738  1.1109  0.4647
   33POPC     P 4388   6.319   1.978  10.716  0.0981 -0.5009  0.6456
   33POPC   O13 4389   6.444   2.022  10.779  0.1930 -0.3949  0.0814
   33POPC   O14 4390   6.196   2.055  10.756 -0.1412  0.1481  0.0953
   33POPC   O12 4391   6.292   1.827  10.750  0.6039 -0.3193  0.3149
   33POPC   O11 4392   6.332   1.976  10.557 -0.1014 -0.1531 -0.2791
   33POPC    C1 4393   6.271   1.867  10.491 -0.1173 -0.2442  0.6591
   33POPC    HA 4394   6.310   1.765  10.512  0.4707  0.4466  3.2892
   33POPC    HB 4395   6.162   1.858  10.510 -0.7788 -0.7439 -2.6642
   33POPC    C2 4396   6.288   1.899  10.334  0.0355  0.6332  0.1473
   33POPC    HS 4397   6.258   1.806  10.281  0.4770 -0.3460  1.5648
   33POPC   O21 4398   6.423   1.933  10.311 -0.1888  0.2012  0.6319
   33POPC   C21 4399   6.509   1.832  10.298  0.1703 -0.3002 -0.0142
   33POPC   O22 4400   6.480   1.718  10.337 -0.7929  0.2590  0.2005
   33POPC   C22 4401   6.638   1.879  10.229 -0.1653  0.3446 -0.8466
   33POPC   H2R 4402   6.723   1.821  10.272 -1.2020 -0.6775 -0.1374
   33POPC   H2S 4403   6.655   1.988  10.246  1.7193 -0.0218 -0.0594
   33POPC    C3 4404   6.206   2.027  10.302 -0.5654 -0.2926 -0.6289
   33POPC    HX 4405   6.232   2.101  10.380  1.7910  1.4271 -2.8695
   33POPC    HY 4406   6.100   1.992  10.312 -1.0600  1.6278  1.7194
   33POPC   O31 4407   6.242   2.079  10.167 -0.7154  0.1191  0.2074
   33POPC   C31 4408   6.166   2.036  10.070  0.0398  0.4284 -0.1204
   33POPC   O32 4409   6.087   1.944  10.075 -0.3867 -0.3461  0.8057
   33POPC   C32 4410   6.206   2.103   9.938 -0.1211  0.2893  0.2242
   33POPC   H2X 4411   6.272   2.035   9.881 -0.5910 -1.7699  2.0061
   33POPC   H2Y 4412   6.254   2.198   9.970  1.6189 -0.0974 -1.0912
   33POPC   C23 4413   6.630   1.866  10.072 -0.1791 -0.0508 -0.3151
   33POPC   H3R 4414   6.588   1.954  10.020 -2.7076  0.6040  2.5653
   33POPC   H3S 4415   6.561   1.786  10.036 -1.1819  1.8627 -2.9118
   33POPC   C24 4416   6.767   1.828  10.018 -0.3363 -0.3496 -0.2840
   33POPC   H4R 4417   6.791   1.730  10.066  0.2622 -0.1665 -0.2006
   33POPC   H4S 4418   6.846   1.897  10.054 -0.6242 -0.5812  0.8282
   33POPC   C25 4419   6.783   1.799   9.873 -0.6205 -0.5134  0.7665
   33POPC   H5R 4420   6.686   1.758   9.838  0.2915 -2.5410  0.4711
   33POPC   H5S 4421   6.863   1.722   9.869  1.0643  1.1858  0.1466
   33POPC   C26 4422   6.825   1.919   9.792  0.0862 -0.6575 -0.2459
   33POPC   H6R 4423   6.812   1.891   9.685  0.4174  0.9379 -0.7381
   33POPC   H6S 4424   6.930   1.951   9.809 -0.6037  0.8846  1.4041
   33POPC   C27 4425   6.748   2.051   9.807  0.3629 -0.6582  0.5925
   33POPC   H7R 4426   6.785   2.080   9.908  1.5963 -0.5469  0.1338
   33POPC   H7S 4427   6.637   2.046   9.814 -0.0915  3.5249 -0.6555
   33POPC   C28 4428   6.769   2.159   9.698 -0.2505  0.8161  0.2765
   33POPC   H8R 4429   6.733   2.117   9.602  1.0808 -0.6396  0.3778
   33POPC   H8S 4430   6.879   2.164   9.687 -0.0527 -0.1446  1.5579
   33POPC   C29 4431   6.728   2.301   9.720  0.6703 -0.2189 -0.1309
   33POPC   H91 4432   6.806   2.365   9.765  1.5940 -1.0885 -0.4334
   33POPC  C210 4433   6.605   2.354   9.695  0.4718  0.7142  0.4059
   33POPC  H101 4434   6.587   2.458   9.725  0.3849  1.0758 -0.8741
   33POPC  C211 4435   6.496   2.271   9.631 -0.6839  0.7983  0.0892
   33POPC  H11R 4436   6.402   2.320   9.664 -0.5246  0.3705  1.2298
   33POPC  H11S 4437   6.489   2.161   9.647 -1.5425  0.1116 -3.8750
   33POPC  C212 4438   6.514   2.290   9.476 -0.0171 -0.1153  0.6071
   33POPC  H12R 4439   6.620   2.276   9.445 -0.1602  2.8960 -1.6749
   33POPC  H12S 4440   6.490   2.395   9.451  3.1212  1.0260  1.8865
   33POPC  C213 4441   6.426   2.192   9.397 -0.3529 -0.2841 -0.1598
   33POPC  H13R 4442   6.323   2.204   9.437 -0.1956 -0.9573  0.4728
   33POPC  H13S 4443   6.465   2.090   9.419  1.0867  0.4477  0.8953
   33POPC  C214 4444   6.417   2.218   9.247  0.1279 -0.7526 -0.6514
   33POPC  H14R 4445   6.508   2.185   9.192 -0.3473 -1.6495 -0.9136
   33POPC  H14S 4446   6.409   2.325   9.219 -1.9814 -0.6504  0.1786
   33POPC  C215 4447   6.301   2.139   9.185  0.2522  0.2464 -0.0160
   33POPC  H15R 4448   6.201   2.178   9.212 -0.8080 -1.3425 -1.4595
   33POPC  H15S 4449   6.311   2.039   9.234  1.4503  0.4223  0.1427
   33POPC  C216 4450   6.311   2.124   9.032  0.1857 -0.4900  0.0271
   33POPC  H16R 4451   6.276   2.019   9.020 -0.1386 -0.6132  1.8375
   33POPC  H16S 4452   6.420   2.144   9.021 -0.0987  1.4830  0.4145
   33POPC  C217 4453   6.233   2.227   8.961  0.1258 -0.5590  0.2067
   33POPC  H17R 4454   6.266   2.222   8.855  0.8321  1.0827  0.3265
   33POPC  H17S 4455   6.252   2.328   9.003  1.2333 -0.4461 -0.5187
   33POPC  C218 4456   6.088   2.184   8.955 -0.2302  0.4845 -0.3041
   33POPC  H18R 4457   6.067   2.078   8.926 -1.2118  0.2084  1.2710
   33POPC  H18S 4458   6.024   2.243   8.887 -4.1912 -1.2417  1.6261
   33POPC  H18T 4459   6.033   2.191   9.051 -0.6337  3.1420 -0.6546
   33POPC   C33 4460   6.076   2.125   9.849  0.5228 -0.5037  0.2263
   33POPC   H3X 4461   6.007   2.201   9.891  0.2583 -0.9212  0.5461
   33POPC   H3Y 4462   6.031   2.023   9.847  2.6760 -1.5036 -1.2305
   33POPC   C34 4463   6.109   2.159   9.697 -0.5961  0.4951  0.1247
   33POPC   H4X 4464   6.176   2.080   9.657 -0.1166  0.9657 -0.0201
   33POPC   H4Y 4465   6.173   2.249   9.695 -0.3117  0.2875 -0.9290
   33POPC   C35 4466   5.998   2.174   9.601  0.7877 -0.1227  0.5104
   33POPC   H5X 4467   5.900   2.182   9.653  0.2844  0.1234 -0.4419
   33POPC   H5Y 4468   5.990   2.080   9.542 -1.2899  1.3006 -1.6681
   33POPC   C36 4469   5.999   2.298   9.498 -0.2448  0.2627  0.2359
   33POPC   H6X 4470   6.098   2.308   9.450 -0.4665  0.6342 -0.1565
   33POPC   H6Y 4471   5.992   2.387   9.563  1.8592  0.7489 -0.1335
   33POPC   C37 4472   5.898   2.271   9.379  0.6812  0.3924 -0.3930
   33POPC   H7X 4473   5.800   2.272   9.432 -0.4942  2.4711 -2.4593
   33POPC   H7Y 4474   5.923   2.166   9.352  0.0785 -0.4269  1.9951
   33POPC   C38 4475   5.911   2.369   9.263  0.3745  0.0713 -0.5919
   33POPC   H8X 4476   6.016   2.365   9.226  0.0854 -1.2608 -1.3189
   33POPC   H8Y 4477   5.890   2.474   9.293 -1.6289 -0.5854  0.4874
   33POPC   C39 4478   5.814   2.330   9.149 -0.2397 -0.2539 -0.8308
   33POPC   H9X 4479   5.712   2.349   9.189 -1.0434  1.0935 -3.3291
   33POPC   H9Y 4480   5.821   2.223   9.122  0.0499 -0.3568 -0.3620
   33POPC  C310 4481   5.837   2.433   9.030 -0.3810  0.6655 -0.4843
   33POPC  H10X 4482   5.922   2.407   8.963 -0.9469  2.9122 -2.2069
   33POPC  H10Y 4483   5.849   2.538   9.062  2.3739  0.0737  0.7058
   33POPC  C311 4484   5.724   2.435   8.925 -0.0280  0.6721 -0.3997
   33POPC  H11X 4485   5.643   2.486   8.981 -1.8644  2.2698 -4.1348
   33POPC  H11Y 4486   5.681   2.336   8.901 -1.0610  0.9540  0.2483
   33POPC  C312 4487   5.758   2.511   8.798 -0.2052 -0.4680  0.4653
   33POPC  H12X 4488   5.811   2.437   8.735  0.2536 -1.2693  1.7551
   33POPC  H12Y 4489   5.826   2.593   8.828 -0.0871  0.6905 -2.6203
   33POPC  C313 4490   5.641   2.583   8.731  0.1352  1.0808 -0.0142
   33POPC  H13X 4491   5.568   2.511   8.688 -1.2909  2.8532 -0.6703
   33POPC  H13Y 4492   5.684   2.633   8.641 -2.5089  0.2693 -1.8699
   33POPC  C314 4493   5.573   2.689   8.809  0.0483  0.2474 -0.2323
   33POPC  H14X 4494   5.644   2.773   8.824 -0.0462  0.5451 -1.3851
   33POPC  H14Y 4495   5.530   2.648   8.903  2.6186 -2.1055  0.0392
   33POPC  C315 4496   5.450   2.751   8.753 -0.3109 -0.0297  0.3531
   33POPC  H15X 4497   5.365   2.680   8.761  0.5954 -1.0757  0.9655
   33POPC  H15Y 4498   5.477   2.778   8.648 -1.0561 -2.2325 -0.4697
   33POPC  C316 4499   5.412   2.864   8.843  0.8524  0.4862 -0.8321
   33POPC  H16X 4500   5.499   2.931   8.857  0.0871  1.5363 -0.9788
   33POPC  H16Y 4501   5.387   2.832   8.946  0.5394  1.3896 -0.6185
   33POPC  H16Z 4502   5.326   2.928   8.815 -2.1861 -2.3258  1.3024
   34POPC     N 4503   6.120   2.477  10.805 -0.0604 -0.2288 -0.0270
   34POPC   C12 4504   6.183   2.388  10.694  0.0601 -0.1252  0.4535
   34POPC  H12A 4505   6.107   2.368  10.619 -0.7895 -1.2755  1.5679
   34POPC  H12B 4506   6.201   2.290  10.735 -1.3896 -0.8405 -0.4847
   34POPC   C13 4507   5.980   2.438  10.842  0.2470  0.2979 -0.0909
   34POPC  H13A 4508   5.917   2.445  10.754 -2.1422 -0.5109  1.4473
   34POPC  H13B 4509   5.975   2.333  10.870 -0.5814  0.5885  0.9110
   34POPC  H13C 4510   5.935   2.496  10.920 -0.2807  0.9002 -0.8252
   34POPC   C14 4511   6.207   2.491  10.922  0.2069 -0.4875 -0.6169
   34POPC  H14A 4512   6.305   2.520  10.887  0.3137 -1.6389 -1.3573
   34POPC  H14B 4513   6.180   2.567  10.993  0.7086  1.4822 -2.4285
   34POPC  H14C 4514   6.215   2.391  10.963  1.7273 -0.8048 -1.5986
   34POPC   C15 4515   6.107   2.621  10.755 -0.1854 -0.5592 -0.1817
   34POPC  H15A 4516   6.029   2.620  10.680 -1.4486 -0.2602  1.0863
   34POPC  H15B 4517   6.203   2.656  10.720  0.1528  0.4349  1.6244
   34POPC  H15C 4518   6.078   2.696  10.827 -1.2560  0.1359 -1.2988
   34POPC   C11 4519   6.301   2.445  10.609  0.3412 -0.1340  0.1338
   34POPC  H11A 4520   6.256   2.534  10.559  1.7240  0.7656  0.4305
   34POPC  H11B 4521   6.331   2.376  10.528 -1.4897  0.4445 -1.1193
   34POPC     P 4522   6.512   2.580  10.636 -0.0358 -0.1433  0.3236
   34POPC   O13 4523   6.642   2.527  10.673 -0.4983  0.7836  0.1053
   34POPC   O14 4524   6.469   2.722  10.664 -0.8073  1.0946 -0.2161
   34POPC   O12 4525   6.405   2.481  10.691  0.1102  0.1681  0.0713
   34POPC   O11 4526   6.491   2.563  10.479 -0.0409  0.3617  0.2250
   34POPC    C1 4527   6.583   2.477  10.407 -0.2648  0.3672  0.5957
   34POPC    HA 4528   6.554   2.378  10.448 -0.5701  1.0345  2.0495
   34POPC    HB 4529   6.692   2.498  10.418  0.7857 -2.3052 -2.7620
   34POPC    C2 4530   6.541   2.471  10.262 -0.6934 -0.4631 -0.3198
   34POPC    HS 4531   6.593   2.388  10.210  0.7770 -0.2180  0.6825
   34POPC   O21 4532   6.565   2.602  10.200  0.6981  0.2955 -0.1777
   34POPC   C21 4533   6.694   2.610  10.172  0.5239  0.3911 -0.2833
   34POPC   O22 4534   6.778   2.517  10.182  0.1756 -0.0693 -0.4779
   34POPC   C22 4535   6.731   2.753  10.136  0.4422  0.1483 -0.0878
   34POPC   H2R 4536   6.841   2.760  10.141  0.4921 -1.0776  1.3901
   34POPC   H2S 4537   6.686   2.828  10.205 -0.9026 -0.2158 -0.5361
   34POPC    C3 4538   6.394   2.429  10.244  0.1727 -0.7531 -0.4042
   34POPC    HX 4539   6.330   2.496  10.304  1.6816  0.2258  0.1833
   34POPC    HY 4540   6.382   2.328  10.288  1.1577 -0.1104  1.4654
   34POPC   O31 4541   6.356   2.433  10.106  0.2101  0.3810 -0.3347
   34POPC   C31 4542   6.309   2.549  10.057 -0.4899 -0.8847  0.0220
   34POPC   O32 4543   6.274   2.647  10.127 -0.3680  0.2240 -0.3970
   34POPC   C32 4544   6.277   2.535   9.907  0.7042 -0.0746  0.6767
   34POPC   H2X 4545   6.177   2.487   9.909 -0.0502  1.3151 -0.6639
   34POPC   H2Y 4546   6.350   2.474   9.850  0.2452  0.4393 -0.5034
   34POPC   C23 4547   6.694   2.803   9.996 -1.0239  0.0536 -0.7903
   34POPC   H3R 4548   6.718   2.912  10.001  0.6928 -0.3527  1.6665
   34POPC   H3S 4549   6.585   2.792   9.976 -1.3119  0.9760  0.1819
   34POPC   C24 4550   6.771   2.732   9.885 -0.5230  0.8480 -0.3504
   34POPC   H4R 4551   6.770   2.622   9.903  2.4251  0.4505 -1.9850
   34POPC   H4S 4552   6.881   2.731   9.895 -0.5255 -1.5560  0.1306
   34POPC   C25 4553   6.716   2.753   9.743 -0.1825 -1.1727 -0.4040
   34POPC   H5R 4554   6.752   2.857   9.727  1.8086 -1.8288 -0.5232
   34POPC   H5S 4555   6.606   2.743   9.738 -0.0520 -2.5289 -0.8103
   34POPC   C26 4556   6.780   2.668   9.635  0.6122  0.0059 -0.7651
   34POPC   H6R 4557   6.770   2.563   9.671 -0.3228 -0.5577 -2.5628
   34POPC   H6S 4558   6.884   2.693   9.607  0.3195  0.3719 -1.5448
   34POPC   C27 4559   6.708   2.669   9.499 -0.2287 -0.6294  0.2271
   34POPC   H7R 4560   6.602   2.635   9.506 -0.5663  0.5320  1.2497
   34POPC   H7S 4561   6.765   2.606   9.428  0.5890 -0.1188  0.4103
   34POPC   C28 4562   6.686   2.812   9.447  0.1854 -0.1148 -0.0969
   34POPC   H8R 4563   6.624   2.872   9.517 -1.3779 -1.2877 -0.4153
   34POPC   H8S 4564   6.634   2.808   9.349  0.7551 -0.4834 -0.3893
   34POPC   C29 4565   6.817   2.883   9.412 -0.1969  0.1291  0.1638
   34POPC   H91 4566   6.880   2.921   9.494  1.6535 -0.3676 -0.9619
   34POPC  C210 4567   6.867   2.912   9.290  0.4002 -0.4361  0.8840
   34POPC  H101 4568   6.959   2.972   9.289  0.5900 -0.6958  1.6991
   34POPC  C211 4569   6.813   2.878   9.147  0.0701  0.0334 -0.2838
   34POPC  H11R 4570   6.736   2.799   9.160 -0.5755  0.6696 -0.1927
   34POPC  H11S 4571   6.890   2.838   9.078  1.2750 -0.5561  1.3487
   34POPC  C212 4572   6.744   3.004   9.078 -0.6130 -0.7012  0.4206
   34POPC  H12R 4573   6.736   2.977   8.970 -0.6209  1.2001 -0.0817
   34POPC  H12S 4574   6.813   3.091   9.088  0.0671 -0.9214 -1.8062
   34POPC  C213 4575   6.599   3.051   9.118  0.0773  0.8202  0.0037
   34POPC  H13R 4576   6.536   2.960   9.126 -1.1647  1.6341 -0.2755
   34POPC  H13S 4577   6.541   3.121   9.053 -1.5806 -0.1655  0.3667
   34POPC  C214 4578   6.608   3.134   9.254  0.7117  0.1846 -0.4081
   34POPC  H14R 4579   6.688   3.211   9.259  0.1040  0.7500  1.9390
   34POPC  H14S 4580   6.641   3.057   9.327  1.1413  1.2797  0.5897
   34POPC  C215 4581   6.472   3.205   9.291 -0.3672 -0.0691  0.8446
   34POPC  H15R 4582   6.450   3.277   9.210 -1.2307  0.3873  1.4683
   34POPC  H15S 4583   6.485   3.257   9.388 -2.9078  2.8060 -0.2140
   34POPC  C216 4584   6.349   3.102   9.293 -0.2051 -0.3782 -0.1669
   34POPC  H16R 4585   6.377   2.999   9.324 -2.2293 -1.1628 -0.8280
   34POPC  H16S 4586   6.328   3.078   9.187 -0.3924 -1.8134  0.1741
   34POPC  C217 4587   6.229   3.160   9.369  0.5884 -0.1489  0.3616
   34POPC  H17R 4588   6.244   3.158   9.479 -0.5098  0.0807  0.5277
   34POPC  H17S 4589   6.142   3.095   9.347  2.2773 -2.0575 -1.1257
   34POPC  C218 4590   6.197   3.301   9.326 -0.1846  0.2613 -0.3344
   34POPC  H18R 4591   6.218   3.321   9.219 -1.8779  0.9893 -0.5529
   34POPC  H18S 4592   6.243   3.380   9.389 -1.8330  0.6865  0.3880
   34POPC  H18T 4593   6.090   3.320   9.347  0.2184  1.6464  0.6258
   34POPC   C33 4594   6.261   2.670   9.834 -1.0309  0.1234  0.4904
   34POPC   H3X 4595   6.339   2.746   9.857  0.7721 -1.2011 -0.8853
   34POPC   H3Y 4596   6.160   2.715   9.844 -1.5105 -0.6431 -0.7130
   34POPC   C34 4597   6.282   2.643   9.676  0.3385  0.2340  0.1830
   34POPC   H4X 4598   6.248   2.541   9.647  2.9987 -0.9979  1.0526
   34POPC   H4Y 4599   6.391   2.623   9.669  0.4051  1.0248 -1.4283
   34POPC   C35 4600   6.241   2.755   9.572 -0.8067 -0.4155  0.3563
   34POPC   H5X 4601   6.292   2.845   9.614  3.1775 -1.9211 -0.8181
   34POPC   H5Y 4602   6.133   2.784   9.577 -0.4352  1.2161 -0.3555
   34POPC   C36 4603   6.297   2.720   9.437 -0.1085  0.5213 -0.2248
   34POPC   H6X 4604   6.407   2.702   9.435 -0.4345 -1.8241 -2.3277
   34POPC   H6Y 4605   6.286   2.811   9.375  2.2143  1.8609  1.2181
   34POPC   C37 4606   6.209   2.617   9.370  0.1371 -0.3297  0.5457
   34POPC   H7X 4607   6.099   2.631   9.377  0.0327 -1.0952  0.5812
   34POPC   H7Y 4608   6.219   2.515   9.412 -3.6909 -0.6935  0.9196
   34POPC   C38 4609   6.258   2.597   9.224  0.2680  0.0894 -0.2358
   34POPC   H8X 4610   6.222   2.499   9.186 -0.8862  0.0622  0.8390
   34POPC   H8Y 4611   6.368   2.595   9.210  0.1605 -0.2136 -1.0851
   34POPC   C39 4612   6.197   2.701   9.127 -0.5582  0.1853  0.2973
   34POPC   H9X 4613   6.252   2.796   9.144 -0.0647  0.1039 -0.7268
   34POPC   H9Y 4614   6.090   2.703   9.157 -0.8579  3.4568 -0.5538
   34POPC  C310 4615   6.222   2.657   8.982 -0.0503  0.1372 -0.2483
   34POPC  H10X 4616   6.199   2.552   8.953  0.5874  0.6470 -2.8690
   34POPC  H10Y 4617   6.327   2.677   8.950 -0.4315  0.4641 -1.3406
   34POPC  C311 4618   6.125   2.733   8.888 -0.2527  0.6544 -0.1534
   34POPC  H11X 4619   6.148   2.840   8.905  2.5181  0.1354 -0.1668
   34POPC  H11Y 4620   6.028   2.699   8.930 -0.6673  1.5756 -0.3526
   34POPC  C312 4621   6.151   2.705   8.735  0.0955  0.5064  0.0946
   34POPC  H12X 4622   6.143   2.596   8.718  0.0880  0.6677 -1.0798
   34POPC  H12Y 4623   6.249   2.744   8.700 -0.0402  0.6948 -0.0844
   34POPC  C313 4624   6.045   2.762   8.642 -0.8480  0.1671  0.1477
   34POPC  H13X 4625   5.946   2.724   8.676 -1.3049  0.2795 -1.0332
   34POPC  H13Y 4626   6.055   2.730   8.536  0.7037  0.5002  0.1678
   34POPC  C314 4627   6.040   2.914   8.647 -0.2633 -0.7841 -0.4729
   34POPC  H14X 4628   6.134   2.967   8.620 -1.5696  1.2057 -1.3732
   34POPC  H14Y 4629   6.001   2.945   8.746  2.3735  0.5597  0.2529
   34POPC  C315 4630   5.955   2.978   8.546  0.0677  0.0737  1.1723
   34POPC  H15X 4631   5.981   2.945   8.443 -2.7406 -1.1746  0.7795
   34POPC  H15Y 4632   5.962   3.088   8.559  1.8003  0.0423  0.7833
   34POPC  C316 4633   5.803   2.952   8.565 -0.6381 -0.1866 -0.3505
   34POPC  H16X 4634   5.783   2.843   8.553  0.8206 -0.2230 -3.4753
   34POPC  H16Y 4635   5.749   2.991   8.476  0.7976  0.9928 -0.7449
   34POPC  H16Z 4636   5.757   2.994   8.657  0.4174  0.4266 -0.0899
   35POPC     N 4637   3.215   1.289  11.485  0.3645 -0.4248  0.3476
   35POPC   C12 4638   3.196   1.169  11.395 -0.3387  0.3076  0.5347
   35POPC  H12A 4639   3.096   1.182  11.355 -0.2770  1.4126  0.7001
   35POPC  H12B 4640   3.191   1.082  11.459  1.3310  1.4495  2.3426
   35POPC   C13 4641   3.340   1.287  11.567 -0.4571 -0.1951 -0.1551
   35POPC  H13A 4642   3.355   1.189  11.611  1.3115 -0.2705 -0.8420
   35POPC  H13B 4643   3.417   1.305  11.493 -1.4288 -1.9746 -1.7210
   35POPC  H13C 4644   3.339   1.361  11.645  0.0059 -1.1501  0.7861
   35POPC   C14 4645   3.225   1.413  11.402 -0.2111 -0.3387  0.1409
   35POPC  H14A 4646   3.138   1.429  11.341  0.8941 -1.5078 -1.8656
   35POPC  H14B 4647   3.246   1.503  11.459 -1.1394 -0.7964  1.2442
   35POPC  H14C 4648   3.314   1.415  11.341 -0.2010 -0.3490  0.1549
   35POPC   C15 4649   3.092   1.298  11.568 -0.1223 -0.6102  0.4455
   35POPC  H15A 4650   3.079   1.213  11.634 -2.3796 -1.3775 -0.8742
   35POPC  H15B 4651   3.009   1.312  11.500  0.0222  1.4799  0.6157
   35POPC  H15C 4652   3.085   1.391  11.623 -0.9257 -0.6452  0.4235
   35POPC   C11 4653   3.302   1.145  11.283 -0.1483 -0.7249 -0.3606
   35POPC  H11A 4654   3.312   1.243  11.232  0.0722 -1.0378 -0.9234
   35POPC  H11B 4655   3.246   1.079  11.215  0.3461 -0.1705 -1.3304
   35POPC     P 4656   3.469   0.945  11.324 -0.3971  0.1243 -0.2180
   35POPC   O13 4657   3.349   0.857  11.351  0.3432  0.1333  0.5211
   35POPC   O14 4658   3.588   0.922  11.407 -0.4401 -0.8269  0.2181
   35POPC   O12 4659   3.427   1.090  11.330 -0.5341 -0.1711  0.4795
   35POPC   O11 4660   3.515   0.913  11.173  0.9917  0.2759  0.0085
   35POPC    C1 4661   3.535   1.015  11.075 -0.2190 -0.0016  0.6590
   35POPC    HA 4662   3.627   0.984  11.021 -1.6161  0.7365 -2.3408
   35POPC    HB 4663   3.551   1.115  11.120 -1.5495  0.4276  0.2384
   35POPC    C2 4664   3.419   1.017  10.972  0.0010  0.2312  0.8057
   35POPC    HS 4665   3.327   0.981  11.025  1.8388 -3.6312  1.7275
   35POPC   O21 4666   3.463   0.925  10.870  0.2709 -0.1244 -0.0869
   35POPC   C21 4667   3.364   0.862  10.802 -0.4346 -0.2577  0.0464
   35POPC   O22 4668   3.243   0.869  10.835 -0.2026  0.7942 -0.2367
   35POPC   C22 4669   3.429   0.781  10.694 -0.7518 -0.3836 -0.3476
   35POPC   H2R 4670   3.345   0.720  10.655 -1.0144 -1.4629  1.7401
   35POPC   H2S 4671   3.506   0.716  10.741 -0.3920 -0.0513 -0.4739
   35POPC    C3 4672   3.392   1.161  10.926  0.0491  0.1944 -0.0580
   35POPC    HX 4673   3.488   1.207  10.891 -0.0985 -0.4007 -1.3076
   35POPC    HY 4674   3.345   1.209  11.014 -0.9564  0.3826 -0.6890
   35POPC   O31 4675   3.296   1.157  10.816 -0.3153 -0.4583  0.0956
   35POPC   C31 4676   3.168   1.155  10.851 -0.3105  0.1128 -0.2036
   35POPC   O32 4677   3.133   1.151  10.968 -0.0010 -0.0715 -0.0378
   35POPC   C32 4678   3.074   1.186  10.733 -0.1283  0.7182  0.1020
   35POPC   H2X 4679   3.052   1.292  10.758 -2.6217  0.1705  0.5674
   35POPC   H2Y 4680   2.979   1.128  10.742 -0.5275  1.4233  0.5414
   35POPC   C23 4681   3.486   0.852  10.567  0.0614  0.3486  0.1434
   35POPC   H3R 4682   3.586   0.821  10.530 -0.5414  0.2131 -1.4550
   35POPC   H3S 4683   3.483   0.962  10.581 -0.4523  0.1062  2.2169
   35POPC   C24 4684   3.398   0.823  10.436 -0.1049 -0.1290 -0.2567
   35POPC   H4R 4685   3.317   0.898  10.445  2.2662  2.8561 -1.6895
   35POPC   H4S 4686   3.361   0.718  10.438  1.1620 -0.6251 -0.9518
   35POPC   C25 4687   3.473   0.843  10.300 -0.9520 -0.1115  0.2949
   35POPC   H5R 4688   3.557   0.774  10.277 -2.1507 -0.6790 -2.9001
   35POPC   H5S 4689   3.521   0.944  10.302 -2.5590  0.9916 -4.2314
   35POPC   C26 4690   3.373   0.841  10.186  0.2222 -0.4029  0.5725
   35POPC   H6R 4691   3.295   0.914  10.216 -0.7684 -2.1438  2.4593
   35POPC   H6S 4692   3.332   0.738  10.180 -1.4511  0.0919  2.4823
   35POPC   C27 4693   3.449   0.874  10.050 -0.0333 -0.7607 -1.0529
   35POPC   H7R 4694   3.502   0.781  10.019  2.3229  0.0442  0.2375
   35POPC   H7S 4695   3.540   0.937  10.062  0.3151 -1.2611 -1.0025
   35POPC   C28 4696   3.360   0.923   9.933 -0.0954  0.5697 -0.1077
   35POPC   H8R 4697   3.412   0.946   9.838 -0.2748  1.2826 -0.0433
   35POPC   H8S 4698   3.311   1.018   9.964 -2.1198 -0.6395  0.6436
   35POPC   C29 4699   3.250   0.819   9.894  0.0608 -0.2034 -0.0214
   35POPC   H91 4700   3.173   0.785   9.965 -0.6918  0.0896 -0.6653
   35POPC  C210 4701   3.234   0.760   9.774 -0.5761 -0.0097  0.5183
   35POPC  H101 4702   3.150   0.690   9.759  0.0402 -0.5088 -0.7442
   35POPC  C211 4703   3.318   0.782   9.653 -0.3995  0.2944  1.1194
   35POPC  H11R 4704   3.423   0.813   9.676  0.0274  0.0215 -0.3805
   35POPC  H11S 4705   3.267   0.858   9.590  1.6017 -0.3509 -1.4366
   35POPC  C212 4706   3.331   0.659   9.562  0.3152 -0.0951 -0.2098
   35POPC  H12R 4707   3.367   0.576   9.626 -1.2891  0.3075  1.3002
   35POPC  H12S 4708   3.414   0.671   9.488 -0.7890  2.1529 -1.1832
   35POPC  C213 4709   3.210   0.610   9.485 -0.1195 -0.1200 -0.9656
   35POPC  H13R 4710   3.117   0.629   9.544  0.4121  2.4676 -0.8355
   35POPC  H13S 4711   3.231   0.507   9.450 -1.2487 -0.1682 -1.5804
   35POPC  C214 4712   3.184   0.689   9.358  0.0960 -0.4305 -0.2000
   35POPC  H14R 4713   3.153   0.793   9.381 -0.6755 -0.2753 -1.7585
   35POPC  H14S 4714   3.095   0.647   9.306  0.3856 -1.0232 -0.2322
   35POPC  C215 4715   3.300   0.680   9.264  0.1686 -0.3476 -0.1098
   35POPC  H15R 4716   3.344   0.578   9.260 -0.5856 -0.7176  0.5794
   35POPC  H15S 4717   3.371   0.758   9.298  0.6775 -0.9228  0.1432
   35POPC  C216 4718   3.262   0.713   9.120  0.6480  0.2450 -0.3511
   35POPC  H16R 4719   3.202   0.806   9.116 -1.8928 -1.1167  2.2854
   35POPC  H16S 4720   3.190   0.639   9.080 -0.4183  0.1600  1.6165
   35POPC  C217 4721   3.393   0.701   9.039  0.0290  0.1187 -0.2959
   35POPC  H17R 4722   3.435   0.600   9.061  1.3730  0.7489  0.1643
   35POPC  H17S 4723   3.474   0.765   9.081  1.8818 -2.0647 -0.3362
   35POPC  C218 4724   3.370   0.727   8.884  0.1599 -0.7966  0.1573
   35POPC  H18R 4725   3.318   0.642   8.837  1.4864 -1.8602  0.5539
   35POPC  H18S 4726   3.463   0.739   8.825  0.1739 -0.2772  0.2771
   35POPC  H18T 4727   3.308   0.817   8.864 -1.7960 -2.0133  0.4647
   35POPC   C33 4728   3.138   1.153  10.597 -0.1971 -0.4528  0.7045
   35POPC   H3X 4729   3.155   1.044  10.584 -0.6940 -0.4374 -0.0929
   35POPC   H3Y 4730   3.239   1.201  10.591 -0.0569 -0.7201  0.9040
   35POPC   C34 4731   3.052   1.200  10.484  0.9826 -0.1524 -0.1374
   35POPC   H4X 4732   2.999   1.293  10.511  0.9220  0.1729 -1.3079
   35POPC   H4Y 4733   2.973   1.128  10.454  2.0485 -1.5167  0.2035
   35POPC   C35 4734   3.122   1.192  10.351 -0.1774  0.1403 -0.3939
   35POPC   H5X 4735   3.182   1.099  10.342  1.4448  1.2154 -1.1830
   35POPC   H5Y 4736   3.195   1.275  10.351 -0.8679  0.7604 -1.2718
   35POPC   C36 4737   3.030   1.200  10.225  0.0325  0.5986 -0.5293
   35POPC   H6X 4738   2.984   1.301  10.218 -1.9780 -0.2632 -0.4874
   35POPC   H6Y 4739   2.949   1.125  10.238  0.6263  0.4404  3.1088
   35POPC   C37 4740   3.109   1.168  10.095  0.2459 -0.2648  0.0542
   35POPC   H7X 4741   3.147   1.063  10.099  1.9706  0.2016 -2.1198
   35POPC   H7Y 4742   3.205   1.224  10.092  0.2495 -0.2585  0.2595
   35POPC   C38 4743   3.023   1.214   9.983 -0.6406  0.5985  0.4641
   35POPC   H8X 4744   2.990   1.320   9.992 -0.5057  0.7160 -0.3983
   35POPC   H8Y 4745   2.929   1.155   9.980 -1.7207  2.2964 -1.3754
   35POPC   C39 4746   3.093   1.189   9.851  0.1772  0.4344 -0.1651
   35POPC   H9X 4747   3.019   1.212   9.771  0.5880  1.0436 -0.3740
   35POPC   H9Y 4748   3.105   1.079   9.854  1.2752  0.5358 -0.6672
   35POPC  C310 4749   3.226   1.260   9.829  0.5223 -0.3200 -0.2308
   35POPC  H10X 4750   3.304   1.204   9.886  0.9018 -0.7024 -1.1029
   35POPC  H10Y 4751   3.217   1.360   9.876  1.5745  0.0702 -0.8323
   35POPC  C311 4752   3.268   1.279   9.686  0.2589 -0.5635 -0.0367
   35POPC  H11X 4753   3.357   1.343   9.669  0.1069 -0.3546 -0.0454
   35POPC  H11Y 4754   3.187   1.328   9.629  0.9977  0.6110 -0.1104
   35POPC  C312 4755   3.288   1.142   9.613 -0.8589 -0.3894 -0.5168
   35POPC  H12X 4756   3.200   1.074   9.612 -0.9205 -0.3176 -1.6685
   35POPC  H12Y 4757   3.366   1.090   9.673 -1.8327 -0.8116  0.4182
   35POPC  C313 4758   3.344   1.165   9.472 -0.0658  0.0480 -0.0741
   35POPC  H13X 4759   3.380   1.067   9.435 -0.1326 -0.1926  0.4939
   35POPC  H13Y 4760   3.430   1.234   9.470  1.1063 -1.3832 -1.0889
   35POPC  C314 4761   3.235   1.208   9.377 -0.6119 -0.5148 -0.6511
   35POPC  H14X 4762   3.223   1.317   9.395  0.8574 -0.4616  0.1292
   35POPC  H14Y 4763   3.141   1.158   9.408  0.5447 -1.4024  1.6239
   35POPC  C315 4764   3.267   1.170   9.228 -0.7511  0.3016  0.6515
   35POPC  H15X 4765   3.186   1.217   9.170 -2.2081 -1.9892  0.6858
   35POPC  H15Y 4766   3.277   1.062   9.204 -2.3265  0.1491  0.5847
   35POPC  C316 4767   3.393   1.240   9.171  0.3443  0.0955  0.0993
   35POPC  H16X 4768   3.394   1.220   9.062  0.7936 -1.2463  0.3290
   35POPC  H16Y 4769   3.482   1.196   9.220  1.0316  1.6750  0.3086
   35POPC  H16Z 4770   3.378   1.350   9.179  0.2489  0.1800 -1.0530
   36POPC     N 4771   4.426   6.629  10.988 -0.9207 -0.4470  0.4391
   36POPC   C12 4772   4.567   6.690  10.982  0.1288  0.5472  0.3525
   36POPC  H12A 4773   4.640   6.615  11.009  0.8809  1.1303 -0.0163
   36POPC  H12B 4774   4.565   6.762  11.062  3.6022  1.0977  0.0883
   36POPC   C13 4775   4.327   6.735  10.990 -0.2116 -0.7687 -0.1891
   36POPC  H13A 4776   4.330   6.793  10.898 -0.6407  1.4661  1.1319
   36POPC  H13B 4777   4.228   6.703  11.019 -0.2641 -1.3976 -1.0137
   36POPC  H13C 4778   4.350   6.808  11.066 -0.8133  0.2596 -0.9597
   36POPC   C14 4779   4.401   6.552  10.864 -0.2398  0.5238 -0.3276
   36POPC  H14A 4780   4.401   6.615  10.776  3.4784  0.2334 -0.6921
   36POPC  H14B 4781   4.492   6.494  10.857  0.7282  1.5905  2.2230
   36POPC  H14C 4782   4.315   6.487  10.867  0.5238 -0.5795 -1.1889
   36POPC   C15 4783   4.410   6.549  11.113  0.3799  0.8817 -0.1394
   36POPC  H15A 4784   4.489   6.476  11.122 -0.2103  0.3001  0.4536
   36POPC  H15B 4785   4.328   6.479  11.106  0.8150  0.2139  1.0591
   36POPC  H15C 4786   4.408   6.600  11.208  0.0569 -0.7838  0.8027
   36POPC   C11 4787   4.609   6.762  10.853 -0.3203 -0.6478  0.1519
   36POPC  H11A 4788   4.694   6.834  10.861 -1.5340  0.7443  1.3323
   36POPC  H11B 4789   4.526   6.833  10.832  0.0690 -0.1252  0.3574
   36POPC     P 4790   4.752   6.574  10.736  0.0239 -0.5963  0.5265
   36POPC   O13 4791   4.719   6.452  10.808 -0.4096  0.2962  0.6496
   36POPC   O14 4792   4.876   6.647  10.778  0.6730 -0.7609  0.0697
   36POPC   O12 4793   4.628   6.676  10.735  1.0582  0.8705 -0.2359
   36POPC   O11 4794   4.764   6.529  10.578  0.1114 -0.2803  0.5849
   36POPC    C1 4795   4.665   6.436  10.529  0.4047 -0.3784 -0.6564
   36POPC    HA 4796   4.624   6.489  10.440  1.7716 -1.6037 -2.0718
   36POPC    HB 4797   4.586   6.396  10.595  0.3563 -0.5884 -0.8370
   36POPC    C2 4798   4.727   6.302  10.477  0.2238 -0.1828  0.4665
   36POPC    HS 4799   4.788   6.259  10.559  1.7009  0.9170 -0.0057
   36POPC   O21 4800   4.815   6.332  10.370  0.0240  0.2775 -0.4151
   36POPC   C21 4801   4.897   6.235  10.327  0.1845 -0.0832  0.4524
   36POPC   O22 4802   4.908   6.125  10.376  0.3338  0.6037 -0.0173
   36POPC   C22 4803   4.939   6.280  10.187 -0.9404 -0.6451  0.4545
   36POPC   H2R 4804   4.878   6.361  10.141 -0.4704 -1.3737 -1.5457
   36POPC   H2S 4805   4.909   6.189  10.131  0.4971 -1.4040  0.8712
   36POPC    C3 4806   4.612   6.205  10.437  0.4266  0.1019 -0.1108
   36POPC    HX 4807   4.553   6.185  10.528 -0.8490  1.2049 -0.6610
   36POPC    HY 4808   4.648   6.103  10.410  1.1887  0.6463 -1.3091
   36POPC   O31 4809   4.522   6.259  10.333  0.9058  0.6365  0.0751
   36POPC   C31 4810   4.570   6.267  10.210  0.2592 -0.0737 -0.6626
   36POPC   O32 4811   4.663   6.190  10.180 -0.5790 -0.8706  0.1889
   36POPC   C32 4812   4.476   6.349  10.123  0.4109 -0.5612 -0.2805
   36POPC   H2X 4813   4.476   6.455  10.157 -3.0739  0.1899 -2.0646
   36POPC   H2Y 4814   4.374   6.315  10.151  0.1014  1.1524  0.8592
   36POPC   C23 4815   5.090   6.316  10.180  0.4526 -0.1565  0.2107
   36POPC   H3R 4816   5.140   6.264  10.264 -1.0104 -0.1277  1.1219
   36POPC   H3S 4817   5.103   6.426  10.195 -1.8906 -0.1698  3.1111
   36POPC   C24 4818   5.150   6.291  10.041 -0.1626 -0.0885 -0.5700
   36POPC   H4R 4819   5.125   6.187  10.012 -3.7678  1.0673 -2.2200
   36POPC   H4S 4820   5.260   6.301  10.030 -0.1738 -0.2387 -0.8262
   36POPC   C25 4821   5.092   6.398   9.944 -0.5718  0.0591  0.8855
   36POPC   H5R 4822   5.128   6.496   9.984 -0.3879  0.1765  0.4299
   36POPC   H5S 4823   4.983   6.387   9.956 -1.0281  1.3099 -1.5600
   36POPC   C26 4824   5.134   6.386   9.801  0.3957 -1.0666  0.4674
   36POPC   H6R 4825   5.095   6.291   9.758  2.1530 -2.9356  2.7558
   36POPC   H6S 4826   5.245   6.380   9.800  0.3843 -1.2791 -0.4707
   36POPC   C27 4827   5.091   6.500   9.706  0.0512 -0.1434  0.0987
   36POPC   H7R 4828   5.149   6.589   9.737  0.0426 -0.0599 -0.1252
   36POPC   H7S 4829   4.986   6.522   9.736  0.3132  0.4938  0.5807
   36POPC   C28 4830   5.108   6.462   9.554  0.6475  0.2058  0.7398
   36POPC   H8R 4831   5.051   6.367   9.544  0.5828  0.4594 -2.7676
   36POPC   H8S 4832   5.213   6.439   9.524  0.9319  0.6960  1.3460
   36POPC   C29 4833   5.045   6.578   9.473 -0.6265 -0.4636 -0.1209
   36POPC   H91 4834   5.024   6.667   9.533 -0.6607  1.3523 -2.6643
   36POPC  C210 4835   5.024   6.585   9.339  0.0769  0.4042  0.9717
   36POPC  H101 4836   5.005   6.684   9.294  0.8392 -0.0689 -0.4030
   36POPC  C211 4837   5.050   6.464   9.237 -0.8553  0.3081 -0.5814
   36POPC  H11R 4838   5.021   6.372   9.291 -1.7563  1.0876  0.3042
   36POPC  H11S 4839   5.155   6.466   9.202 -0.7611 -1.6134 -0.4772
   36POPC  C212 4840   4.962   6.478   9.110 -0.5450 -0.4088  0.6720
   36POPC  H12R 4841   4.865   6.519   9.143  0.2022  0.6926  1.5951
   36POPC  H12S 4842   4.951   6.375   9.069 -0.7054  0.1683 -0.7830
   36POPC  C213 4843   5.005   6.590   9.014 -0.7857 -0.6149 -0.0767
   36POPC  H13R 4844   5.107   6.563   8.979 -0.2926  0.4416  0.4792
   36POPC  H13S 4845   5.015   6.690   9.061  2.2204  0.1981 -2.1333
   36POPC  C214 4846   4.908   6.611   8.890  0.4732  0.4498 -0.6516
   36POPC  H14R 4847   4.817   6.657   8.936 -0.1777  1.1187 -2.5293
   36POPC  H14S 4848   4.883   6.508   8.856  1.9598 -0.8998  2.0330
   36POPC  C215 4849   4.978   6.690   8.781 -0.2931 -0.8168 -0.7116
   36POPC  H15R 4850   5.075   6.646   8.748  0.3731  0.2210 -0.1680
   36POPC  H15S 4851   4.997   6.788   8.829  3.1392 -2.2331  1.2309
   36POPC  C216 4852   4.903   6.708   8.655  0.4138  0.2451  0.2731
   36POPC  H16R 4853   4.808   6.763   8.673 -0.0498 -0.3775 -0.1879
   36POPC  H16S 4854   4.871   6.604   8.630  2.0565 -0.2617  0.1799
   36POPC  C217 4855   4.979   6.770   8.535  0.6490 -0.1167 -0.1655
   36POPC  H17R 4856   4.910   6.753   8.450 -0.4839 -2.2377  1.1004
   36POPC  H17S 4857   5.071   6.717   8.500  0.5677  1.3398 -2.8661
   36POPC  C218 4858   4.993   6.919   8.552  0.4355 -0.2100  0.4723
   36POPC  H18R 4859   5.014   6.974   8.458  0.9087 -3.7912 -1.7069
   36POPC  H18S 4860   5.066   6.937   8.633 -1.9373  0.8337  2.5227
   36POPC  H18T 4861   4.895   6.950   8.594 -0.4960 -0.6417 -1.2671
   36POPC   C33 4862   4.507   6.352   9.968  0.1216 -0.1120 -0.0185
   36POPC   H3X 4863   4.416   6.392   9.917  0.3628  1.0067  0.3879
   36POPC   H3Y 4864   4.517   6.251   9.922 -0.3908  0.2998 -1.0948
   36POPC   C34 4865   4.624   6.450   9.931  0.2600  0.2741 -0.3202
   36POPC   H4X 4866   4.698   6.455  10.013 -1.5225  3.0304  1.2857
   36POPC   H4Y 4867   4.573   6.549   9.933 -0.7610 -0.2370 -0.4715
   36POPC   C35 4868   4.680   6.419   9.788 -0.0638 -0.6102  0.1992
   36POPC   H5X 4869   4.685   6.308   9.787  0.8012 -0.7183  3.6593
   36POPC   H5Y 4870   4.774   6.476   9.773 -1.2356  1.2466 -0.5082
   36POPC   C36 4871   4.590   6.454   9.660  0.1086 -0.8464 -0.1157
   36POPC   H6X 4872   4.570   6.563   9.651 -1.6614 -1.1756 -0.5324
   36POPC   H6Y 4873   4.496   6.397   9.680 -2.0580  1.7509 -2.0932
   36POPC   C37 4874   4.639   6.389   9.529 -0.3746 -0.1276 -0.3790
   36POPC   H7X 4875   4.674   6.284   9.545  0.2893 -0.1563 -1.7829
   36POPC   H7Y 4876   4.724   6.448   9.488  1.0572 -1.3967  0.6226
   36POPC   C38 4877   4.543   6.389   9.411  0.2881  1.3310 -0.0015
   36POPC   H8X 4878   4.453   6.329   9.435 -0.4555  2.7575  0.8668
   36POPC   H8Y 4879   4.592   6.337   9.326  0.7761 -2.3806  2.3079
   36POPC   C39 4880   4.486   6.524   9.375  0.9132 -0.5109  0.0342
   36POPC   H9X 4881   4.557   6.603   9.408 -0.6108  0.1778  1.8461
   36POPC   H9Y 4882   4.390   6.540   9.429 -1.5067 -2.9465 -3.1307
   36POPC  C310 4883   4.448   6.534   9.225  0.4194  0.5737  0.1910
   36POPC  H10X 4884   4.389   6.628   9.215  0.6281  0.6794 -0.0475
   36POPC  H10Y 4885   4.378   6.458   9.184  0.7906  0.8411 -0.9762
   36POPC  C311 4886   4.567   6.540   9.133  0.5236  0.5425  0.1317
   36POPC  H11X 4887   4.636   6.461   9.169  3.9662  3.3548  0.3138
   36POPC  H11Y 4888   4.624   6.631   9.163  1.7830 -0.1164 -0.2002
   36POPC  C312 4889   4.543   6.517   8.987 -0.4881 -0.5936 -0.0036
   36POPC  H12X 4890   4.461   6.444   8.969  0.4613 -2.2793  2.0362
   36POPC  H12Y 4891   4.636   6.474   8.945  0.2057  0.3723  0.4969
   36POPC  C313 4892   4.522   6.655   8.922  0.6647 -0.4650  0.0308
   36POPC  H13X 4893   4.611   6.712   8.957 -0.3551 -0.2026  2.3873
   36POPC  H13Y 4894   4.430   6.700   8.965  0.2382 -1.3619  0.0579
   36POPC  C314 4895   4.508   6.655   8.770 -0.2380  0.4467 -0.1419
   36POPC  H14X 4896   4.608   6.634   8.726 -0.3820 -1.0580  0.2211
   36POPC  H14Y 4897   4.484   6.760   8.743 -3.1126 -0.0095  0.3763
   36POPC  C315 4898   4.412   6.554   8.706 -0.6091 -0.4687 -0.1377
   36POPC  H15X 4899   4.323   6.546   8.772  1.4342  0.2027  2.8842
   36POPC  H15Y 4900   4.461   6.454   8.714  1.3230  0.2248 -2.1931
   36POPC  C316 4901   4.370   6.584   8.565 -0.6838  0.3993  0.2089
   36POPC  H16X 4902   4.348   6.691   8.547  0.4554  0.7146  0.5862
   36POPC  H16Y 4903   4.280   6.523   8.543  0.3031 -1.0626  0.0861
   36POPC  H16Z 4904   4.446   6.543   8.495  0.0039 -2.8789  2.6303
   37POPC     N 4905   5.700   1.679   6.160 -0.4081  0.3124 -0.5821
   37POPC   C12 4906   5.605   1.784   6.206  0.0701 -0.2556 -0.0178
   37POPC  H12A 4907   5.516   1.779   6.145  1.4528 -0.0417 -2.1508
   37POPC  H12B 4908   5.644   1.882   6.187 -0.9030  0.4153  1.2434
   37POPC   C13 4909   5.658   1.537   6.208  0.8907  0.0453 -0.7322
   37POPC  H13A 4910   5.553   1.531   6.185 -0.0017  2.2844  2.0641
   37POPC  H13B 4911   5.719   1.457   6.168  2.5983 -0.4218  2.4084
   37POPC  H13C 4912   5.654   1.538   6.316 -0.5784  0.4665 -0.7679
   37POPC   C14 4913   5.703   1.684   6.017  0.8163 -0.3315  0.7074
   37POPC  H14A 4914   5.770   1.611   5.974  1.4177  1.5665 -1.8394
   37POPC  H14B 4915   5.605   1.660   5.980  0.9585  0.9320 -0.5890
   37POPC  H14C 4916   5.729   1.783   5.982  1.2735 -0.6453  0.1304
   37POPC   C15 4917   5.830   1.714   6.217 -0.5913 -0.4798  1.1393
   37POPC  H15A 4918   5.821   1.702   6.324  0.2806 -2.5249  1.0329
   37POPC  H15B 4919   5.876   1.807   6.186 -0.6231 -0.9124 -0.2657
   37POPC  H15C 4920   5.902   1.640   6.186  2.1265  2.5755 -0.5673
   37POPC   C11 4921   5.551   1.783   6.347 -0.1059 -0.0256 -0.5687
   37POPC  H11A 4922   5.515   1.886   6.370  0.0430  0.2375 -1.4888
   37POPC  H11B 4923   5.632   1.768   6.423  0.8642 -2.6102 -2.0053
   37POPC     P 4924   5.403   1.621   6.509 -0.0369 -0.1412  0.1854
   37POPC   O13 4925   5.411   1.475   6.502  0.0552 -0.3652 -0.6734
   37POPC   O14 4926   5.279   1.699   6.549  0.3722 -0.0897  0.1350
   37POPC   O12 4927   5.451   1.680   6.369 -0.1382 -0.0686  0.4965
   37POPC   O11 4928   5.512   1.664   6.616 -0.6348  0.2296  0.8772
   37POPC    C1 4929   5.637   1.596   6.623 -0.3366  0.6415 -0.4776
   37POPC    HA 4930   5.724   1.663   6.606  2.8883 -2.8898  0.6697
   37POPC    HB 4931   5.647   1.519   6.543  0.1121  0.7772 -0.5552
   37POPC    C2 4932   5.659   1.529   6.766  0.0933 -0.3321  0.7810
   37POPC    HS 4933   5.604   1.433   6.768  2.3531 -1.7074  0.2478
   37POPC   O21 4934   5.644   1.616   6.871  0.0753  0.1442  0.1119
   37POPC   C21 4935   5.527   1.633   6.925 -0.4921 -0.5286 -0.8945
   37POPC   O22 4936   5.427   1.568   6.903  0.1132 -0.5661 -0.4298
   37POPC   C22 4937   5.545   1.732   7.044  0.9244  0.2719 -0.1720
   37POPC   H2R 4938   5.534   1.830   6.992 -0.4572 -0.0108 -0.4538
   37POPC   H2S 4939   5.641   1.718   7.098  0.5335 -1.1929  0.1783
   37POPC    C3 4940   5.811   1.480   6.772  0.2942 -0.1546  0.7741
   37POPC    HX 4941   5.867   1.574   6.789 -0.9303  0.7546  0.0034
   37POPC    HY 4942   5.843   1.423   6.682  1.1960  1.1715  0.2328
   37POPC   O31 4943   5.829   1.403   6.894 -0.6064 -0.1178  0.1121
   37POPC   C31 4944   5.959   1.393   6.945  0.0586  0.0201  0.6383
   37POPC   O32 4945   6.055   1.444   6.886  0.0830  0.2560  0.6673
   37POPC   C32 4946   5.954   1.329   7.085  0.3179 -1.0737  0.1709
   37POPC   H2X 4947   6.044   1.265   7.096  1.3434  0.2843 -0.0569
   37POPC   H2Y 4948   5.869   1.257   7.087 -0.8676 -0.2269 -4.9611
   37POPC   C23 4949   5.425   1.728   7.144 -0.0410  0.2618  0.9245
   37POPC   H3R 4950   5.433   1.633   7.201  1.2559  0.1917  0.6576
   37POPC   H3S 4951   5.324   1.739   7.100  0.1057  1.6941  0.8879
   37POPC   C24 4952   5.440   1.849   7.231  0.5843 -0.4672 -0.7049
   37POPC   H4R 4953   5.462   1.930   7.159 -0.7076  0.8628  0.3401
   37POPC   H4S 4954   5.529   1.844   7.297  0.7160  1.0266 -0.7349
   37POPC   C25 4955   5.313   1.881   7.321  0.4150  0.5024 -0.4788
   37POPC   H5R 4956   5.225   1.852   7.261 -1.2213  0.6663  1.7271
   37POPC   H5S 4957   5.310   1.992   7.326  0.5649  0.4912 -0.0930
   37POPC   C26 4958   5.306   1.795   7.454  0.4757  0.0768  0.4243
   37POPC   H6R 4959   5.394   1.832   7.510  1.5154  0.8226 -1.5746
   37POPC   H6S 4960   5.315   1.689   7.424  1.2759 -0.0661  1.1679
   37POPC   C27 4961   5.171   1.818   7.527 -1.2178 -0.5060  0.6807
   37POPC   H7R 4962   5.089   1.788   7.457  0.2990  0.0751 -1.4346
   37POPC   H7S 4963   5.163   1.927   7.546 -1.3329 -0.6091  1.2541
   37POPC   C28 4964   5.155   1.746   7.662  0.3671 -0.2872 -0.1710
   37POPC   H8R 4965   5.176   1.640   7.636  0.4487 -0.0703 -0.9989
   37POPC   H8S 4966   5.048   1.766   7.681  0.6262  2.8455 -1.4677
   37POPC   C29 4967   5.242   1.793   7.772  0.2654  0.0274 -0.3050
   37POPC   H91 4968   5.350   1.768   7.771  0.4574  0.8497 -0.2565
   37POPC  C210 4969   5.199   1.884   7.863 -0.6124  0.1193  0.4673
   37POPC  H101 4970   5.260   1.888   7.954  0.4616 -1.0219 -0.1584
   37POPC  C211 4971   5.071   1.956   7.886  0.0130  0.3867 -0.0365
   37POPC  H11R 4972   5.023   1.980   7.789  3.1471  0.4040 -1.7240
   37POPC  H11S 4973   5.102   2.054   7.930 -0.2672  0.6265 -0.3736
   37POPC  C212 4974   4.983   1.872   7.980  0.6692  0.4747  0.3157
   37POPC  H12R 4975   5.029   1.855   8.080  0.8057  1.5080  0.4436
   37POPC  H12S 4976   4.963   1.775   7.930 -0.3676  1.4877 -1.3159
   37POPC  C213 4977   4.848   1.943   8.008 -0.7888 -0.1290 -0.0482
   37POPC  H13R 4978   4.794   1.943   7.911 -0.6659  2.1125 -0.1906
   37POPC  H13S 4979   4.875   2.049   8.031  1.8876 -0.7947  0.2032
   37POPC  C214 4980   4.764   1.887   8.121 -0.1884  0.6351 -0.2408
   37POPC  H14R 4981   4.835   1.862   8.203  1.1529  2.5659 -0.7255
   37POPC  H14S 4982   4.709   1.798   8.085  0.7081  0.4891 -1.3417
   37POPC  C215 4983   4.673   1.987   8.182 -0.2450 -0.6500 -0.4858
   37POPC  H15R 4984   4.732   2.078   8.207  1.1141 -1.2742 -1.2958
   37POPC  H15S 4985   4.639   1.951   8.282 -2.1750 -1.0420 -1.2377
   37POPC  C216 4986   4.552   2.031   8.092  0.3817  0.0531 -0.1830
   37POPC  H16R 4987   4.504   1.936   8.060 -0.4665  0.1848  0.6623
   37POPC  H16S 4988   4.589   2.083   8.001 -1.4129  0.1720 -0.8878
   37POPC  C217 4989   4.450   2.122   8.169 -0.2697 -0.1038  0.4191
   37POPC  H17R 4990   4.399   2.069   8.252  0.5070  3.0947  3.1513
   37POPC  H17S 4991   4.374   2.155   8.095 -1.1464 -0.0065  1.3356
   37POPC  C218 4992   4.501   2.251   8.235  0.3838  0.5712  0.0329
   37POPC  H18R 4993   4.581   2.297   8.173  0.9170 -0.2102  0.1163
   37POPC  H18S 4994   4.541   2.220   8.334 -0.0155 -0.0908 -0.0057
   37POPC  H18T 4995   4.417   2.322   8.249  1.2912  1.6649  0.0958
   37POPC   C33 4996   5.954   1.441   7.200  0.5555  0.5143 -0.2694
   37POPC   H3X 4997   5.876   1.512   7.165  0.8543 -0.1503 -2.4255
   37POPC   H3Y 4998   6.054   1.488   7.207  0.0189  1.6520 -0.1331
   37POPC   C34 4999   5.905   1.388   7.336 -0.3330  0.1089  0.3470
   37POPC   H4X 5000   5.829   1.308   7.348  1.6346 -1.8469  0.4257
   37POPC   H4Y 5001   5.881   1.478   7.396 -3.3194 -0.2684 -0.1117
   37POPC   C35 5002   6.021   1.334   7.424  0.2797 -0.0129  0.2376
   37POPC   H5X 5003   6.105   1.397   7.388 -0.8877  0.7471 -1.2881
   37POPC   H5Y 5004   6.041   1.234   7.380 -0.5710  0.8467 -2.2949
   37POPC   C36 5005   6.009   1.355   7.574 -0.5795  0.0923 -0.1235
   37POPC   H6X 5006   5.922   1.297   7.611 -0.6696 -1.5888 -2.7551
   37POPC   H6Y 5007   5.984   1.462   7.592 -1.3049  0.0284 -0.7066
   37POPC   C37 5008   6.136   1.319   7.655  0.3359 -0.3651  0.0745
   37POPC   H7X 5009   6.219   1.387   7.626  1.0212 -1.3657 -0.3756
   37POPC   H7Y 5010   6.177   1.216   7.655 -0.5618 -0.7343  0.6057
   37POPC   C38 5011   6.117   1.334   7.813  0.5226  0.1881  0.5931
   37POPC   H8X 5012   6.109   1.444   7.828  2.3450  0.3924  0.3632
   37POPC   H8Y 5013   6.213   1.304   7.861  2.7920  1.0588 -3.0348
   37POPC   C39 5014   6.007   1.246   7.877 -0.0490 -0.2649  0.8818
   37POPC   H9X 5015   6.028   1.138   7.862  2.6922  0.3006  0.1230
   37POPC   H9Y 5016   5.905   1.273   7.841 -1.0991 -3.5809  1.0597
   37POPC  C310 5017   6.006   1.269   8.031  0.5404  0.0129  0.9466
   37POPC  H10X 5018   5.989   1.374   8.061 -0.5815 -0.4213  1.8999
   37POPC  H10Y 5019   6.109   1.239   8.062  1.7230  1.6424 -1.1897
   37POPC  C311 5020   5.894   1.183   8.097  0.0974 -0.0828 -0.3073
   37POPC  H11X 5021   5.900   1.080   8.058  0.4661 -0.1571 -0.0585
   37POPC  H11Y 5022   5.799   1.224   8.057  0.5709  2.1643  0.7115
   37POPC  C312 5023   5.912   1.185   8.247  0.0235 -0.0063 -0.4588
   37POPC  H12X 5024   5.929   1.290   8.279 -1.0317 -0.1105  0.4966
   37POPC  H12Y 5025   6.001   1.123   8.270  0.2358  0.9177  1.3530
   37POPC  C313 5026   5.789   1.127   8.322  0.0355 -0.0759 -0.1857
   37POPC  H13X 5027   5.771   1.030   8.271  1.3652 -0.7907  0.6304
   37POPC  H13Y 5028   5.705   1.199   8.313 -0.1406 -0.5906 -5.9682
   37POPC  C314 5029   5.820   1.095   8.466  0.2776 -0.2920  0.4748
   37POPC  H14X 5030   5.857   1.195   8.498  0.4184  0.0296 -0.6546
   37POPC  H14Y 5031   5.898   1.017   8.473 -1.6732 -2.4394 -0.3476
   37POPC  C315 5032   5.695   1.043   8.537  0.2114  1.0078 -0.5083
   37POPC  H15X 5033   5.617   1.122   8.536 -0.1482  0.6581 -1.7866
   37POPC  H15Y 5034   5.740   1.029   8.638 -0.1526 -0.4228 -0.5252
   37POPC  C316 5035   5.651   0.906   8.495 -0.1512 -0.4956  0.1752
   37POPC  H16X 5036   5.567   0.868   8.557 -1.5772  1.0366 -0.7465
   37POPC  H16Y 5037   5.740   0.840   8.491  0.7139  0.6951 -2.3279
   37POPC  H16Z 5038   5.600   0.909   8.397 -0.7756 -0.7938  0.4874
   38POPC     N 5039   1.658   2.328   6.401  0.4971  0.1201 -0.0629
   38POPC   C12 5040   1.519   2.332   6.473  0.0694 -0.4749 -0.3658
   38POPC  H12A 5041   1.527   2.315   6.579  1.3085 -1.3699 -0.5780
   38POPC  H12B 5042   1.456   2.253   6.435 -2.6587  1.8345 -0.9423
   38POPC   C13 5043   1.641   2.386   6.266 -0.7776 -0.1633 -0.1583
   38POPC  H13A 5044   1.562   2.339   6.210 -0.2184 -0.7697 -0.4522
   38POPC  H13B 5045   1.620   2.492   6.272 -0.9725 -0.1473 -1.0685
   38POPC  H13C 5046   1.732   2.369   6.212 -0.6797  0.8521 -0.3189
   38POPC   C14 5047   1.750   2.414   6.474 -0.5112  0.2433 -0.5703
   38POPC  H14A 5048   1.703   2.511   6.482  0.8934  0.9240 -0.2090
   38POPC  H14B 5049   1.763   2.376   6.574  0.3275  2.3014  0.1717
   38POPC  H14C 5050   1.850   2.420   6.431 -0.6941  2.3505 -0.8333
   38POPC   C15 5051   1.710   2.192   6.389  0.1167 -0.2363  0.0619
   38POPC  H15A 5052   1.723   2.150   6.488  0.0629 -0.5256 -0.0523
   38POPC  H15B 5053   1.803   2.179   6.336  1.4449 -4.0261  2.8640
   38POPC  H15C 5054   1.636   2.125   6.346 -0.2383 -0.2972  0.7517
   38POPC   C11 5055   1.427   2.461   6.477  0.4594  0.5361 -0.2217
   38POPC  H11A 5056   1.484   2.529   6.544 -1.7553  0.6627  1.6415
   38POPC  H11B 5057   1.332   2.425   6.522  0.6485 -0.2410 -0.4364
   38POPC     P 5058   1.378   2.675   6.346 -0.0730 -0.3621  0.0985
   38POPC   O13 5059   1.254   2.707   6.275 -0.0400  0.0497  0.5060
   38POPC   O14 5060   1.505   2.731   6.290 -0.5196 -0.1143 -0.1630
   38POPC   O12 5061   1.405   2.513   6.348  0.1779 -0.3252  0.2542
   38POPC   O11 5062   1.371   2.707   6.493  0.2199 -0.3168 -0.1435
   38POPC    C1 5063   1.304   2.832   6.544 -0.0358  0.2185 -0.2237
   38POPC    HA 5064   1.312   2.836   6.655 -1.3978 -2.3841  0.0547
   38POPC    HB 5065   1.195   2.827   6.523 -0.1496  0.4185  0.3168
   38POPC    C2 5066   1.356   2.961   6.478  0.1489 -0.4624  0.1110
   38POPC    HS 5067   1.355   2.957   6.367 -0.3706  1.9372 -0.0098
   38POPC   O21 5068   1.491   2.991   6.526  0.4960 -0.0452  0.0738
   38POPC   C21 5069   1.558   3.083   6.460  0.1897 -1.0968 -0.7576
   38POPC   O22 5070   1.519   3.140   6.357  0.2831 -0.0853 -0.0258
   38POPC   C22 5071   1.678   3.123   6.531  0.3183 -0.7909 -0.2943
   38POPC   H2R 5072   1.744   3.188   6.471  0.0695  0.8537  1.1357
   38POPC   H2S 5073   1.742   3.035   6.555 -0.2554 -0.7332  1.5861
   38POPC    C3 5074   1.270   3.084   6.508  0.4675  0.0614  0.0159
   38POPC    HX 5075   1.169   3.067   6.463  1.1559 -0.5881 -1.3490
   38POPC    HY 5076   1.305   3.166   6.443 -0.6971  0.2160 -0.4445
   38POPC   O31 5077   1.264   3.133   6.643  0.2363 -0.2235  0.0762
   38POPC   C31 5078   1.154   3.094   6.714  0.6790 -0.4865  0.1676
   38POPC   O32 5079   1.071   3.015   6.672 -0.0772  0.4694 -0.5006
   38POPC   C32 5080   1.163   3.151   6.865  0.2779  0.5308  0.4658
   38POPC   H2X 5081   1.271   3.160   6.886  0.4624 -2.6054  1.2522
   38POPC   H2Y 5082   1.110   3.080   6.932 -0.9427  1.1053  0.1521
   38POPC   C23 5083   1.646   3.199   6.665  0.6493  0.9637  0.5411
   38POPC   H3R 5084   1.571   3.280   6.652 -0.8676 -0.1395  1.9112
   38POPC   H3S 5085   1.745   3.243   6.689  1.0594  0.0973  0.4620
   38POPC   C24 5086   1.608   3.113   6.781  0.2310 -0.0694 -0.7329
   38POPC   H4R 5087   1.694   3.046   6.803  1.7271  2.3517  1.4741
   38POPC   H4S 5088   1.519   3.054   6.753 -1.4882  1.7578  0.6287
   38POPC   C25 5089   1.585   3.194   6.913  0.0296  0.8484 -0.3531
   38POPC   H5R 5090   1.509   3.272   6.892 -0.6904  0.8611  1.9919
   38POPC   H5S 5091   1.679   3.248   6.938  0.6072  0.3014 -1.2855
   38POPC   C26 5092   1.536   3.109   7.032  0.1947 -0.5245 -1.0268
   38POPC   H6R 5093   1.623   3.041   7.046 -0.0637 -0.8392 -0.9328
   38POPC   H6S 5094   1.444   3.053   7.006  0.2869 -1.1099 -0.1593
   38POPC   C27 5095   1.501   3.190   7.155 -0.0546 -0.3532 -0.3878
   38POPC   H7R 5096   1.403   3.238   7.135 -1.3168 -2.0556  1.3455
   38POPC   H7S 5097   1.588   3.258   7.165  0.1154 -0.5086 -0.7714
   38POPC   C28 5098   1.478   3.109   7.292  0.6450  0.3390  0.4031
   38POPC   H8R 5099   1.400   3.033   7.269  0.5368  0.5624  0.0233
   38POPC   H8S 5100   1.445   3.194   7.356 -1.5344 -1.5816  2.0121
   38POPC   C29 5101   1.615   3.058   7.334  0.2184  0.0486 -0.6214
   38POPC   H91 5102   1.680   3.026   7.252 -1.6758  2.9342 -3.4907
   38POPC  C210 5103   1.660   3.058   7.460 -0.2567  0.0923  0.8333
   38POPC  H101 5104   1.764   3.025   7.471 -0.5761 -1.2189  0.1101
   38POPC  C211 5105   1.574   3.089   7.581  0.6319 -0.8476 -0.6077
   38POPC  H11R 5106   1.464   3.087   7.563  0.5602 -2.6869 -0.2246
   38POPC  H11S 5107   1.585   3.193   7.619 -1.1924 -1.2704  1.2611
   38POPC  C212 5108   1.604   3.007   7.708 -0.0799 -0.0089  0.9772
   38POPC  H12R 5109   1.712   2.992   7.727  0.1336 -0.3350 -0.4054
   38POPC  H12S 5110   1.539   2.916   7.703 -1.9244  1.2531  1.0064
   38POPC  C213 5111   1.538   3.067   7.834  0.2688  0.2523  0.4603
   38POPC  H13R 5112   1.440   3.113   7.807 -0.3294 -1.3962 -0.3099
   38POPC  H13S 5113   1.615   3.139   7.872  0.3627  1.3242 -1.6177
   38POPC  C214 5114   1.506   2.959   7.932  0.9443 -0.0579 -0.2922
   38POPC  H14R 5115   1.595   2.892   7.940  0.0305 -1.3827 -0.8983
   38POPC  H14S 5116   1.426   2.899   7.884 -1.4779  1.6055  1.4842
   38POPC  C215 5117   1.467   3.002   8.072  0.5763 -0.0323  0.4022
   38POPC  H15R 5118   1.371   3.057   8.082  0.2869 -0.7096  1.4763
   38POPC  H15S 5119   1.546   3.065   8.118 -0.8109  1.4886  0.7837
   38POPC  C216 5120   1.457   2.875   8.156 -0.2228 -0.8494  0.2669
   38POPC  H16R 5121   1.553   2.822   8.143  0.1997 -0.3094  1.0724
   38POPC  H16S 5122   1.366   2.820   8.122 -0.3589  0.1168 -0.9995
   38POPC  C217 5123   1.435   2.914   8.308  0.4846 -0.0918  0.6213
   38POPC  H17R 5124   1.427   2.821   8.368  1.5346 -0.7571 -0.2261
   38POPC  H17S 5125   1.332   2.954   8.311  0.8129  0.7356  1.4594
   38POPC  C218 5126   1.522   3.021   8.370 -0.4541 -0.3065  0.8230
   38POPC  H18R 5127   1.496   3.120   8.327  0.9664 -0.7428 -1.1752
   38POPC  H18S 5128   1.629   3.002   8.347 -1.1879 -2.6533 -1.0769
   38POPC  H18T 5129   1.500   3.028   8.479 -0.5855 -1.4726  0.8842
   38POPC   C33 5130   1.105   3.298   6.878 -0.3597 -0.6373 -0.2712
   38POPC   H3X 5131   0.997   3.311   6.854  0.2008  2.2871 -1.5581
   38POPC   H3Y 5132   1.162   3.356   6.804  2.4624 -1.5844  1.0227
   38POPC   C34 5133   1.152   3.349   7.017 -0.1480  0.1723 -0.3418
   38POPC   H4X 5134   1.112   3.452   7.027 -1.9415 -0.5113  0.0600
   38POPC   H4Y 5135   1.262   3.343   7.011 -0.1507  0.9081 -1.5431
   38POPC   C35 5136   1.115   3.267   7.144 -0.4741  0.9942 -0.3616
   38POPC   H5X 5137   1.185   3.181   7.140 -3.6523 -1.7199 -2.6601
   38POPC   H5Y 5138   1.014   3.223   7.134  0.3058 -0.4886 -2.3003
   38POPC   C36 5139   1.151   3.338   7.274 -0.1744 -0.1825 -0.8032
   38POPC   H6X 5140   1.083   3.425   7.290  0.3518  0.2801 -1.0384
   38POPC   H6Y 5141   1.257   3.368   7.272 -0.4394  0.7783 -0.8276
   38POPC   C37 5142   1.137   3.235   7.388 -0.2474  0.0766  0.0086
   38POPC   H7X 5143   1.181   3.137   7.362  0.9842  0.2336  1.3235
   38POPC   H7Y 5144   1.029   3.222   7.411 -0.6462  1.2631 -1.0591
   38POPC   C38 5145   1.200   3.285   7.515  0.0242 -1.3425  0.3724
   38POPC   H8X 5146   1.157   3.387   7.526 -0.4591 -1.4095 -0.7914
   38POPC   H8Y 5147   1.304   3.311   7.487 -0.9281  1.7267 -0.7221
   38POPC   C39 5148   1.196   3.206   7.645 -0.1048  0.2002 -0.1211
   38POPC   H9X 5149   1.267   3.122   7.630 -0.9693 -0.4767 -0.5268
   38POPC   H9Y 5150   1.097   3.157   7.662 -0.0595  0.6708  1.6829
   38POPC  C310 5151   1.228   3.275   7.775 -1.3159 -0.0675  0.1836
   38POPC  H10X 5152   1.317   3.339   7.765 -0.5974 -0.4188  3.3524
   38POPC  H10Y 5153   1.249   3.195   7.849  2.6297  1.0495  0.4620
   38POPC  C311 5154   1.115   3.368   7.826  0.2151  0.5328  0.2790
   38POPC  H11X 5155   1.025   3.307   7.845  0.9956 -0.0264  2.6544
   38POPC  H11Y 5156   1.100   3.433   7.738 -0.1626  1.4863  1.0214
   38POPC  C312 5157   1.151   3.459   7.949 -0.0980  0.1233  0.1724
   38POPC  H12X 5158   1.073   3.538   7.960  1.5808  1.8608  0.0958
   38POPC  H12Y 5159   1.243   3.517   7.926 -0.1452  0.1843  0.1373
   38POPC  C313 5160   1.186   3.383   8.074 -0.2626  0.8121 -0.1938
   38POPC  H13X 5161   1.268   3.309   8.061 -1.5489 -0.8792  0.9061
   38POPC  H13Y 5162   1.102   3.318   8.106 -0.4355  0.3894 -1.4568
   38POPC  C314 5163   1.212   3.472   8.195 -0.7443 -0.2445  0.4320
   38POPC  H14X 5164   1.282   3.552   8.163 -0.8618  0.3583  1.6168
   38POPC  H14Y 5165   1.274   3.413   8.267 -0.7936 -1.6798 -0.6480
   38POPC  C315 5166   1.090   3.523   8.270  0.3357 -1.0159 -0.3127
   38POPC  H15X 5167   1.023   3.445   8.313 -2.6821  0.6218 -1.7100
   38POPC  H15Y 5168   1.020   3.575   8.201 -1.1250 -1.8605  0.4706
   38POPC  C316 5169   1.126   3.613   8.381  0.1073 -0.3205 -0.4477
   38POPC  H16X 5170   1.036   3.630   8.444 -1.1217  1.2512 -2.5000
   38POPC  H16Y 5171   1.165   3.709   8.339  0.5624 -0.8448 -1.2514
   38POPC  H16Z 5172   1.204   3.558   8.438 -0.1767 -0.8683 -0.5855
   39POPC     N 5173   6.498   0.493   5.834  0.7936  0.6975  0.2478
   39POPC   C12 5174   6.507   0.399   5.957  0.6502 -0.8012  0.8329
   39POPC  H12A 5175   6.608   0.390   5.994  0.4295  1.9746  2.3711
   39POPC  H12B 5176   6.469   0.302   5.926 -3.4866  0.3610  1.6030
   39POPC   C13 5177   6.501   0.639   5.880 -1.2315 -0.4972  0.3419
   39POPC  H13A 5178   6.519   0.697   5.791 -2.3521  2.3860  1.8709
   39POPC  H13B 5179   6.413   0.662   5.939  0.3485  1.8433  1.9158
   39POPC  H13C 5180   6.585   0.659   5.943 -0.2463 -1.9547 -0.4438
   39POPC   C14 5181   6.611   0.466   5.748 -0.2630 -0.3726  0.3728
   39POPC  H14A 5182   6.607   0.527   5.658  0.4354 -1.6636 -0.5645
   39POPC  H14B 5183   6.710   0.471   5.789 -0.1202  2.4387 -0.1019
   39POPC  H14C 5184   6.610   0.365   5.709  2.9168 -0.4851  0.2979
   39POPC   C15 5185   6.358   0.467   5.778  0.2368  0.0504  0.1410
   39POPC  H15A 5186   6.296   0.476   5.866  1.8682 -1.2460  1.5007
   39POPC  H15B 5187   6.344   0.366   5.741 -0.7451  0.2732 -0.1314
   39POPC  H15C 5188   6.325   0.540   5.705  1.4436 -0.4047 -0.9097
   39POPC   C11 5189   6.405   0.424   6.078 -0.3893 -0.7087  0.1952
   39POPC  H11A 5190   6.417   0.527   6.118 -1.0564 -0.6128  0.1486
   39POPC  H11B 5191   6.428   0.359   6.165 -2.4422 -0.6265  0.8516
   39POPC     P 5192   6.193   0.269   6.043  0.0512 -0.2771  0.3469
   39POPC   O13 5193   6.259   0.179   5.948  0.4691 -0.0974 -0.0970
   39POPC   O14 5194   6.052   0.299   6.006 -0.1036 -0.1606 -0.4134
   39POPC   O12 5195   6.271   0.407   6.040 -0.7267  0.1808  0.1161
   39POPC   O11 5196   6.201   0.214   6.191  0.1651 -0.4184 -0.2482
   39POPC    C1 5197   6.165   0.314   6.289 -0.3799  0.3257 -0.1103
   39POPC    HA 5198   6.062   0.353   6.279 -1.0670 -1.0696  1.0680
   39POPC    HB 5199   6.238   0.397   6.297  0.7690 -0.4715 -1.7387
   39POPC    C2 5200   6.171   0.247   6.431  0.7940 -0.8906  0.0764
   39POPC    HS 5201   6.084   0.179   6.446 -0.8131  1.1735  0.7077
   39POPC   O21 5202   6.172   0.354   6.530 -0.0082 -0.1194 -0.2686
   39POPC   C21 5203   6.056   0.391   6.580 -0.3887 -0.4954  0.5630
   39POPC   O22 5204   5.946   0.354   6.539  0.4355 -1.2397 -0.1428
   39POPC   C22 5205   6.082   0.483   6.701  0.3232 -0.2250 -0.4340
   39POPC   H2R 5206   6.051   0.583   6.666 -1.6613 -1.2767 -1.8949
   39POPC   H2S 5207   6.190   0.480   6.728 -0.4316 -0.2955  3.1537
   39POPC    C3 5208   6.293   0.151   6.439 -0.6851 -0.1459  0.3364
   39POPC    HX 5209   6.370   0.216   6.393 -0.5980 -0.1654  0.4545
   39POPC    HY 5210   6.283   0.062   6.373  0.7899  0.9961 -1.5088
   39POPC   O31 5211   6.319   0.107   6.576 -0.5864 -0.8635  0.0540
   39POPC   C31 5212   6.231   0.015   6.626 -0.1470  0.1818 -0.5009
   39POPC   O32 5213   6.144  -0.041   6.567 -0.4589 -0.3404  0.1032
   39POPC   C32 5214   6.260  -0.006   6.777 -0.6692  0.2136 -0.6704
   39POPC   H2X 5215   6.290   0.088   6.827  0.7538 -1.5149  2.0169
   39POPC   H2Y 5216   6.168  -0.042   6.828  0.6979 -0.5721  1.3832
   39POPC   C23 5217   5.985   0.454   6.822 -0.3069 -0.0058  0.1839
   39POPC   H3R 5218   5.880   0.465   6.788 -0.4839 -2.7061 -0.3326
   39POPC   H3S 5219   6.014   0.518   6.908 -0.0636  0.6408 -0.3632
   39POPC   C24 5220   5.994   0.306   6.857  0.3720  0.1483 -0.1108
   39POPC   H4R 5221   6.064   0.254   6.789  0.9303  0.5954  0.1135
   39POPC   H4S 5222   5.894   0.261   6.840 -0.1742  0.6304  1.6414
   39POPC   C25 5223   6.048   0.287   7.001  0.2426 -0.5298 -0.0940
   39POPC   H5R 5224   5.992   0.359   7.063 -0.9011 -2.1247  0.7853
   39POPC   H5S 5225   6.157   0.312   7.000  0.2009 -0.3409 -1.2503
   39POPC   C26 5226   6.047   0.139   7.055 -0.0886 -0.0471  0.0007
   39POPC   H6R 5227   6.124   0.130   7.135  0.1364  2.8616  0.2093
   39POPC   H6S 5228   6.070   0.067   6.973  0.4245  1.0133 -0.8029
   39POPC   C27 5229   5.910   0.107   7.116  0.5950 -0.5871  0.8543
   39POPC   H7R 5230   5.841   0.075   7.035  0.6860  1.2170  0.0095
   39POPC   H7S 5231   5.866   0.200   7.157  1.3775  0.1873 -0.0282
   39POPC   C28 5232   5.907  -0.014   7.201 -0.0687 -0.6757 -0.4392
   39POPC   H8R 5233   5.985   0.004   7.278  0.5583  2.0198 -1.5787
   39POPC   H8S 5234   5.927  -0.108   7.146 -0.3363 -1.0339  0.0669
   39POPC   C29 5235   5.766  -0.017   7.261 -0.5155 -0.2018 -0.1975
   39POPC   H91 5236   5.681  -0.020   7.192 -0.2313 -2.4785 -0.5193
   39POPC  C210 5237   5.743  -0.053   7.390 -0.5576 -0.3618  0.4706
   39POPC  H101 5238   5.639  -0.066   7.422 -0.8249 -1.3261 -0.7378
   39POPC  C211 5239   5.847  -0.089   7.495  0.2529  0.1203 -0.2563
   39POPC  H11R 5240   5.869   0.004   7.551 -1.3631  0.6565 -0.4665
   39POPC  H11S 5241   5.947  -0.118   7.455  1.2827  2.4250  0.4802
   39POPC  C212 5242   5.786  -0.190   7.598  0.3302 -0.5962 -0.4536
   39POPC  H12R 5243   5.766  -0.291   7.556 -1.8648 -1.7853  3.0468
   39POPC  H12S 5244   5.690  -0.143   7.628  1.5156  1.4403  0.3540
   39POPC  C213 5245   5.875  -0.207   7.724  0.1435 -0.4659 -0.5568
   39POPC  H13R 5246   5.889  -0.111   7.777  2.7277 -0.9192 -0.3273
   39POPC  H13S 5247   5.977  -0.236   7.693 -0.1237 -2.0077 -0.0995
   39POPC  C214 5248   5.820  -0.310   7.825 -0.1514 -0.3350  0.3907
   39POPC  H14R 5249   5.797  -0.404   7.771  0.6245 -0.6472  0.5821
   39POPC  H14S 5250   5.733  -0.279   7.886  0.1266  0.7370  0.2519
   39POPC  C215 5251   5.930  -0.342   7.931 -0.3472  0.1556  0.3436
   39POPC  H15R 5252   5.983  -0.248   7.955 -0.5382 -0.0293  1.5544
   39POPC  H15S 5253   6.011  -0.403   7.886 -1.5007 -0.7037 -0.6721
   39POPC  C216 5254   5.869  -0.407   8.060 -0.2520  0.0295 -0.3661
   39POPC  H16R 5255   5.853  -0.513   8.033 -0.9697  0.1450 -0.3932
   39POPC  H16S 5256   5.772  -0.358   8.080  0.5842  1.2871  0.8259
   39POPC  C217 5257   5.965  -0.405   8.184  0.8095  0.4423 -0.3613
   39POPC  H17R 5258   5.940  -0.468   8.272  1.4374  1.1479  0.3248
   39POPC  H17S 5259   5.946  -0.304   8.227  1.5479  0.2832  0.3670
   39POPC  C218 5260   6.111  -0.424   8.158 -0.4941 -0.5552  0.2486
   39POPC  H18R 5261   6.164  -0.405   8.254 -0.8251  1.3282  0.0945
   39POPC  H18S 5262   6.157  -0.350   8.090  1.4572 -0.0215  2.0439
   39POPC  H18T 5263   6.129  -0.530   8.129  0.0640 -0.7837  1.3706
   39POPC   C33 5264   6.372  -0.119   6.800 -0.7578 -0.2684  0.7588
   39POPC   H3X 5265   6.460  -0.066   6.758 -1.0987  0.3553  0.8072
   39POPC   H3Y 5266   6.346  -0.214   6.748  1.3666 -0.4471 -0.0631
   39POPC   C34 5267   6.418  -0.143   6.952  0.5539  0.4971  0.9438
   39POPC   H4X 5268   6.461  -0.047   6.987  1.1559 -0.3213  2.5997
   39POPC   H4Y 5269   6.497  -0.220   6.942  0.5573  0.7697 -1.7326
   39POPC   C35 5270   6.306  -0.198   7.040  0.0539 -0.5326 -0.3744
   39POPC   H5X 5271   6.281  -0.294   6.990  0.2445 -0.7366 -0.0810
   39POPC   H5Y 5272   6.226  -0.122   7.032 -0.9403 -1.5835 -0.5962
   39POPC   C36 5273   6.348  -0.223   7.187  0.1211  0.2377  0.3179
   39POPC   H6X 5274   6.402  -0.138   7.234  2.8769 -1.6663  0.7724
   39POPC   H6Y 5275   6.416  -0.309   7.173 -0.8624 -0.2372 -1.9372
   39POPC   C37 5276   6.232  -0.264   7.274 -0.1420  0.6866 -0.4348
   39POPC   H7X 5277   6.208  -0.368   7.244 -1.2800  0.1187  2.1408
   39POPC   H7Y 5278   6.135  -0.216   7.249  0.0174  0.8486 -0.7358
   39POPC   C38 5279   6.249  -0.262   7.421 -0.1598 -0.0681  0.2785
   39POPC   H8X 5280   6.333  -0.333   7.434  0.3333  0.5797  0.6959
   39POPC   H8Y 5281   6.159  -0.304   7.472 -0.3949 -0.0234 -0.0911
   39POPC   C39 5282   6.279  -0.124   7.482  0.1043 -0.7938  0.6709
   39POPC   H9X 5283   6.209  -0.053   7.431  0.3532 -1.5376 -0.7519
   39POPC   H9Y 5284   6.378  -0.101   7.438  0.0593 -0.9500  0.4881
   39POPC  C310 5285   6.294  -0.112   7.637  0.0211 -0.3358  1.2333
   39POPC  H10X 5286   6.390  -0.159   7.664  0.6929 -1.1434 -2.0432
   39POPC  H10Y 5287   6.195  -0.155   7.664 -0.5030 -0.0940 -0.1892
   39POPC  C311 5288   6.278   0.037   7.670  0.3809 -0.0113 -0.2753
   39POPC  H11X 5289   6.178   0.070   7.635 -1.4821 -2.7540  2.0598
   39POPC  H11Y 5290   6.350   0.104   7.616 -0.3848  2.3139  1.4240
   39POPC  C312 5291   6.312   0.075   7.813  0.3331 -0.1394 -0.6528
   39POPC  H12X 5292   6.230   0.036   7.877  2.6212 -2.1602  1.2524
   39POPC  H12Y 5293   6.309   0.185   7.826  0.4034  0.0316 -1.9734
   39POPC  C313 5294   6.445   0.025   7.855  0.1116 -0.2112 -0.1454
   39POPC  H13X 5295   6.503   0.046   7.763  1.1189 -2.2302 -0.0312
   39POPC  H13Y 5296   6.457  -0.084   7.871  2.1233 -0.0668 -0.4677
   39POPC  C314 5297   6.500   0.112   7.968 -0.0297  0.1438  0.0807
   39POPC  H14X 5298   6.426   0.095   8.049 -0.1655 -1.9389 -0.4331
   39POPC  H14Y 5299   6.497   0.220   7.940 -1.3811  0.0052 -0.3567
   39POPC  C315 5300   6.639   0.082   8.021 -0.1937 -0.2859 -0.0284
   39POPC  H15X 5301   6.709   0.110   7.939  1.2743 -1.7625  0.6551
   39POPC  H15Y 5302   6.645  -0.024   8.052 -1.7859 -0.0969  1.0406
   39POPC  C316 5303   6.681   0.166   8.144  0.5382  0.0720 -0.0904
   39POPC  H16X 5304   6.635   0.128   8.239 -1.0270  1.3534 -0.2855
   39POPC  H16Y 5305   6.645   0.271   8.138  1.0760  0.2645 -0.0136
   39POPC  H16Z 5306   6.791   0.153   8.153  0.3418 -1.0729  0.9446
   40POPC     N 5307   4.333   4.636   6.153 -1.0764 -0.1327  0.5211
   40POPC   C12 5308   4.428   4.748   6.190  0.0907 -0.2729 -0.1709
   40POPC  H12A 5309   4.483   4.744   6.283 -0.2053  0.1684  0.0300
   40POPC  H12B 5310   4.371   4.840   6.184  1.4971  0.7656  1.3745
   40POPC   C13 5311   4.249   4.605   6.269  0.0139 -0.7288 -0.2920
   40POPC  H13A 5312   4.189   4.516   6.255  0.2352 -0.8994 -0.1818
   40POPC  H13B 5313   4.305   4.565   6.353 -0.5875 -0.3327  0.3078
   40POPC  H13C 5314   4.186   4.686   6.301 -1.4160 -2.1760  0.7033
   40POPC   C14 5315   4.255   4.667   6.032 -0.0664 -0.9435  0.2295
   40POPC  H14A 5316   4.177   4.740   6.051 -0.4257 -1.1730 -0.3428
   40POPC  H14B 5317   4.315   4.716   5.957 -0.8500 -0.1780  0.0877
   40POPC  H14C 5318   4.208   4.575   6.001  0.2770  0.0398 -3.6914
   40POPC   C15 5319   4.414   4.513   6.126  0.5143  0.1642  0.1107
   40POPC  H15A 5320   4.355   4.426   6.103 -0.5646  0.7218  0.6994
   40POPC  H15B 5321   4.475   4.490   6.213  2.2896  2.3475 -0.4674
   40POPC  H15C 5322   4.474   4.530   6.038  0.4755  1.3120  0.2976
   40POPC   C11 5323   4.553   4.775   6.094  0.1844  0.0964  0.4451
   40POPC  H11A 5324   4.600   4.865   6.140  0.5257  0.1838 -0.0643
   40POPC  H11B 5325   4.527   4.809   5.991 -1.4988 -2.9143 -0.2411
   40POPC     P 5326   4.727   4.614   6.198 -0.3312 -0.1537  0.0227
   40POPC   O13 5327   4.858   4.680   6.186 -0.1794 -1.3309 -0.4435
   40POPC   O14 5328   4.717   4.466   6.196 -0.1676 -0.4940  0.6830
   40POPC   O12 5329   4.640   4.669   6.082 -0.8030  0.2179 -0.5640
   40POPC   O11 5330   4.646   4.669   6.328  0.1742 -1.0028  0.6340
   40POPC    C1 5331   4.697   4.764   6.423 -0.0952 -0.2485 -0.4762
   40POPC    HA 5332   4.625   4.846   6.444  1.7391  1.1752  0.5277
   40POPC    HB 5333   4.792   4.814   6.397 -0.0467 -0.5280 -0.8430
   40POPC    C2 5334   4.724   4.687   6.557  0.0937  0.7284  0.7856
   40POPC    HS 5335   4.750   4.758   6.638 -0.8790 -0.0792  1.8402
   40POPC   O21 5336   4.841   4.597   6.531 -0.1869 -0.3534  0.1533
   40POPC   C21 5337   4.955   4.670   6.526  0.0362 -0.1386 -0.2612
   40POPC   O22 5338   4.958   4.793   6.532  0.7635  0.1242 -0.6021
   40POPC   C22 5339   5.073   4.571   6.510  0.2971 -0.2534  0.2550
   40POPC   H2R 5340   5.164   4.635   6.500  0.8530 -1.2249 -1.1165
   40POPC   H2S 5341   5.063   4.526   6.409 -1.3819  0.5451  0.0254
   40POPC    C3 5342   4.607   4.608   6.613  0.3084 -0.6088  0.4093
   40POPC    HX 5343   4.579   4.521   6.550 -2.2884  1.2950 -1.2420
   40POPC    HY 5344   4.514   4.668   6.607 -0.1500 -1.3617 -0.1429
   40POPC   O31 5345   4.648   4.576   6.748  0.0890  0.7261  1.2227
   40POPC   C31 5346   4.694   4.454   6.779 -0.0494 -0.2909  0.0399
   40POPC   O32 5347   4.700   4.359   6.705  0.1613 -0.1756  0.6181
   40POPC   C32 5348   4.722   4.444   6.923  0.2153 -0.0400  0.3249
   40POPC   H2X 5349   4.638   4.492   6.978  2.0562  2.0959  1.4455
   40POPC   H2Y 5350   4.813   4.498   6.957  0.7956 -0.3149 -0.7462
   40POPC   C23 5351   5.089   4.471   6.618  0.1376  1.3722 -0.0374
   40POPC   H3R 5352   5.192   4.431   6.606  0.1809  1.7633 -1.0767
   40POPC   H3S 5353   5.023   4.381   6.613 -0.8303  1.7235  3.7347
   40POPC   C24 5354   5.101   4.520   6.762  0.1107  0.7729  0.2180
   40POPC   H4R 5355   5.025   4.595   6.793 -2.0905 -1.9058  1.7447
   40POPC   H4S 5356   5.202   4.562   6.778  1.5643 -2.4257  0.2037
   40POPC   C25 5357   5.108   4.395   6.868  0.2216 -0.5287  0.3328
   40POPC   H5R 5358   5.197   4.343   6.829 -1.8019 -1.6506 -3.2973
   40POPC   H5S 5359   5.016   4.333   6.867  0.8169 -1.4216 -0.6581
   40POPC   C26 5360   5.151   4.450   7.014 -0.5538 -0.2427 -0.5547
   40POPC   H6R 5361   5.070   4.498   7.072 -1.3877  2.8715 -3.9028
   40POPC   H6S 5362   5.241   4.516   7.015 -0.3616 -0.4935  1.1315
   40POPC   C27 5363   5.206   4.336   7.104  0.3607  0.2599 -0.2711
   40POPC   H7R 5364   5.272   4.282   7.033 -0.7640 -1.1316 -0.2942
   40POPC   H7S 5365   5.116   4.274   7.126  0.3238  0.5576  0.4349
   40POPC   C28 5366   5.278   4.385   7.236  0.4931  0.1447  0.0820
   40POPC   H8R 5367   5.202   4.446   7.291 -0.0463 -0.4956  0.0644
   40POPC   H8S 5368   5.358   4.455   7.206  0.3063 -0.0614 -0.9359
   40POPC   C29 5369   5.335   4.270   7.316  0.2883  0.4444 -0.1001
   40POPC   H91 5370   5.389   4.197   7.255  2.0886  1.3000  0.3657
   40POPC  C210 5371   5.322   4.245   7.452 -0.0108 -0.8105  0.1688
   40POPC  H101 5372   5.378   4.163   7.500  1.8648 -0.9014 -2.0498
   40POPC  C211 5373   5.249   4.321   7.560  0.4631 -0.0176  0.8450
   40POPC  H11R 5374   5.159   4.270   7.601  1.4447 -0.9856  1.8743
   40POPC  H11S 5375   5.230   4.425   7.527  1.2927 -0.9042 -2.9741
   40POPC  C212 5376   5.338   4.345   7.692  0.3962  0.0458  0.6886
   40POPC  H12R 5377   5.433   4.394   7.662  0.7181 -1.4485 -0.8583
   40POPC  H12S 5378   5.376   4.245   7.719 -0.0977 -1.0449 -2.2789
   40POPC  C213 5379   5.274   4.437   7.797 -0.3017 -0.0719  0.6668
   40POPC  H13R 5380   5.179   4.398   7.838 -0.3209  1.5601  2.3071
   40POPC  H13S 5381   5.254   4.537   7.754  1.0178  0.0815  0.3603
   40POPC  C214 5382   5.357   4.462   7.913  0.1201  0.3035 -0.2274
   40POPC  H14R 5383   5.311   4.546   7.968 -3.0779 -0.8533 -0.9273
   40POPC  H14S 5384   5.464   4.466   7.884  0.1424 -0.0807 -0.2087
   40POPC  C215 5385   5.358   4.348   8.016 -0.0980  0.2648  0.8896
   40POPC  H15R 5386   5.389   4.256   7.962 -0.1652  1.1641 -0.7373
   40POPC  H15S 5387   5.260   4.331   8.065 -1.1458  2.1484 -0.3891
   40POPC  C216 5388   5.455   4.371   8.131 -0.0989  0.2802  0.5715
   40POPC  H16R 5389   5.557   4.406   8.104  0.9347 -2.0094  1.2634
   40POPC  H16S 5390   5.470   4.272   8.180  2.5931  0.3802  0.1079
   40POPC  C217 5391   5.410   4.470   8.232 -0.1538 -0.0144 -0.2807
   40POPC  H17R 5392   5.316   4.430   8.276  1.2413  0.7799  3.8896
   40POPC  H17S 5393   5.390   4.567   8.181 -1.0428 -0.0450  0.0005
   40POPC  C218 5394   5.510   4.496   8.349 -0.2229 -0.2631 -0.8687
   40POPC  H18R 5395   5.611   4.521   8.310  0.5812 -1.3312  0.4341
   40POPC  H18S 5396   5.520   4.408   8.416 -0.8706 -0.6142 -1.2171
   40POPC  H18T 5397   5.475   4.584   8.406 -0.3394  0.7631 -2.4570
   40POPC   C33 5398   4.724   4.293   6.964  0.1047 -0.1866  0.5228
   40POPC   H3X 5399   4.818   4.253   6.921 -0.6978 -0.1590 -1.3447
   40POPC   H3Y 5400   4.638   4.240   6.918 -0.2661  0.5612  0.3422
   40POPC   C34 5401   4.719   4.270   7.109  0.0515  0.1699  0.1406
   40POPC   H4X 5402   4.723   4.161   7.129 -1.2201  0.3045  1.2904
   40POPC   H4Y 5403   4.627   4.314   7.152  1.4551  2.1507  1.2754
   40POPC   C35 5404   4.820   4.344   7.197 -0.0735  0.6338 -0.6780
   40POPC   H5X 5405   4.811   4.455   7.191 -0.4534  0.5885 -0.9463
   40POPC   H5Y 5406   4.925   4.310   7.182 -0.2918 -0.9727  1.1248
   40POPC   C36 5407   4.794   4.309   7.346  0.5455  0.1300 -0.0614
   40POPC   H6X 5408   4.810   4.199   7.356  1.8070  0.1297 -1.5381
   40POPC   H6Y 5409   4.689   4.341   7.365  0.2783  0.9654 -2.5571
   40POPC   C37 5410   4.882   4.397   7.435 -0.1122  0.0520  0.7159
   40POPC   H7X 5411   4.851   4.503   7.428  0.3806  0.6165  4.7676
   40POPC   H7Y 5412   4.989   4.378   7.409 -0.0299  0.7480  0.5142
   40POPC   C38 5413   4.848   4.357   7.583 -0.3011 -0.2170 -0.3139
   40POPC   H8X 5414   4.911   4.268   7.604 -0.7545 -0.3358  0.6048
   40POPC   H8Y 5415   4.743   4.322   7.588  0.1161 -1.5104 -0.3461
   40POPC   C39 5416   4.895   4.471   7.673  0.8343 -0.5883 -0.7897
   40POPC   H9X 5417   4.840   4.563   7.644  0.5062 -0.3737  0.4510
   40POPC   H9Y 5418   5.004   4.483   7.654  0.8637  0.6414  0.0040
   40POPC  C310 5419   4.888   4.435   7.831 -0.4324  0.6122  0.3345
   40POPC  H10X 5420   4.962   4.355   7.850  0.0897  1.0239  0.0443
   40POPC  H10Y 5421   4.787   4.399   7.861  0.4082 -1.2704  1.0339
   40POPC  C311 5422   4.930   4.555   7.913 -0.9062 -0.6624  0.7672
   40POPC  H11X 5423   4.858   4.638   7.901  1.2776  0.9773 -1.8829
   40POPC  H11Y 5424   5.025   4.584   7.865 -2.9224  0.7636 -2.6930
   40POPC  C312 5425   4.944   4.531   8.060  0.7568 -0.3583 -0.1998
   40POPC  H12X 5426   5.004   4.440   8.078  0.8023 -0.3804 -0.4502
   40POPC  H12Y 5427   4.848   4.499   8.106 -0.1791 -0.3117 -2.0039
   40POPC  C313 5428   5.007   4.642   8.143  0.1342 -0.3951 -0.4476
   40POPC  H13X 5429   4.950   4.737   8.142  0.2797 -0.3140 -1.2776
   40POPC  H13Y 5430   5.113   4.665   8.123  0.3954  0.2939  1.4729
   40POPC  C314 5431   5.000   4.597   8.287 -0.8388 -0.0146 -0.1805
   40POPC  H14X 5432   5.070   4.511   8.290  1.3375  1.6860  1.4394
   40POPC  H14Y 5433   4.897   4.572   8.320 -1.4786  0.2133 -1.9058
   40POPC  C315 5434   5.078   4.682   8.389 -0.2022 -0.6888  0.2530
   40POPC  H15X 5435   5.182   4.676   8.350  0.3680  0.7241  1.4656
   40POPC  H15Y 5436   5.077   4.621   8.482 -2.5371 -0.9847  0.0909
   40POPC  C316 5437   5.035   4.828   8.413 -0.0793  0.2083  0.1867
   40POPC  H16X 5438   5.029   4.881   8.315 -1.5847 -0.6077 -0.2009
   40POPC  H16Y 5439   5.107   4.882   8.479 -0.8788  0.9140  0.5096
   40POPC  H16Z 5440   4.939   4.827   8.469 -0.8185 -0.2385 -1.0479
   41CHL1    C3 5441   1.143   3.873  10.082  0.5943  0.1199 -0.3012
   41CHL1    H3 5442   1.190   3.974  10.079  0.0703  0.3887  0.3901
   41CHL1    O3 5443   1.129   3.823  10.213 -0.0407  0.3845  0.3372
   41CHL1   H3' 5444   1.041   3.785  10.218  0.8293 -1.5739  3.0645
   41CHL1    C4 5445   1.004   3.902  10.022  0.5787  0.6030 -0.1466
   41CHL1   H4A 5446   0.934   3.818  10.045 -0.4406  1.6114  0.5456
   41CHL1   H4B 5447   0.964   3.980  10.091  0.1467  0.3031 -0.0519
   41CHL1    C5 5448   1.003   3.930   9.882 -0.1074  0.2835  0.9108
   41CHL1    C6 5449   0.944   4.045   9.839  0.7460  0.3686 -0.3657
   41CHL1    H6 5450   0.904   4.107   9.920  2.4738 -1.9277  2.4669
   41CHL1    C7 5451   0.943   4.088   9.699  0.1675  0.1240  0.8824
   41CHL1   H7A 5452   0.838   4.120   9.681 -0.4123 -2.3657 -0.5112
   41CHL1   H7B 5453   1.008   4.178   9.697  0.9241 -0.4225  0.2295
   41CHL1    C8 5454   0.993   3.979   9.595 -0.1244  0.1017 -0.0451
   41CHL1    H8 5455   0.916   3.901   9.586  2.0531 -2.1581 -0.1747
   41CHL1   C14 5456   1.021   4.034   9.458 -0.7961 -0.7399  0.0287
   41CHL1   H14 5457   1.100   4.113   9.464 -1.3305 -0.1424 -0.6220
   41CHL1   C15 5458   0.897   4.091   9.384 -0.0389  0.0438 -0.6450
   41CHL1  H15A 5459   0.797   4.045   9.397 -1.2184  2.3250 -1.0895
   41CHL1  H15B 5460   0.888   4.196   9.419  0.3778  0.3736 -1.4905
   41CHL1   C16 5461   0.930   4.078   9.237 -0.2983 -0.0481  0.4678
   41CHL1  H16A 5462   0.846   4.034   9.178 -0.7434  0.6418  0.5724
   41CHL1  H16B 5463   0.939   4.177   9.187 -0.9962  0.9522  2.2133
   41CHL1   C17 5464   1.068   4.005   9.228 -0.1419 -0.8874  0.4840
   41CHL1   H17 5465   1.142   4.087   9.223 -1.1650  0.0528  0.3127
   41CHL1   C13 5466   1.075   3.925   9.362  0.3746 -0.0203 -0.8422
   41CHL1   C18 5467   0.973   3.805   9.336  0.0154 -0.7048  0.1321
   41CHL1  H18A 5468   1.016   3.734   9.262 -0.7302  0.5610 -1.6107
   41CHL1  H18B 5469   0.964   3.739   9.424 -0.0714 -2.1063 -0.8868
   41CHL1  H18C 5470   0.871   3.829   9.299  0.7149 -0.6398 -1.8912
   41CHL1   C12 5471   1.209   3.876   9.413 -0.2455  0.1267  0.2013
   41CHL1  H12A 5472   1.267   3.804   9.352 -0.3407  1.8373 -2.0322
   41CHL1  H12B 5473   1.275   3.964   9.421 -0.3847  0.3221 -0.7142
   41CHL1   C11 5474   1.188   3.800   9.552  0.0576 -0.0130  0.7752
   41CHL1  H11A 5475   1.145   3.699   9.533 -1.1504  0.5441  0.4911
   41CHL1  H11B 5476   1.291   3.779   9.587  0.8209 -1.6660 -2.0799
   41CHL1    C9 5477   1.113   3.901   9.650 -0.8903 -0.6013  0.2511
   41CHL1    H9 5478   1.181   3.989   9.654  0.1900 -0.9290 -4.6871
   41CHL1   C10 5479   1.100   3.843   9.797  0.3813 -0.1235  0.0575
   41CHL1   C19 5480   1.020   3.708   9.785 -0.2228  0.4775  0.6830
   41CHL1  H19A 5481   0.968   3.679   9.878 -0.7262  1.6471  0.7787
   41CHL1  H19B 5482   0.943   3.718   9.705  1.6345  0.2096 -1.2604
   41CHL1  H19C 5483   1.093   3.632   9.748 -0.1408  1.5458 -1.5707
   41CHL1    C1 5484   1.240   3.819   9.857 -0.4099 -0.3292  0.2610
   41CHL1   H1A 5485   1.303   3.744   9.804  0.7393 -0.9164  2.3419
   41CHL1   H1B 5486   1.290   3.918   9.860 -0.1076 -0.4498 -0.5755
   41CHL1    C2 5487   1.223   3.775  10.000  0.0309 -0.2293  0.0404
   41CHL1   H2A 5488   1.324   3.785  10.045 -0.4504 -0.1709  1.1311
   41CHL1   H2B 5489   1.190   3.669  10.005  0.2697 -0.4281 -1.8257
   41CHL1   C20 5490   1.083   3.932   9.088  0.0677  0.4523 -0.0294
   41CHL1   H20 5491   1.009   3.849   9.095  2.3452 -1.5822  1.5363
   41CHL1   C21 5492   1.225   3.863   9.085 -0.7290  0.1450 -0.0939
   41CHL1  H21A 5493   1.301   3.936   9.121 -2.2604  1.2426  1.1070
   41CHL1  H21B 5494   1.250   3.834   8.981  0.9303 -1.6321  0.7538
   41CHL1  H21C 5495   1.231   3.776   9.153 -1.1895  0.4658  0.3711
   41CHL1   C22 5496   1.054   4.010   8.960 -0.3911 -0.1063 -0.4709
   41CHL1  H22A 5497   1.082   3.940   8.878 -0.9145 -1.5280  0.5311
   41CHL1  H22B 5498   0.946   4.031   8.966 -0.1997  0.4011  2.2852
   41CHL1   C23 5499   1.123   4.149   8.945  0.6309 -0.2168  0.0078
   41CHL1  H23A 5500   1.077   4.223   9.013  0.3404 -0.4109  0.0263
   41CHL1  H23B 5501   1.231   4.150   8.968  0.3685  0.4729  1.3094
   41CHL1   C24 5502   1.082   4.210   8.809 -0.0668 -0.5046 -0.5839
   41CHL1  H24A 5503   0.972   4.209   8.792  0.0594 -2.1995 -1.4641
   41CHL1  H24B 5504   1.127   4.312   8.809  0.5454 -0.7729 -0.2596
   41CHL1   C25 5505   1.140   4.139   8.686 -0.3636  0.2621 -0.6757
   41CHL1   H25 5506   1.089   4.042   8.668 -1.6199  1.3816 -3.7786
   41CHL1   C26 5507   1.118   4.224   8.554 -0.1294 -0.0224 -0.8312
   41CHL1  H26A 5508   1.170   4.322   8.556  1.1397 -0.6429 -2.0720
   41CHL1  H26B 5509   1.174   4.175   8.473  1.4843 -0.5224  0.5295
   41CHL1  H26C 5510   1.012   4.228   8.520 -0.4444  1.2624  0.1823
   41CHL1   C27 5511   1.288   4.109   8.709 -0.3435 -0.4000 -0.3504
   41CHL1  H27A 5512   1.341   4.058   8.626  2.1178  0.6891  0.4597
   41CHL1  H27B 5513   1.339   4.202   8.741  1.5535 -2.0981  1.9023
   41CHL1  H27C 5514   1.302   4.041   8.796  0.2614 -1.6257 -1.3739
   42CHL1    C3 5515   5.755   1.528   9.912 -0.2395  0.1605 -0.3238
   42CHL1    H3 5516   5.711   1.431   9.879  0.2777 -0.7407  1.4836
   42CHL1    O3 5517   5.744   1.536  10.053  0.1042 -0.2111  0.2668
   42CHL1   H3' 5518   5.794   1.611  10.085 -0.4026 -0.5091  1.8513
   42CHL1    C4 5519   5.913   1.528   9.876  0.2494  0.4376 -0.4774
   42CHL1   H4A 5520   5.964   1.614   9.924  1.7068  0.0904 -1.3240
   42CHL1   H4B 5521   5.967   1.435   9.906  1.1269  1.1889  0.3510
   42CHL1    C5 5522   5.933   1.549   9.729  0.1075 -0.2328 -0.0063
   42CHL1    C6 5523   6.001   1.461   9.651 -0.4768 -0.2536 -0.1431
   42CHL1    H6 5524   6.047   1.370   9.692  0.4942 -0.2438 -1.1487
   42CHL1    C7 5525   6.025   1.475   9.504  0.3738 -0.3571  0.0574
   42CHL1   H7A 5526   6.130   1.455   9.474  0.1363 -0.7778 -0.5343
   42CHL1   H7B 5527   5.958   1.400   9.455 -0.2697  1.0793 -1.3440
   42CHL1    C8 5528   5.983   1.617   9.447  0.5694  0.2628  0.2386
   42CHL1    H8 5529   6.066   1.687   9.467  1.8810 -0.8748 -1.0473
   42CHL1   C14 5530   5.973   1.611   9.298 -0.8020 -0.1223  0.2206
   42CHL1   H14 5531   5.887   1.544   9.275 -1.6657  1.2249 -0.6226
   42CHL1   C15 5532   6.088   1.543   9.222 -0.6150 -0.5082  0.6260
   42CHL1  H15A 5533   6.188   1.567   9.262  0.2157 -1.2433 -0.9261
   42CHL1  H15B 5534   6.073   1.433   9.226  0.6155 -0.7251 -0.2130
   42CHL1   C16 5535   6.079   1.598   9.079  0.9304  0.5532  0.8539
   42CHL1  H16A 5536   6.168   1.653   9.042  0.4784 -0.1306 -1.3897
   42CHL1  H16B 5537   6.069   1.513   9.008  2.1397  0.6941  0.4942
   42CHL1   C17 5538   5.949   1.689   9.072 -0.4402  0.2938 -0.2666
   42CHL1   H17 5539   5.860   1.623   9.063 -0.2972  0.1753 -0.8747
   42CHL1   C13 5540   5.936   1.737   9.219  0.1905 -0.8519 -0.2008
   42CHL1   C18 5541   6.033   1.854   9.249 -0.3895 -0.2164  0.5198
   42CHL1  H18A 5542   6.033   1.878   9.357  0.0250  1.6388  0.1434
   42CHL1  H18B 5543   6.132   1.840   9.200 -1.1069 -1.9544 -0.5334
   42CHL1  H18C 5544   5.992   1.944   9.198  0.1283 -1.9339 -3.2628
   42CHL1   C12 5545   5.798   1.769   9.277 -0.4749  0.5682  0.3354
   42CHL1  H12A 5546   5.754   1.857   9.227 -0.9652 -0.3203 -0.8635
   42CHL1  H12B 5547   5.735   1.682   9.248  0.5646 -1.1987  2.9459
   42CHL1   C11 5548   5.787   1.778   9.429  0.1926  0.2575  0.6024
   42CHL1  H11A 5549   5.835   1.876   9.448  0.1491  0.8810 -2.0995
   42CHL1  H11B 5550   5.681   1.791   9.460  0.1214 -0.3320  0.6205
   42CHL1    C9 5551   5.851   1.655   9.507 -0.1795 -0.6085  0.1056
   42CHL1    H9 5552   5.781   1.572   9.482 -0.7403  0.3756 -1.7585
   42CHL1   C10 5553   5.853   1.667   9.664  0.8126  0.0847  0.1043
   42CHL1   C19 5554   5.941   1.794   9.694  0.3418 -0.3793 -0.2448
   42CHL1  H19A 5555   5.944   1.808   9.805 -2.6107  1.9661 -0.3233
   42CHL1  H19B 5556   6.045   1.777   9.659  0.2592  1.0217 -1.2385
   42CHL1  H19C 5557   5.909   1.881   9.633  0.1787  0.1882  0.6184
   42CHL1    C1 5558   5.705   1.664   9.709  1.0888  0.3633  0.2636
   42CHL1   H1A 5559   5.651   1.752   9.666 -0.6514 -1.4878 -1.6188
   42CHL1   H1B 5560   5.641   1.590   9.655 -0.7997  0.7709  1.8356
   42CHL1    C2 5561   5.687   1.651   9.861 -0.2593 -0.7216  0.2039
   42CHL1   H2A 5562   5.578   1.651   9.885 -0.3058  1.5842  0.2336
   42CHL1   H2B 5563   5.737   1.736   9.912 -0.3213 -0.5929  0.0496
   42CHL1   C20 5564   5.956   1.787   8.955  0.0122 -0.3684 -0.4563
   42CHL1   H20 5565   6.045   1.852   8.968  1.3650 -2.1132 -0.6005
   42CHL1   C21 5566   5.824   1.862   8.954 -0.0233 -0.0160  0.3935
   42CHL1  H21A 5567   5.839   1.967   8.987  1.3761  0.3232 -1.1794
   42CHL1  H21B 5568   5.743   1.813   9.012 -1.7129  0.7663 -1.1899
   42CHL1  H21C 5569   5.786   1.877   8.850  0.8001 -0.6310 -0.0145
   42CHL1   C22 5570   5.985   1.724   8.810 -0.5772  0.4106 -0.5114
   42CHL1  H22A 5571   6.085   1.678   8.821  0.8822  2.9945 -2.1881
   42CHL1  H22B 5572   5.914   1.643   8.780 -1.2228  0.8072 -0.0826
   42CHL1   C23 5573   6.015   1.831   8.701 -0.0856 -0.0663 -0.1803
   42CHL1  H23A 5574   5.926   1.885   8.662  1.2576  1.4807 -1.2135
   42CHL1  H23B 5575   6.074   1.907   8.757  0.2706  0.6523 -1.4902
   42CHL1   C24 5576   6.103   1.768   8.597 -0.2743 -0.0981  0.5685
   42CHL1  H24A 5577   6.195   1.723   8.642 -0.8495 -2.4453 -0.4678
   42CHL1  H24B 5578   6.050   1.683   8.549  0.8494 -0.6847  0.3181
   42CHL1   C25 5579   6.149   1.863   8.485  0.0543  0.9465 -0.1092
   42CHL1   H25 5580   6.057   1.910   8.445 -1.0381 -1.3898 -0.4666
   42CHL1   C26 5581   6.243   1.975   8.541 -0.3311  0.5521 -0.2327
   42CHL1  H26A 5582   6.333   1.926   8.583 -1.0378 -1.8596 -1.3564
   42CHL1  H26B 5583   6.272   2.023   8.445  1.3136  0.2265  0.0781
   42CHL1  H26C 5584   6.189   2.039   8.614 -0.9860 -2.0899  1.7479
   42CHL1   C27 5585   6.204   1.774   8.369  0.2194 -0.4698 -0.1707
   42CHL1  H27A 5586   6.264   1.694   8.416 -1.8661 -1.9939  0.0242
   42CHL1  H27B 5587   6.114   1.731   8.322  0.2575 -1.1001  0.3194
   42CHL1  H27C 5588   6.263   1.824   8.289  0.7574 -1.7673 -0.6129
   43CHL1    C3 5589   1.139   2.915   9.974 -0.1437 -0.1898 -0.2039
   43CHL1    H3 5590   1.081   3.009   9.960 -0.4320 -0.5888 -1.9380
   43CHL1    O3 5591   1.170   2.895  10.108 -0.3476 -0.6520 -0.2536
   43CHL1   H3' 5592   1.242   2.831  10.113  0.1079 -0.2408 -1.2913
   43CHL1    C4 5593   1.044   2.799   9.939 -0.1872 -0.2108  0.2754
   43CHL1   H4A 5594   1.085   2.700   9.968  1.4650  0.9420  2.0865
   43CHL1   H4B 5595   0.963   2.811  10.014  0.8171  0.5235  1.2725
   43CHL1    C5 5596   1.006   2.805   9.796  0.3429  1.1115  0.7968
   43CHL1    C6 5597   0.877   2.817   9.757  0.9196  0.0540  0.4874
   43CHL1    H6 5598   0.799   2.814   9.834  2.0830 -2.1439  1.7070
   43CHL1    C7 5599   0.827   2.828   9.615 -0.5117 -0.2137  0.7287
   43CHL1   H7A 5600   0.730   2.774   9.608 -0.4309 -0.3085  0.3405
   43CHL1   H7B 5601   0.813   2.934   9.584  2.7109  0.8808  2.5861
   43CHL1    C8 5602   0.934   2.785   9.509 -0.4537 -0.1205 -0.1576
   43CHL1    H8 5603   0.942   2.675   9.520 -0.7180 -0.0415  0.8970
   43CHL1   C14 5604   0.895   2.820   9.373 -0.5731 -0.5483  0.0408
   43CHL1   H14 5605   0.893   2.931   9.368  2.2968 -0.3847  0.5429
   43CHL1   C15 5606   0.755   2.782   9.329  0.5277  0.0764  0.9477
   43CHL1  H15A 5607   0.737   2.673   9.342 -1.4649 -0.0666 -2.1076
   43CHL1  H15B 5608   0.676   2.833   9.388  0.7597  3.1037 -1.1502
   43CHL1   C16 5609   0.759   2.811   9.178 -0.2084  0.3062  0.4392
   43CHL1  H16A 5610   0.719   2.716   9.136  1.8769 -0.0542 -0.8506
   43CHL1  H16B 5611   0.707   2.897   9.132 -0.0581  0.4945  0.6173
   43CHL1   C17 5612   0.907   2.831   9.141  0.0054  0.4414  0.3619
   43CHL1   H17 5613   0.907   2.942   9.148 -1.8538  0.4330  1.1526
   43CHL1   C13 5614   0.992   2.783   9.259  0.0590 -1.0437 -0.2848
   43CHL1   C18 5615   0.998   2.625   9.260 -0.0477 -0.0083 -0.1914
   43CHL1  H18A 5616   1.067   2.594   9.179 -0.4049  1.1165 -0.9347
   43CHL1  H18B 5617   1.036   2.579   9.354 -0.6898  0.8006  0.4869
   43CHL1  H18C 5618   0.901   2.577   9.238 -0.7847  1.2311  0.2576
   43CHL1   C12 5619   1.133   2.862   9.291  0.7602  0.4818  0.3167
   43CHL1  H12A 5620   1.209   2.820   9.223  0.1053 -2.3787  1.2127
   43CHL1  H12B 5621   1.123   2.973   9.286  1.1107  0.5397  0.7991
   43CHL1   C11 5622   1.176   2.838   9.438  0.4654 -0.2285  0.1522
   43CHL1  H11A 5623   1.210   2.732   9.442 -0.1636 -0.4058  1.2674
   43CHL1  H11B 5624   1.264   2.902   9.456  0.7782 -0.6653  0.1820
   43CHL1    C9 5625   1.069   2.845   9.546  0.6416 -0.0989  0.2902
   43CHL1    H9 5626   1.045   2.954   9.547 -4.2557 -0.8392 -2.4702
   43CHL1   C10 5627   1.117   2.807   9.689 -0.2194 -0.1975  0.8522
   43CHL1   C19 5628   1.181   2.664   9.681 -0.0811 -0.1437 -0.7307
   43CHL1  H19A 5629   1.108   2.592   9.636  0.5857 -0.7589 -0.8421
   43CHL1  H19B 5630   1.272   2.668   9.618  0.0214  0.5925 -0.5390
   43CHL1  H19C 5631   1.210   2.620   9.779 -2.8299 -0.4415  0.0602
   43CHL1    C1 5632   1.226   2.912   9.739  0.7174  0.0116 -0.2065
   43CHL1   H1A 5633   1.322   2.885   9.691  1.5686  3.4865 -0.7940
   43CHL1   H1B 5634   1.210   3.014   9.698  3.9816  0.7350  0.0592
   43CHL1    C2 5635   1.264   2.906   9.888  0.3507 -0.3337  0.7106
   43CHL1   H2A 5636   1.330   2.990   9.921 -0.2372  0.3067  0.2830
   43CHL1   H2B 5637   1.309   2.806   9.906 -1.5000 -1.6879 -1.6012
   43CHL1   C20 5638   0.937   2.792   8.995 -0.2227 -0.3902  0.1838
   43CHL1   H20 5639   0.944   2.681   8.991  1.2024 -0.3037 -0.0410
   43CHL1   C21 5640   1.075   2.849   8.955 -0.6234 -0.4312  0.0658
   43CHL1  H21A 5641   1.072   2.958   8.973  1.0787 -0.5799  1.5513
   43CHL1  H21B 5642   1.099   2.819   8.851 -1.2128 -1.8035  0.2964
   43CHL1  H21C 5643   1.150   2.810   9.027 -0.7196  1.9270  1.5211
   43CHL1   C22 5644   0.834   2.847   8.891  0.0984 -1.0006  0.0198
   43CHL1  H22A 5645   0.725   2.837   8.912 -0.8662  2.4813 -2.3488
   43CHL1  H22B 5646   0.838   2.958   8.897 -1.6001 -1.0061  2.7169
   43CHL1   C23 5647   0.846   2.789   8.746  0.7147 -0.2424 -0.7850
   43CHL1  H23A 5648   0.933   2.846   8.707 -0.6713  2.3349 -0.3632
   43CHL1  H23B 5649   0.854   2.678   8.747 -1.8329 -0.5076 -1.5605
   43CHL1   C24 5650   0.732   2.850   8.658 -0.8013 -0.2383  0.2308
   43CHL1  H24A 5651   0.635   2.828   8.707 -0.8358 -0.4294  0.0735
   43CHL1  H24B 5652   0.734   2.961   8.660  0.0488 -0.2120 -1.0753
   43CHL1   C25 5653   0.726   2.802   8.519  0.1695  0.0089  0.5666
   43CHL1   H25 5654   0.742   2.692   8.518  1.3939  0.1684  0.9467
   43CHL1   C26 5655   0.588   2.810   8.462  0.2293 -0.1856 -0.1141
   43CHL1  H26A 5656   0.572   2.770   8.360 -0.1935  1.6035 -0.8018
   43CHL1  H26B 5657   0.513   2.771   8.533 -0.2980  0.6366 -0.1973
   43CHL1  H26C 5658   0.558   2.918   8.460 -0.2730 -0.3267 -0.9290
   43CHL1   C27 5659   0.826   2.868   8.421 -0.4790 -0.1064 -0.4655
   43CHL1  H27A 5660   0.926   2.855   8.467  0.0434 -0.1748 -1.5884
   43CHL1  H27B 5661   0.843   2.806   8.331  0.6750 -1.0345  0.3523
   43CHL1  H27C 5662   0.795   2.975   8.421 -1.9315 -0.4793  0.7739
   44CHL1    C3 5663   1.311   4.325  10.107 -1.1452  0.5622 -0.4938
   44CHL1    H3 5664   1.334   4.216  10.102 -0.5824  0.6066  0.8682
   44CHL1    O3 5665   1.270   4.354  10.242  0.1789 -0.2100  0.0580
   44CHL1   H3' 5666   1.181   4.320  10.253 -0.1498  0.2632 -0.9961
   44CHL1    C4 5667   1.441   4.405  10.075  0.4065  0.7922  0.3198
   44CHL1   H4A 5668   1.434   4.515  10.087 -0.5377  1.0192 -1.8096
   44CHL1   H4B 5669   1.519   4.376  10.149  1.7742  0.5038 -1.1628
   44CHL1    C5 5670   1.486   4.362   9.937  0.5126 -1.0991 -0.1169
   44CHL1    C6 5671   1.613   4.336   9.919  0.1385 -0.0931 -0.9096
   44CHL1    H6 5672   1.686   4.353   9.999 -0.3798 -1.1492 -0.1884
   44CHL1    C7 5673   1.674   4.313   9.782  0.5831  0.2048  0.2987
   44CHL1   H7A 5674   1.766   4.375   9.778  1.9421 -1.6104  1.5452
   44CHL1   H7B 5675   1.710   4.208   9.788 -0.7797 -0.2311  1.8784
   44CHL1    C8 5676   1.579   4.348   9.664  0.1868  0.2414  0.1452
   44CHL1    H8 5677   1.559   4.458   9.666 -1.5933 -0.0593  1.6848
   44CHL1   C14 5678   1.626   4.290   9.532  0.4136  0.4123 -0.0971
   44CHL1   H14 5679   1.608   4.181   9.535 -1.6854  0.7389  1.6673
   44CHL1   C15 5680   1.777   4.314   9.503 -0.2577 -0.4751  0.3735
   44CHL1  H15A 5681   1.821   4.411   9.534 -1.1161  0.8180 -2.1007
   44CHL1  H15B 5682   1.838   4.230   9.542  0.8995 -0.6434 -1.6707
   44CHL1   C16 5683   1.780   4.304   9.347 -0.2863 -0.4562 -0.3558
   44CHL1  H16A 5684   1.796   4.406   9.307 -2.7263 -0.8735 -2.7087
   44CHL1  H16B 5685   1.857   4.231   9.314  0.7199  0.4325 -0.0267
   44CHL1   C17 5686   1.633   4.275   9.299  0.0428 -0.6024  0.1427
   44CHL1   H17 5687   1.623   4.165   9.311 -2.3335 -0.4254  0.2906
   44CHL1   C13 5688   1.545   4.339   9.411  0.0520 -0.6071  0.0457
   44CHL1   C18 5689   1.545   4.493   9.395  0.7262 -0.2440  0.7198
   44CHL1  H18A 5690   1.508   4.537   9.300  2.9508 -0.0438 -0.1113
   44CHL1  H18B 5691   1.489   4.538   9.480 -1.7467 -5.8298  2.5813
   44CHL1  H18C 5692   1.649   4.530   9.396  0.6413  0.0039  0.4578
   44CHL1   C12 5693   1.406   4.277   9.430  0.4760 -0.1972  0.4689
   44CHL1  H12A 5694   1.340   4.305   9.345  1.0624  2.6361  0.8316
   44CHL1  H12B 5695   1.422   4.167   9.434  2.8672  0.1411  1.9799
   44CHL1   C11 5696   1.348   4.324   9.563  0.7225  0.5887  0.3577
   44CHL1  H11A 5697   1.316   4.428   9.544  0.7509  0.9718  2.1906
   44CHL1  H11B 5698   1.248   4.279   9.582  0.6600  0.9110  0.8159
   44CHL1    C9 5699   1.435   4.301   9.689  0.5076 -0.1186 -0.1330
   44CHL1    H9 5700   1.442   4.191   9.704  1.6741  0.0839  0.9689
   44CHL1   C10 5701   1.379   4.366   9.829  0.7521 -0.2222  0.1775
   44CHL1   C19 5702   1.347   4.516   9.802 -0.4959 -0.4868 -0.0331
   44CHL1  H19A 5703   1.273   4.533   9.721  0.2749  2.0779 -0.2963
   44CHL1  H19B 5704   1.295   4.560   9.890  1.7281  1.2669  0.4946
   44CHL1  H19C 5705   1.437   4.577   9.780 -1.8537  0.9941 -1.8766
   44CHL1    C1 5706   1.251   4.290   9.880 -0.5940  0.2547 -0.1693
   44CHL1   H1A 5707   1.173   4.293   9.801 -0.1502 -1.0969 -0.6933
   44CHL1   H1B 5708   1.285   4.184   9.880  0.5387  0.6051  0.1549
   44CHL1    C2 5709   1.200   4.336  10.009 -0.0171 -0.7944 -0.4304
   44CHL1   H2A 5710   1.110   4.276  10.037  0.0317 -0.4498  0.5147
   44CHL1   H2B 5711   1.174   4.444  10.006 -0.3125 -0.8883 -1.3747
   44CHL1   C20 5712   1.613   4.305   9.151 -0.0610  0.1709 -0.1551
   44CHL1   H20 5713   1.658   4.404   9.126 -0.3984 -0.1800 -2.2978
   44CHL1   C21 5714   1.460   4.304   9.115 -0.8902  0.1195  0.1488
   44CHL1  H21A 5715   1.467   4.312   9.004  0.8230 -1.9343  0.0324
   44CHL1  H21B 5716   1.407   4.394   9.151 -2.6294 -0.6076 -0.4955
   44CHL1  H21C 5717   1.408   4.211   9.144 -1.1056  0.3135  0.3831
   44CHL1   C22 5718   1.685   4.193   9.077  0.3350  0.0880 -0.0170
   44CHL1  H22A 5719   1.781   4.171   9.130  0.9130 -1.1271 -1.5186
   44CHL1  H22B 5720   1.628   4.101   9.102  1.0008 -0.3702 -0.1556
   44CHL1   C23 5721   1.725   4.198   8.924  0.0628 -0.1707 -0.5083
   44CHL1  H23A 5722   1.644   4.232   8.857  0.5761 -0.7759 -1.4487
   44CHL1  H23B 5723   1.800   4.278   8.908 -0.6689  0.3366 -1.5199
   44CHL1   C24 5724   1.764   4.060   8.876 -0.1678 -0.2588  0.1236
   44CHL1  H24A 5725   1.837   4.011   8.944 -1.0628 -1.9092 -0.0352
   44CHL1  H24B 5726   1.679   3.991   8.891 -2.2285  2.5025  2.0880
   44CHL1   C25 5727   1.810   4.048   8.730 -0.2946  0.4068  0.3099
   44CHL1   H25 5728   1.728   4.072   8.660 -1.6681 -2.1854  0.9322
   44CHL1   C26 5729   1.923   4.143   8.692 -0.8366  0.0988 -0.1324
   44CHL1  H26A 5730   1.884   4.247   8.691 -0.0430  0.4252 -2.4139
   44CHL1  H26B 5731   2.010   4.134   8.761 -1.5771 -0.6205  0.7373
   44CHL1  H26C 5732   1.968   4.120   8.593 -1.4992  0.9148 -0.6340
   44CHL1   C27 5733   1.865   3.910   8.704  0.4836 -0.0876  0.1012
   44CHL1  H27A 5734   1.964   3.902   8.753  0.3020  2.3666  0.9994
   44CHL1  H27B 5735   1.793   3.835   8.743  1.6541 -1.0693  0.4421
   44CHL1  H27C 5736   1.886   3.898   8.596 -0.5042  0.2943 -0.1439
   45CHL1    C3 5737   4.295   2.340  10.496  0.0722  0.7216  0.4131
   45CHL1    H3 5738   4.395   2.381  10.470  0.8286 -2.4435 -2.4156
   45CHL1    O3 5739   4.278   2.313  10.635  0.1407  0.2896  0.1483
   45CHL1   H3' 5740   4.356   2.265  10.664 -0.5148 -0.5807  0.5173
   45CHL1    C4 5741   4.188   2.433  10.448 -0.1972 -0.2188  0.1542
   45CHL1   H4A 5742   4.088   2.398  10.482 -1.3962  2.9622  0.3239
   45CHL1   H4B 5743   4.194   2.527  10.507 -0.5846 -0.8529  1.2281
   45CHL1    C5 5744   4.208   2.454  10.301 -0.4422 -0.2883  0.0158
   45CHL1    C6 5745   4.234   2.574  10.244 -0.4171 -0.0998 -0.1510
   45CHL1    H6 5746   4.240   2.672  10.295 -0.2581  0.1720 -0.6845
   45CHL1    C7 5747   4.249   2.598  10.097 -0.3206  0.1184  0.0314
   45CHL1   H7A 5748   4.219   2.701  10.069 -0.4211  0.2691  0.7003
   45CHL1   H7B 5749   4.356   2.587  10.067 -0.8141  0.3174 -1.9392
   45CHL1    C8 5750   4.178   2.483  10.014 -0.2678 -0.4195  0.1762
   45CHL1    H8 5751   4.227   2.501   9.916  0.0653 -0.7205  0.2840
   45CHL1   C14 5752   4.024   2.497   9.989 -0.2092 -0.9354 -0.8186
   45CHL1   H14 5753   3.971   2.508  10.087  1.3976 -3.4560  0.4388
   45CHL1   C15 5754   3.986   2.635   9.920 -0.8983 -0.4495 -0.0468
   45CHL1  H15A 5755   3.916   2.691   9.986 -2.4535 -1.2930 -0.9365
   45CHL1  H15B 5756   4.083   2.686   9.901 -0.7624 -0.6403  0.1307
   45CHL1   C16 5757   3.935   2.602   9.777  0.7686 -0.1432  0.1351
   45CHL1  H16A 5758   3.827   2.629   9.785  0.5952 -0.5674 -0.6666
   45CHL1  H16B 5759   3.986   2.663   9.700  0.3375  0.6347  0.4485
   45CHL1   C17 5760   3.971   2.450   9.760  0.4563 -0.4042  0.2369
   45CHL1   H17 5761   4.080   2.461   9.741  0.8103  0.8426  2.7094
   45CHL1   C13 5762   3.962   2.389   9.906 -1.0117  0.5544  0.2552
   45CHL1   C18 5763   3.815   2.392   9.949  0.1921 -0.3691  0.1488
   45CHL1  H18A 5764   3.778   2.496   9.966 -0.1296 -0.3092 -0.8188
   45CHL1  H18B 5765   3.745   2.334   9.886 -1.3035  1.8210 -0.3458
   45CHL1  H18C 5766   3.809   2.344  10.048 -1.1203  0.7497  0.6418
   45CHL1   C12 5767   4.014   2.242   9.927  0.1055 -0.3526  0.2668
   45CHL1  H12A 5768   3.945   2.191   9.998  1.0600  0.0124  1.5123
   45CHL1  H12B 5769   4.017   2.182   9.834 -1.6335  0.0059 -0.0501
   45CHL1   C11 5770   4.163   2.232   9.972 -0.3880 -0.8570  0.1445
   45CHL1  H11A 5771   4.176   2.134  10.023 -1.5090 -0.3393  1.4944
   45CHL1  H11B 5772   4.225   2.235   9.880 -0.1614 -0.6993  0.3022
   45CHL1    C9 5773   4.217   2.347  10.064 -0.3287 -0.7058 -0.0226
   45CHL1    H9 5774   4.326   2.330  10.055 -0.1811 -0.2451  0.7556
   45CHL1   C10 5775   4.196   2.328  10.217  0.7914  0.3409 -0.0348
   45CHL1   C19 5776   4.050   2.267  10.241 -0.3087 -0.0994  0.1017
   45CHL1  H19A 5777   4.036   2.244  10.349  0.4200 -1.5170 -0.0775
   45CHL1  H19B 5778   3.976   2.345  10.213  2.3500  1.3153 -3.8828
   45CHL1  H19C 5779   4.033   2.176  10.180 -0.5153 -1.0060  1.4606
   45CHL1    C1 5780   4.307   2.231  10.271 -0.1394 -0.2087  0.5760
   45CHL1   H1A 5781   4.298   2.133  10.221  1.0100 -0.1646  0.2522
   45CHL1   H1B 5782   4.409   2.271  10.253 -0.9862  2.8673  1.9227
   45CHL1    C2 5783   4.291   2.204  10.418 -0.1151 -0.4156  0.0676
   45CHL1   H2A 5784   4.372   2.141  10.461 -0.7514 -1.8368 -0.7439
   45CHL1   H2B 5785   4.197   2.148  10.435  0.5990 -1.3331  1.1805
   45CHL1   C20 5786   3.915   2.382   9.637  0.1900  0.1110  0.0084
   45CHL1   H20 5787   3.825   2.323   9.663  0.2351 -0.4353 -0.9846
   45CHL1   C21 5788   4.017   2.291   9.577  0.2950  0.4467  0.2645
   45CHL1  H21A 5789   4.118   2.337   9.566 -0.3087  1.2145 -3.1791
   45CHL1  H21B 5790   3.990   2.278   9.470 -1.1955  0.8818  0.5678
   45CHL1  H21C 5791   4.017   2.186   9.611 -2.9292 -0.0289 -0.8795
   45CHL1   C22 5792   3.879   2.474   9.518 -0.3190 -0.5577  0.0281
   45CHL1  H22A 5793   3.824   2.564   9.554 -0.3012 -0.0102 -1.2384
   45CHL1  H22B 5794   3.968   2.507   9.460 -1.5433 -0.1508 -1.7024
   45CHL1   C23 5795   3.781   2.406   9.418 -0.6141  0.3811 -0.8308
   45CHL1  H23A 5796   3.819   2.312   9.373  0.3949  1.2713 -1.9118
   45CHL1  H23B 5797   3.696   2.370   9.479 -0.2781  0.0779 -0.5406
   45CHL1   C24 5798   3.725   2.506   9.315  0.2213  0.6511 -0.4531
   45CHL1  H24A 5799   3.691   2.598   9.368 -0.7682  0.3940 -0.6124
   45CHL1  H24B 5800   3.803   2.537   9.242 -2.8586  0.9919 -3.8770
   45CHL1   C25 5801   3.606   2.451   9.227  1.2640 -0.1739  0.2686
   45CHL1   H25 5802   3.529   2.403   9.291  1.4283 -0.0344  0.5742
   45CHL1   C26 5803   3.538   2.556   9.147 -0.0226 -0.4329 -0.4125
   45CHL1  H26A 5804   3.467   2.499   9.083 -1.6732  0.4250  0.5833
   45CHL1  H26B 5805   3.472   2.619   9.211  0.9417  0.8636 -0.6534
   45CHL1  H26C 5806   3.599   2.618   9.078 -1.8474  1.1921 -0.6620
   45CHL1   C27 5807   3.659   2.340   9.134  0.3571  0.0731  0.0833
   45CHL1  H27A 5808   3.580   2.316   9.060  1.8330  1.5602 -2.0984
   45CHL1  H27B 5809   3.750   2.372   9.078  1.0167 -0.7116  0.6752
   45CHL1  H27C 5810   3.683   2.249   9.193 -0.7805 -0.2068  0.1316
   46CHL1    C3 5811   0.082   6.471  10.055  0.3703  0.0116  0.8612
   46CHL1    H3 5812  -0.024   6.463  10.022  1.4736 -1.0454 -2.9581
   46CHL1    O3 5813   0.083   6.436  10.187  0.1662  0.5680 -0.3135
   46CHL1   H3' 5814  -0.011   6.420  10.196  0.3229 -0.8014 -0.8582
   46CHL1    C4 5815   0.154   6.364   9.972  0.0675  0.2610 -0.8782
   46CHL1   H4A 5816   0.264   6.355   9.990  0.0036 -0.8123 -0.9523
   46CHL1   H4B 5817   0.110   6.265   9.997 -2.8397  1.3064 -1.5634
   46CHL1    C5 5818   0.123   6.400   9.828  0.0627 -0.5918 -0.0629
   46CHL1    C6 5819   0.071   6.317   9.741 -0.1029 -0.3649  0.6300
   46CHL1    H6 5820   0.040   6.216   9.772 -2.2077  0.2419  0.6832
   46CHL1    C7 5821   0.065   6.338   9.591 -0.1611 -0.3579  0.2180
   46CHL1   H7A 5822   0.120   6.262   9.531  0.7948  0.9753 -0.6460
   46CHL1   H7B 5823  -0.042   6.336   9.561 -0.4538 -1.1618  1.2556
   46CHL1    C8 5824   0.116   6.475   9.543 -0.2181  0.7234  0.1631
   46CHL1    H8 5825   0.224   6.461   9.525 -0.1935 -2.7348  2.0215
   46CHL1   C14 5826   0.058   6.509   9.411 -0.1372 -0.5991  0.5273
   46CHL1   H14 5827  -0.052   6.521   9.422 -0.3894 -1.1954 -1.0092
   46CHL1   C15 5828   0.076   6.405   9.301 -0.9594 -0.2143  0.6642
   46CHL1  H15A 5829   0.185   6.383   9.294 -1.1174 -0.8178 -0.1216
   46CHL1  H15B 5830   0.017   6.314   9.323 -0.9297 -0.0506  1.4334
   46CHL1   C16 5831   0.028   6.484   9.178  0.3801  0.2929  0.0132
   46CHL1  H16A 5832   0.100   6.489   9.093 -0.8950  2.4188 -1.0274
   46CHL1  H16B 5833  -0.071   6.444   9.149  0.5601  0.5118 -0.9404
   46CHL1   C17 5834   0.016   6.637   9.223  0.9624 -0.1874 -0.5647
   46CHL1   H17 5835  -0.089   6.655   9.254  1.3037 -0.6206  0.9608
   46CHL1   C13 5836   0.100   6.645   9.355  0.3963  0.2504 -0.2998
   46CHL1   C18 5837   0.257   6.655   9.325  0.0756 -0.2576 -0.3132
   46CHL1  H18A 5838   0.294   6.587   9.244  1.0122  2.0495 -1.9308
   46CHL1  H18B 5839   0.278   6.755   9.283  3.1725 -0.6099  0.1177
   46CHL1  H18C 5840   0.323   6.634   9.413 -1.0978 -2.1421  0.1855
   46CHL1   C12 5841   0.071   6.749   9.465 -0.1600  0.5517  0.1545
   46CHL1  H12A 5842   0.106   6.851   9.436  0.2856  0.9662  2.0419
   46CHL1  H12B 5843  -0.038   6.757   9.481 -0.1204  1.3450  0.0625
   46CHL1   C11 5844   0.130   6.723   9.602  0.6210 -0.0764 -0.3131
   46CHL1  H11A 5845   0.240   6.724   9.584  1.2536  0.9295  2.8819
   46CHL1  H11B 5846   0.099   6.803   9.673 -1.7561 -2.1690  1.1586
   46CHL1    C9 5847   0.089   6.582   9.653  0.6296 -0.4196  0.1547
   46CHL1    H9 5848  -0.020   6.587   9.671  0.8483  0.8941  1.2377
   46CHL1   C10 5849   0.159   6.539   9.787 -0.2441  0.1348  0.3997
   46CHL1   C19 5850   0.312   6.537   9.768  0.3522  0.1547  0.1615
   46CHL1  H19A 5851   0.341   6.468   9.686 -1.0214 -0.8568  0.4939
   46CHL1  H19B 5852   0.345   6.637   9.734 -1.9141  1.0746  0.4841
   46CHL1  H19C 5853   0.367   6.511   9.861  1.7580  0.2304 -0.6208
   46CHL1    C1 5854   0.121   6.652   9.895 -0.1184  0.4590 -0.4107
   46CHL1   H1A 5855   0.190   6.735   9.869 -0.7156  1.1062  0.0389
   46CHL1   H1B 5856   0.017   6.686   9.876 -0.4561 -0.2204  0.1678
   46CHL1    C2 5857   0.137   6.608  10.047  0.6065 -0.0598  0.9660
   46CHL1   H2A 5858   0.102   6.686  10.119  1.6513  1.2995  0.0554
   46CHL1   H2B 5859   0.248   6.599  10.047  1.1110  3.5691 -2.1530
   46CHL1   C20 5860   0.047   6.732   9.106  0.3566  0.6229 -0.1263
   46CHL1   H20 5861   0.152   6.708   9.077 -0.2582 -1.2635 -0.9313
   46CHL1   C21 5862   0.046   6.869   9.162 -0.4574 -0.0110  0.1823
   46CHL1  H21A 5863   0.115   6.884   9.248  0.6599  2.4596 -1.0366
   46CHL1  H21B 5864  -0.055   6.901   9.194  0.1452  1.3845  0.7716
   46CHL1  H21C 5865   0.065   6.945   9.083  2.2282 -0.3247  0.4432
   46CHL1   C22 5866  -0.045   6.713   8.988  0.2684  0.6032  0.9699
   46CHL1  H22A 5867  -0.009   6.620   8.940 -1.2162  1.4789 -2.0829
   46CHL1  H22B 5868  -0.151   6.706   9.020  0.0367  1.3574  0.3951
   46CHL1   C23 5869  -0.033   6.812   8.873 -0.1556  0.3181 -0.1317
   46CHL1  H23A 5870  -0.062   6.913   8.909 -0.9403  0.7399 -1.8266
   46CHL1  H23B 5871   0.072   6.821   8.838  0.0544  1.2947  0.6992
   46CHL1   C24 5872  -0.114   6.768   8.747 -0.9238 -0.3527  0.2756
   46CHL1  H24A 5873  -0.087   6.661   8.752  1.1929  0.1299 -0.0275
   46CHL1  H24B 5874  -0.221   6.777   8.776 -1.0633 -2.0641  0.3691
   46CHL1   C25 5875  -0.084   6.837   8.614  0.3936  0.0815  0.6426
   46CHL1   H25 5876  -0.137   6.777   8.538  1.3833 -3.3399  2.4656
   46CHL1   C26 5877  -0.137   6.984   8.596 -0.3662  0.5891 -0.2164
   46CHL1  H26A 5878  -0.247   6.978   8.585 -0.3082 -0.3505 -0.3730
   46CHL1  H26B 5879  -0.113   7.050   8.682  0.7912  0.6151 -0.5338
   46CHL1  H26C 5880  -0.095   7.025   8.501  0.7023 -1.9235 -0.9310
   46CHL1   C27 5881   0.069   6.839   8.585  0.3975 -0.5331 -0.5014
   46CHL1  H27A 5882   0.116   6.907   8.660 -0.6902 -1.4867  1.0917
   46CHL1  H27B 5883   0.108   6.735   8.583 -0.6254 -0.9216 -2.1486
   46CHL1  H27C 5884   0.079   6.881   8.482  2.7119  0.3426 -0.0007
   47CHL1    C3 5885   1.683   3.859  10.097 -0.1784 -0.4364  0.2934
   47CHL1    H3 5886   1.643   3.759  10.124  1.3001 -2.1166 -3.1003
   47CHL1    O3 5887   1.709   3.924  10.218 -0.2824 -0.3618  0.3609
   47CHL1   H3' 5888   1.793   3.897  10.257  0.8868  0.4481 -1.4600
   47CHL1    C4 5889   1.822   3.834  10.031 -0.6160  0.2423  0.2492
   47CHL1   H4A 5890   1.894   3.917  10.015 -0.5134 -0.0182 -0.6687
   47CHL1   H4B 5891   1.867   3.764  10.105  0.7485  0.0521 -0.7088
   47CHL1    C5 5892   1.798   3.763   9.905 -1.2375  1.2059 -0.6316
   47CHL1    C6 5893   1.853   3.638   9.880 -0.4882 -0.4944 -0.5543
   47CHL1    H6 5894   1.912   3.591   9.960 -0.1719  3.2931  1.6806
   47CHL1    C7 5895   1.857   3.581   9.736 -0.7207  0.2290  0.1197
   47CHL1   H7A 5896   1.957   3.545   9.702 -0.5007  0.6598  0.3001
   47CHL1   H7B 5897   1.795   3.490   9.722  0.1174 -0.0365 -2.3062
   47CHL1    C8 5898   1.810   3.679   9.620  0.0254  0.4697  0.4532
   47CHL1    H8 5899   1.899   3.744   9.600  0.8367 -0.4777  0.9017
   47CHL1   C14 5900   1.761   3.603   9.500  0.9834  0.9542 -0.0371
   47CHL1   H14 5901   1.670   3.548   9.532  1.9409  0.1773  1.4603
   47CHL1   C15 5902   1.843   3.500   9.433  0.7712 -0.0439 -0.7807
   47CHL1  H15A 5903   1.946   3.539   9.445  0.6536 -0.4183  2.2411
   47CHL1  H15B 5904   1.840   3.403   9.486 -2.5428  1.3444  1.9874
   47CHL1   C16 5905   1.789   3.482   9.287  0.4183  0.4052  0.1860
   47CHL1  H16A 5906   1.876   3.496   9.219 -1.6292  0.8815 -2.4816
   47CHL1  H16B 5907   1.739   3.384   9.272 -0.2982  0.9275 -0.9404
   47CHL1   C17 5908   1.680   3.593   9.255 -0.2426  0.0607 -0.9607
   47CHL1   H17 5909   1.579   3.548   9.259  0.0686 -0.8611 -2.5425
   47CHL1   C13 5910   1.715   3.688   9.374 -0.2525  0.0790  0.4210
   47CHL1   C18 5911   1.835   3.780   9.336  1.0480  0.1106  0.7863
   47CHL1  H18A 5912   1.869   3.844   9.420 -0.1301  0.8453  0.7291
   47CHL1  H18B 5913   1.918   3.714   9.303 -0.2010 -0.7056 -0.8758
   47CHL1  H18C 5914   1.803   3.853   9.258  1.5038  0.1146  0.6000
   47CHL1   C12 5915   1.590   3.761   9.436 -0.7059  0.3118 -0.4789
   47CHL1  H12A 5916   1.546   3.836   9.368 -1.6468  1.8532  1.7046
   47CHL1  H12B 5917   1.510   3.685   9.453 -0.8598  0.5575 -0.0777
   47CHL1   C11 5918   1.628   3.836   9.564  0.5328 -1.0410  0.3369
   47CHL1  H11A 5919   1.687   3.925   9.534 -0.7317  0.1272  1.2056
   47CHL1  H11B 5920   1.529   3.870   9.600  0.1415 -0.9661 -0.7697
   47CHL1    C9 5921   1.694   3.759   9.676  0.1957  0.5186  0.5645
   47CHL1    H9 5922   1.628   3.678   9.713  2.2514 -1.8890 -0.7717
   47CHL1   C10 5923   1.727   3.848   9.803  0.4560  0.4812  0.7904
   47CHL1   C19 5924   1.798   3.975   9.756 -0.5720 -0.2248 -0.0751
   47CHL1  H19A 5925   1.824   4.040   9.842  1.9983 -2.4187  0.9412
   47CHL1  H19B 5926   1.884   3.959   9.687 -1.6475 -0.5060 -1.4159
   47CHL1  H19C 5927   1.720   4.033   9.702 -0.3803 -0.1274 -0.2519
   47CHL1    C1 5928   1.586   3.881   9.863 -1.0169  0.4897  0.1902
   47CHL1   H1A 5929   1.521   3.935   9.790  0.2389 -1.9142 -2.9369
   47CHL1   H1B 5930   1.531   3.785   9.863 -0.8031  0.3589  1.0261
   47CHL1    C2 5931   1.583   3.937  10.002  0.0682 -1.2198 -0.0156
   47CHL1   H2A 5932   1.484   3.952  10.051  0.0981 -0.4642 -0.1752
   47CHL1   H2B 5933   1.627   4.039  10.003  0.9001 -1.5421 -1.4656
   47CHL1   C20 5934   1.692   3.644   9.110 -0.1711 -0.5121  0.1648
   47CHL1   H20 5935   1.792   3.682   9.081 -0.2935 -0.2653  0.0595
   47CHL1   C21 5936   1.586   3.753   9.079  0.7524 -0.3823  0.8613
   47CHL1  H21A 5937   1.496   3.689   9.094  0.5705 -0.0395  1.2555
   47CHL1  H21B 5938   1.600   3.781   8.972  1.2044 -3.2595  0.0832
   47CHL1  H21C 5939   1.588   3.840   9.148  1.3599 -1.4705  2.2746
   47CHL1   C22 5940   1.666   3.523   9.014  0.0195  0.3035  0.7703
   47CHL1  H22A 5941   1.739   3.440   9.029 -1.5996 -1.2692  0.3127
   47CHL1  H22B 5942   1.566   3.481   9.036  1.8008 -4.3873  1.1156
   47CHL1   C23 5943   1.688   3.551   8.865  0.0108 -0.4013  0.2240
   47CHL1  H23A 5944   1.629   3.637   8.826 -0.0806 -0.4625  0.2265
   47CHL1  H23B 5945   1.796   3.569   8.848  0.6109 -2.7062  1.1881
   47CHL1   C24 5946   1.658   3.424   8.786 -0.0045  0.3543  0.2703
   47CHL1  H24A 5947   1.731   3.349   8.825  1.0863  0.7722 -0.8986
   47CHL1  H24B 5948   1.558   3.380   8.807  0.4563 -2.0399 -1.9656
   47CHL1   C25 5949   1.658   3.436   8.633 -0.3323  0.7470  0.2935
   47CHL1   H25 5950   1.745   3.493   8.593 -1.9787  1.4997 -2.5305
   47CHL1   C26 5951   1.686   3.296   8.568 -0.1906  0.3432 -0.7726
   47CHL1  H26A 5952   1.616   3.223   8.614  1.1226  0.4339  1.5451
   47CHL1  H26B 5953   1.785   3.252   8.592 -0.6181  0.1066  0.6786
   47CHL1  H26C 5954   1.690   3.296   8.457  2.8653  1.7351 -0.7521
   47CHL1   C27 5955   1.531   3.495   8.562 -0.0785 -0.5586  0.0081
   47CHL1  H27A 5956   1.528   3.604   8.587 -1.1641 -0.6736  0.4453
   47CHL1  H27B 5957   1.527   3.492   8.451  1.5176  0.3152 -0.1024
   47CHL1  H27C 5958   1.445   3.434   8.599  0.0522 -0.9933 -0.4080
   48CHL1    C3 5959   3.107   5.347  10.249 -0.1411 -0.5365  0.1990
   48CHL1    H3 5960   3.059   5.447  10.247  3.1091  1.1323 -0.7144
   48CHL1    O3 5961   3.090   5.287  10.380 -0.2001 -0.0064  0.7894
   48CHL1   H3' 5962   3.158   5.219  10.378 -0.3443 -0.1332 -0.0137
   48CHL1    C4 5963   3.043   5.257  10.146  0.4415 -0.1927  0.4054
   48CHL1   H4A 5964   3.104   5.165  10.152  2.3627  1.0607  1.0967
   48CHL1   H4B 5965   2.937   5.240  10.177 -0.4723  2.9751 -0.5976
   48CHL1    C5 5966   3.051   5.308  10.004 -0.0696  0.6289 -0.7531
   48CHL1    C6 5967   2.934   5.329   9.933 -0.9327  0.8110 -0.4150
   48CHL1    H6 5968   2.841   5.287   9.973 -1.8006  0.0433 -3.0451
   48CHL1    C7 5969   2.932   5.391   9.792 -0.2045 -0.4114 -0.2414
   48CHL1   H7A 5970   2.859   5.328   9.736  0.6031 -0.6922 -1.0118
   48CHL1   H7B 5971   2.892   5.493   9.811 -1.4874 -1.0429  0.5897
   48CHL1    C8 5972   3.069   5.402   9.726  0.3811  0.2391  0.0738
   48CHL1    H8 5973   3.094   5.298   9.693 -1.4572 -1.1104  2.6148
   48CHL1   C14 5974   3.070   5.495   9.605 -0.6836 -0.4535  0.9146
   48CHL1   H14 5975   3.052   5.600   9.639 -0.3620  0.0369 -0.3638
   48CHL1   C15 5976   2.967   5.476   9.492  0.7314  0.3087  0.0849
   48CHL1  H15A 5977   2.938   5.370   9.474  1.2411  0.4722 -1.8446
   48CHL1  H15B 5978   2.879   5.533   9.527 -2.9612 -2.4045 -3.7938
   48CHL1   C16 5979   3.032   5.556   9.372  0.7042  0.4057  0.4534
   48CHL1  H16A 5980   3.037   5.476   9.295  0.0260  2.3664 -1.7881
   48CHL1  H16B 5981   2.970   5.634   9.322  0.3603  1.0230  1.7956
   48CHL1   C17 5982   3.178   5.592   9.416 -0.0909 -0.3125 -0.9199
   48CHL1   H17 5983   3.161   5.696   9.452 -2.5410 -0.8981 -0.2336
   48CHL1   C13 5984   3.204   5.504   9.537  0.6490  0.2453  0.5755
   48CHL1   C18 5985   3.229   5.361   9.483 -0.6186  0.3762 -0.3490
   48CHL1  H18A 5986   3.149   5.309   9.426 -1.7349  2.1828 -0.4969
   48CHL1  H18B 5987   3.319   5.345   9.419  0.0554 -3.9196  1.2894
   48CHL1  H18C 5988   3.261   5.297   9.568  2.0150 -0.4940 -1.8638
   48CHL1   C12 5989   3.310   5.561   9.629  1.0771  0.0326 -0.5660
   48CHL1  H12A 5990   3.411   5.557   9.583  0.4802 -1.1628 -1.8683
   48CHL1  H12B 5991   3.288   5.667   9.656  1.0258  0.1043 -0.8816
   48CHL1   C11 5992   3.314   5.471   9.754  0.6559  0.6015 -0.3438
   48CHL1  H11A 5993   3.372   5.377   9.745 -0.3543 -0.1842  1.0293
   48CHL1  H11B 5994   3.375   5.527   9.828  0.8369 -1.6924  1.3776
   48CHL1    C9 5995   3.178   5.447   9.827 -0.7151  0.2269  0.3607
   48CHL1    H9 5996   3.141   5.543   9.869  2.9952  1.4561  1.1435
   48CHL1   C10 5997   3.191   5.358   9.956  0.4904  0.9068 -0.0668
   48CHL1   C19 5998   3.265   5.227   9.923 -0.1259  0.5231 -0.0122
   48CHL1  H19A 5999   3.281   5.157  10.008 -0.1717 -0.0554 -0.4810
   48CHL1  H19B 6000   3.207   5.181   9.840  1.7429  2.5662 -2.6419
   48CHL1  H19C 6001   3.368   5.241   9.884  0.5207 -1.7470  0.7382
   48CHL1    C1 6002   3.261   5.427  10.072 -0.4173 -0.1833 -0.2579
   48CHL1   H1A 6003   3.361   5.455  10.032 -0.4038  1.5083  0.8411
   48CHL1   H1B 6004   3.223   5.527  10.102  0.3160 -0.1643  0.6863
   48CHL1    C2 6005   3.255   5.360  10.211  0.3298  0.7198  0.0010
   48CHL1   H2A 6006   3.308   5.421  10.287  0.3874 -0.5794  1.0377
   48CHL1   H2B 6007   3.301   5.259  10.218 -0.1178  0.5457  0.4709
   48CHL1   C20 6008   3.274   5.604   9.292 -0.0222 -0.5047  0.2665
   48CHL1   H20 6009   3.369   5.547   9.299  0.2790  0.0760  1.1546
   48CHL1   C21 6010   3.320   5.756   9.298 -0.1461  0.7795  0.4076
   48CHL1  H21A 6011   3.373   5.787   9.390 -2.2175 -0.5060  2.1323
   48CHL1  H21B 6012   3.231   5.819   9.275 -1.3717 -1.4712 -1.4957
   48CHL1  H21C 6013   3.403   5.773   9.225 -1.3196  1.5896 -0.7862
   48CHL1   C22 6014   3.205   5.577   9.153  0.1295 -0.0563 -0.1734
   48CHL1  H22A 6015   3.148   5.483   9.140 -1.0497  0.3146  1.9283
   48CHL1  H22B 6016   3.131   5.658   9.137 -0.9783 -1.0297 -0.1295
   48CHL1   C23 6017   3.301   5.573   9.033 -0.1873 -0.4046  0.1008
   48CHL1  H23A 6018   3.375   5.655   9.041 -0.1886 -0.3785 -0.1559
   48CHL1  H23B 6019   3.355   5.476   9.035  1.1472  0.3116  0.0655
   48CHL1   C24 6020   3.226   5.577   8.897  0.0117 -0.1211  0.4016
   48CHL1  H24A 6021   3.154   5.493   8.886 -0.8465  0.8725 -2.7381
   48CHL1  H24B 6022   3.164   5.669   8.900 -1.5389 -1.1022 -0.3657
   48CHL1   C25 6023   3.310   5.560   8.771 -0.0630 -0.5269 -0.6504
   48CHL1   H25 6024   3.385   5.642   8.772 -1.3557  0.7249  1.3062
   48CHL1   C26 6025   3.374   5.425   8.766  0.4331 -0.5077  0.0441
   48CHL1  H26A 6026   3.476   5.418   8.811  0.7622  0.2667 -0.5560
   48CHL1  H26B 6027   3.309   5.349   8.813  1.4800 -1.6559 -0.2981
   48CHL1  H26C 6028   3.385   5.386   8.662  2.1904 -1.8256  0.6738
   48CHL1   C27 6029   3.211   5.577   8.656 -0.3542 -0.0574  0.2472
   48CHL1  H27A 6030   3.128   5.503   8.662 -2.8490  2.4551 -1.1584
   48CHL1  H27B 6031   3.175   5.682   8.657 -0.0757  0.0626 -1.2400
   48CHL1  H27C 6032   3.268   5.566   8.561  2.4274  2.0235  1.5295
   49CHL1    C3 6033   6.012   5.022  10.141 -0.8445  0.8776  1.0073
   49CHL1    H3 6034   6.083   5.091  10.091  1.6555 -2.4625 -0.4731
   49CHL1    O3 6035   6.013   5.030  10.280 -0.2752  0.1416 -0.8302
   49CHL1   H3' 6036   6.104   5.016  10.307  0.1167  4.8353  1.2047
   49CHL1    C4 6037   5.867   5.062  10.089 -0.1130 -0.3096 -0.2520
   49CHL1   H4A 6038   5.795   5.001  10.148 -0.5772  0.9566  0.5279
   49CHL1   H4B 6039   5.858   5.167  10.124 -0.9503 -0.9804  1.7004
   49CHL1    C5 6040   5.836   5.042   9.943 -0.2831  1.6210  0.0264
   49CHL1    C6 6041   5.794   5.139   9.863 -0.5676 -0.6363  0.0257
   49CHL1    H6 6042   5.796   5.242   9.903  4.8402 -0.3320 -0.1986
   49CHL1    C7 6043   5.767   5.124   9.712  0.0638  0.7060  0.4718
   49CHL1   H7A 6044   5.678   5.181   9.677  0.7492  1.7213  0.3146
   49CHL1   H7B 6045   5.855   5.158   9.653  0.2431 -0.1387  0.2419
   49CHL1    C8 6046   5.750   4.979   9.670 -0.8089  0.2083  0.1366
   49CHL1    H8 6047   5.655   4.930   9.702 -1.6923  1.6853 -0.1421
   49CHL1   C14 6048   5.751   4.959   9.515 -0.3491 -0.0526  0.2748
   49CHL1   H14 6049   5.853   4.985   9.479 -0.0369 -1.3260  0.1738
   49CHL1   C15 6050   5.656   5.049   9.431  0.1207  0.3323 -0.1109
   49CHL1  H15A 6051   5.550   5.026   9.456  0.6233 -0.2948  1.6170
   49CHL1  H15B 6052   5.689   5.155   9.422  0.3562  0.2401 -0.3469
   49CHL1   C16 6053   5.683   4.981   9.290  0.2926 -0.0824 -0.1192
   49CHL1  H16A 6054   5.580   4.965   9.251  1.0241 -2.1092 -1.3368
   49CHL1  H16B 6055   5.732   5.056   9.224 -0.0977  1.0056  0.7807
   49CHL1   C17 6056   5.750   4.850   9.303  0.0658  0.0440 -0.0156
   49CHL1   H17 6057   5.858   4.863   9.280  0.2824 -0.0722  0.8732
   49CHL1   C13 6058   5.740   4.818   9.457  0.0676  0.1526  0.6259
   49CHL1   C18 6059   5.593   4.763   9.491 -0.2658 -0.1972  0.1681
   49CHL1  H18A 6060   5.514   4.806   9.427  1.5244  0.8314 -1.4400
   49CHL1  H18B 6061   5.602   4.653   9.478  1.7553  0.0723 -1.0408
   49CHL1  H18C 6062   5.576   4.769   9.601  2.8536  0.0132  0.7234
   49CHL1   C12 6063   5.856   4.736   9.521 -0.0853 -0.0800 -0.0000
   49CHL1  H12A 6064   5.825   4.632   9.497 -1.1179  0.4756 -1.1962
   49CHL1  H12B 6065   5.959   4.761   9.485 -1.0905  0.6116 -2.6735
   49CHL1   C11 6066   5.856   4.747   9.678 -0.1303 -0.2056  0.8292
   49CHL1  H11A 6067   5.756   4.702   9.700  0.9528 -3.0660  0.3442
   49CHL1  H11B 6068   5.934   4.684   9.726 -0.4578 -0.6620  0.7728
   49CHL1    C9 6069   5.861   4.892   9.732 -0.1603  0.0791 -0.0073
   49CHL1    H9 6070   5.956   4.934   9.693  0.1149 -2.4798 -2.4054
   49CHL1   C10 6071   5.863   4.898   9.891 -0.6368 -1.0586  0.1767
   49CHL1   C19 6072   5.747   4.807   9.938 -0.1760  0.5341 -0.6790
   49CHL1  H19A 6073   5.774   4.703   9.910  1.2772  0.1534  1.8874
   49CHL1  H19B 6074   5.754   4.798  10.048  2.1356  1.5027 -0.6858
   49CHL1  H19C 6075   5.641   4.835   9.923 -0.6260 -0.3996  0.6505
   49CHL1    C1 6076   5.999   4.847   9.942 -0.5460 -0.1277  0.0940
   49CHL1   H1A 6077   6.002   4.738   9.923 -1.1659  0.2716 -2.9184
   49CHL1   H1B 6078   6.082   4.882   9.877 -0.2140 -0.7835  0.1616
   49CHL1    C2 6079   6.031   4.878  10.086  1.4347  0.2168 -0.1019
   49CHL1   H2A 6080   6.132   4.844  10.119  1.6914  1.4873  0.5190
   49CHL1   H2B 6081   5.961   4.826  10.155  3.4144 -0.1823  1.7459
   49CHL1   C20 6082   5.704   4.739   9.216  0.2318 -0.1377  0.7078
   49CHL1   H20 6083   5.598   4.709   9.233 -0.3071  0.6515 -1.0037
   49CHL1   C21 6084   5.795   4.611   9.221 -0.3692  0.3853  0.2840
   49CHL1  H21A 6085   5.781   4.551   9.314  0.0897 -0.5081 -0.2150
   49CHL1  H21B 6086   5.903   4.637   9.209 -0.1191 -0.2490  1.1011
   49CHL1  H21C 6087   5.773   4.541   9.138 -1.4822 -0.7356  1.4760
   49CHL1   C22 6088   5.717   4.782   9.066 -0.4545  0.4040  0.6231
   49CHL1  H22A 6089   5.692   4.691   9.008 -0.7231  0.7350  0.2115
   49CHL1  H22B 6090   5.635   4.855   9.050 -1.5128 -0.9648 -0.3340
   49CHL1   C23 6091   5.850   4.845   9.006 -0.0366 -0.3745  0.5109
   49CHL1  H23A 6092   5.867   4.934   9.070 -1.3542  1.5964 -1.7202
   49CHL1  H23B 6093   5.932   4.772   9.023 -0.7712 -1.1327  0.8978
   49CHL1   C24 6094   5.837   4.893   8.856 -0.0269  0.1651 -0.0024
   49CHL1  H24A 6095   5.795   4.812   8.793  2.0768 -0.4295 -0.7548
   49CHL1  H24B 6096   5.769   4.980   8.849  0.1644  0.2733 -0.5646
   49CHL1   C25 6097   5.975   4.942   8.800 -0.2638  0.0163  0.1477
   49CHL1   H25 6098   6.014   5.009   8.879 -0.1160 -1.1944  1.1351
   49CHL1   C26 6099   6.081   4.841   8.799  0.5051 -0.1111  0.3381
   49CHL1  H26A 6100   6.168   4.890   8.752 -0.6924  3.7312  1.7105
   49CHL1  H26B 6101   6.105   4.801   8.900 -1.8138  1.3604  1.5761
   49CHL1  H26C 6102   6.049   4.755   8.737 -0.6448  0.5658 -0.0490
   49CHL1   C27 6103   5.951   5.022   8.672 -0.2318 -0.5317 -0.7466
   49CHL1  H27A 6104   6.055   5.046   8.642 -0.0575 -0.3309 -0.0078
   49CHL1  H27B 6105   5.904   4.965   8.589 -0.1645 -0.0159 -1.1393
   49CHL1  H27C 6106   5.906   5.122   8.692  1.8409  0.2461  0.4456
   50CHL1    C3 6107   2.870   3.015  10.024 -0.6044  0.0918 -0.4977
   50CHL1    H3 6108   2.797   3.097  10.041  2.7335  3.7161 -2.0725
   50CHL1    O3 6109   2.938   2.986  10.152  0.0596  0.0720 -0.0039
   50CHL1   H3' 6110   2.873   2.953  10.214  0.1828  0.8618  0.5678
   50CHL1    C4 6111   2.797   2.893   9.974 -0.3373 -0.8041 -0.2919
   50CHL1   H4A 6112   2.872   2.813   9.989  1.5725  1.0944  0.8761
   50CHL1   H4B 6113   2.714   2.864  10.042  0.4710 -0.3043  0.9455
   50CHL1    C5 6114   2.741   2.902   9.832 -0.3464 -0.2807  0.9978
   50CHL1    C6 6115   2.611   2.890   9.805 -0.7651  0.3902 -0.0859
   50CHL1    H6 6116   2.545   2.853   9.884 -1.5897  1.0347 -0.4577
   50CHL1    C7 6117   2.542   2.904   9.674 -0.2915  0.5312  0.1867
   50CHL1   H7A 6118   2.471   2.823   9.648 -0.3899  0.2484  1.2833
   50CHL1   H7B 6119   2.486   2.999   9.663 -3.3947 -0.8724  2.4363
   50CHL1    C8 6120   2.651   2.900   9.562 -1.2705  0.2470  0.2027
   50CHL1    H8 6121   2.689   2.795   9.555  0.0187  0.6468  0.9473
   50CHL1   C14 6122   2.582   2.939   9.433 -0.1074 -0.6337  0.0183
   50CHL1   H14 6123   2.535   3.039   9.447  0.6934 -0.3063  0.4008
   50CHL1   C15 6124   2.467   2.850   9.388 -0.2870 -0.1614 -0.8026
   50CHL1  H15A 6125   2.501   2.746   9.406  0.8263 -0.0660 -2.1153
   50CHL1  H15B 6126   2.366   2.871   9.428 -1.1717 -1.7269 -2.0888
   50CHL1   C16 6127   2.459   2.878   9.228 -0.4560  0.4130 -0.1445
   50CHL1  H16A 6128   2.469   2.778   9.180  0.4224  0.6116 -0.3912
   50CHL1  H16B 6129   2.357   2.920   9.221 -0.2284  0.8791 -0.7811
   50CHL1   C17 6130   2.578   2.979   9.198  0.5823  0.1228  0.0215
   50CHL1   H17 6131   2.525   3.076   9.195 -2.8555 -1.5895 -2.3704
   50CHL1   C13 6132   2.677   2.960   9.315  0.0482 -0.6378 -0.8024
   50CHL1   C18 6133   2.757   2.830   9.293  1.3019 -0.0709 -0.3859
   50CHL1  H18A 6134   2.833   2.840   9.213  0.8194 -1.2096 -1.0124
   50CHL1  H18B 6135   2.812   2.796   9.384  1.3550  1.4435  0.1844
   50CHL1  H18C 6136   2.699   2.744   9.254 -1.5837  1.5598  0.0277
   50CHL1   C12 6137   2.772   3.075   9.352 -0.1804  0.7246  0.0653
   50CHL1  H12A 6138   2.844   3.094   9.270 -0.2675 -0.7150 -0.3699
   50CHL1  H12B 6139   2.711   3.165   9.370  0.4315  1.1910 -0.1425
   50CHL1   C11 6140   2.854   3.036   9.477  0.6728  0.0977 -0.7893
   50CHL1  H11A 6141   2.918   2.946   9.468 -1.4509 -1.7664  1.2916
   50CHL1  H11B 6142   2.917   3.124   9.503  1.6567 -1.1063  1.1409
   50CHL1    C9 6143   2.764   2.999   9.598 -0.2306  0.4845  0.2310
   50CHL1    H9 6144   2.703   3.091   9.609  0.8762  1.3986 -1.0003
   50CHL1   C10 6145   2.843   2.965   9.731  0.1390  0.0471  0.6604
   50CHL1   C19 6146   2.935   2.850   9.698 -0.3253 -0.0002  0.3029
   50CHL1  H19A 6147   3.000   2.815   9.781  0.2027  0.0091 -0.1004
   50CHL1  H19B 6148   2.889   2.761   9.650  1.3844  0.4035 -2.3024
   50CHL1  H19C 6149   3.011   2.890   9.628  0.9691  0.5163  1.9426
   50CHL1    C1 6150   2.910   3.090   9.794 -0.3087  0.6783 -0.0457
   50CHL1   H1A 6151   2.990   3.131   9.729 -1.5499  0.6571 -1.6410
   50CHL1   H1B 6152   2.825   3.160   9.795 -1.7122 -0.9535 -0.0751
   50CHL1    C2 6153   2.974   3.065   9.932 -0.0146  0.2595 -0.7299
   50CHL1   H2A 6154   3.018   3.161   9.965 -1.7444  1.1151 -0.7677
   50CHL1   H2B 6155   3.061   2.998   9.916  1.2329  1.4614  0.6527
   50CHL1   C20 6156   2.639   2.969   9.052 -0.3805 -0.4517 -0.4631
   50CHL1   H20 6157   2.695   2.873   9.053 -3.2201 -2.2220 -1.1431
   50CHL1   C21 6158   2.746   3.079   9.029 -0.2167  0.7046 -0.3876
   50CHL1  H21A 6159   2.794   3.070   8.930  2.2556  0.2651  0.7677
   50CHL1  H21B 6160   2.836   3.052   9.088 -1.7427  0.2320  1.8971
   50CHL1  H21C 6161   2.700   3.179   9.045  0.4107  0.8542  0.5521
   50CHL1   C22 6162   2.527   2.977   8.942 -0.1306  0.7312 -0.3316
   50CHL1  H22A 6163   2.464   2.888   8.960  0.1047  1.0749  2.6873
   50CHL1  H22B 6164   2.453   3.058   8.962 -0.3672  0.5821 -0.5976
   50CHL1   C23 6165   2.577   2.987   8.795  0.0108  1.1555 -0.7933
   50CHL1  H23A 6166   2.489   3.003   8.729 -2.0251 -0.5884  1.3265
   50CHL1  H23B 6167   2.629   3.084   8.780  0.2256  0.9943 -1.1061
   50CHL1   C24 6168   2.651   2.853   8.752 -0.1826 -0.3102 -0.5072
   50CHL1  H24A 6169   2.728   2.841   8.831  2.2967 -0.1795 -2.7719
   50CHL1  H24B 6170   2.582   2.766   8.743  0.0492 -0.7462  1.4041
   50CHL1   C25 6171   2.719   2.868   8.611 -0.0544  1.0842 -0.0919
   50CHL1   H25 6172   2.771   2.772   8.591 -0.5957  0.6119  0.6859
   50CHL1   C26 6173   2.620   2.893   8.495  0.4453  0.0886  0.2742
   50CHL1  H26A 6174   2.676   2.940   8.411  0.0732 -0.3140 -0.2027
   50CHL1  H26B 6175   2.563   2.805   8.459  0.0134  1.2530 -2.0760
   50CHL1  H26C 6176   2.548   2.971   8.528  0.3336  1.0030 -1.9732
   50CHL1   C27 6177   2.837   2.970   8.614  0.4965 -0.6865 -0.1859
   50CHL1  H27A 6178   2.886   2.966   8.714 -0.4594 -1.1256  0.2853
   50CHL1  H27B 6179   2.906   2.958   8.529  0.3188  0.7982 -0.5741
   50CHL1  H27C 6180   2.790   3.068   8.592  2.8474  0.4896 -0.2784
   51CHL1    C3 6181   4.198   3.674  10.478 -0.2494 -0.2559 -0.2787
   51CHL1    H3 6182   4.243   3.769  10.443 -2.0633  0.6234 -0.3110
   51CHL1    O3 6183   4.233   3.654  10.611  0.2288  0.3067  0.5261
   51CHL1   H3' 6184   4.328   3.666  10.616 -0.0656  3.4258  0.6931
   51CHL1    C4 6185   4.050   3.688  10.453  0.0818  0.3196 -0.2284
   51CHL1   H4A 6186   4.010   3.591  10.487 -0.6070  0.8093  0.3941
   51CHL1   H4B 6187   4.004   3.769  10.514 -2.9976 -0.5552 -1.2000
   51CHL1    C5 6188   4.023   3.706  10.305  0.4099  0.8634  0.0919
   51CHL1    C6 6189   3.950   3.808  10.261  0.2648  0.3165  0.2401
   51CHL1    H6 6190   3.908   3.876  10.336 -0.3338  0.0467  0.1551
   51CHL1    C7 6191   3.901   3.812  10.121 -0.1513 -0.4693  0.7390
   51CHL1   H7A 6192   3.792   3.831  10.109 -0.0656 -0.9615 -1.2864
   51CHL1   H7B 6193   3.944   3.902  10.071  0.9904 -1.8558 -0.8963
   51CHL1    C8 6194   3.921   3.690  10.034  0.2974 -0.6053  0.4873
   51CHL1    H8 6195   3.845   3.614  10.063 -1.1803 -0.3907 -2.3942
   51CHL1   C14 6196   3.908   3.718   9.883  0.6907 -0.1661 -0.4103
   51CHL1   H14 6197   3.987   3.791   9.854  1.5604 -0.4955  1.0340
   51CHL1   C15 6198   3.781   3.797   9.835 -0.2977  0.1052 -0.3405
   51CHL1  H15A 6199   3.685   3.748   9.863  0.1887 -0.9364 -0.4635
   51CHL1  H15B 6200   3.779   3.901   9.873 -0.4095 -0.7082  2.0807
   51CHL1   C16 6201   3.790   3.774   9.681 -0.5606 -0.1764 -0.0959
   51CHL1  H16A 6202   3.697   3.738   9.632 -1.4283  3.7895 -1.7958
   51CHL1  H16B 6203   3.810   3.871   9.630 -0.4351  0.1250  0.5184
   51CHL1   C17 6204   3.895   3.660   9.656 -0.3001 -0.0236  1.0065
   51CHL1   H17 6205   3.984   3.712   9.614 -1.0229 -0.5293 -1.3201
   51CHL1   C13 6206   3.926   3.601   9.793 -0.7701  0.8051 -0.0357
   51CHL1   C18 6207   3.813   3.497   9.828  0.8663  1.2193  0.4109
   51CHL1  H18A 6208   3.843   3.404   9.775 -0.5157  1.4022 -0.7509
   51CHL1  H18B 6209   3.806   3.470   9.936 -1.1505  1.2464  0.3133
   51CHL1  H18C 6210   3.715   3.518   9.781  2.2958  1.3809 -2.7407
   51CHL1   C12 6211   4.074   3.560   9.817  0.0606 -0.1005  0.2779
   51CHL1  H12A 6212   4.114   3.481   9.750  0.6610  0.2702  0.1938
   51CHL1  H12B 6213   4.152   3.638   9.803  2.2855 -2.4586 -1.6043
   51CHL1   C11 6214   4.090   3.511   9.963 -0.2122 -0.0851 -0.5320
   51CHL1  H11A 6215   4.020   3.430   9.990  2.7223 -2.1572  1.4819
   51CHL1  H11B 6216   4.192   3.478   9.991 -0.2146 -0.0176 -0.4443
   51CHL1    C9 6217   4.057   3.631  10.063 -0.0359  0.2263 -0.4269
   51CHL1    H9 6218   4.133   3.711  10.045  2.2222 -1.7600 -0.2951
   51CHL1   C10 6219   4.074   3.594  10.214  0.1116  0.3517  0.4771
   51CHL1   C19 6220   4.003   3.465  10.240  0.0657 -0.7805  0.3456
   51CHL1  H19A 6221   4.040   3.375  10.187 -1.3139 -0.8358 -0.5649
   51CHL1  H19B 6222   4.006   3.428  10.345 -3.7819  0.0569  0.9039
   51CHL1  H19C 6223   3.892   3.473  10.235 -0.0107 -0.9245  1.4069
   51CHL1    C1 6224   4.229   3.571  10.251  0.8225  0.2904  0.4443
   51CHL1   H1A 6225   4.278   3.485  10.201 -0.4090  0.3342 -0.8983
   51CHL1   H1B 6226   4.283   3.658  10.208  1.3009  1.4025  3.0930
   51CHL1    C2 6227   4.262   3.557  10.399 -0.5142  0.0300 -0.3466
   51CHL1   H2A 6228   4.371   3.555  10.418 -0.5061 -0.7036 -0.4549
   51CHL1   H2B 6229   4.234   3.458  10.440  0.8379 -0.5825 -0.8597
   51CHL1   C20 6230   3.865   3.569   9.532 -0.6473 -0.1169  0.2291
   51CHL1   H20 6231   3.787   3.496   9.561 -1.4005 -0.1954 -1.8162
   51CHL1   C21 6232   3.990   3.479   9.507  0.8849  0.4992  0.5419
   51CHL1  H21A 6233   4.012   3.406   9.588 -1.8594 -1.5097 -0.3515
   51CHL1  H21B 6234   4.084   3.536   9.493  0.8444  0.7513  1.2424
   51CHL1  H21C 6235   3.984   3.402   9.428 -0.1440 -1.1699  2.1459
   51CHL1   C22 6236   3.824   3.642   9.394 -0.1211 -0.4632 -0.5947
   51CHL1  H22A 6237   3.732   3.702   9.412  0.2450  1.1555 -3.6139
   51CHL1  H22B 6238   3.907   3.707   9.361  1.0848 -1.7284 -0.1323
   51CHL1   C23 6239   3.778   3.545   9.288 -0.5641 -0.2489  0.3753
   51CHL1  H23A 6240   3.866   3.481   9.266 -0.0751 -0.0648  1.6836
   51CHL1  H23B 6241   3.704   3.482   9.342 -1.2118  1.5204  1.6434
   51CHL1   C24 6242   3.705   3.619   9.170 -0.4358  0.0965 -0.6090
   51CHL1  H24A 6243   3.638   3.693   9.218  0.7835 -0.4520  2.1211
   51CHL1  H24B 6244   3.787   3.666   9.113  0.1733 -0.2705 -0.0629
   51CHL1   C25 6245   3.631   3.519   9.076  0.2259 -0.4556  0.0355
   51CHL1   H25 6246   3.553   3.461   9.129  0.4978  1.4270  2.7127
   51CHL1   C26 6247   3.550   3.594   8.966  0.0029 -0.0507  0.2024
   51CHL1  H26A 6248   3.493   3.530   8.894 -3.2359  2.4240  0.3374
   51CHL1  H26B 6249   3.469   3.653   9.013 -1.1546  0.5224 -2.3209
   51CHL1  H26C 6250   3.611   3.665   8.907 -0.8317  2.0865  1.7978
   51CHL1   C27 6251   3.724   3.413   9.008  0.1691 -1.0239  0.2954
   51CHL1  H27A 6252   3.788   3.365   9.084  2.4192 -1.0528 -1.5115
   51CHL1  H27B 6253   3.666   3.330   8.962  2.6905 -1.5710 -2.1207
   51CHL1  H27C 6254   3.784   3.462   8.929 -1.0228 -1.0793 -0.6823
   52CHL1    C3 6255   0.175   0.765  10.038  1.1150  0.3747  0.1039
   52CHL1    H3 6256   0.136   0.661  10.030  0.1861  0.8243 -1.6485
   52CHL1    O3 6257   0.196   0.766  10.180  0.0540 -0.7264 -0.3457
   52CHL1   H3' 6258   0.275   0.819  10.194 -1.1487  0.6118  2.3011
   52CHL1    C4 6259   0.305   0.784   9.962 -0.3391 -0.2890  0.0711
   52CHL1   H4A 6260   0.339   0.886   9.989  1.2298 -1.2924  2.2079
   52CHL1   H4B 6261   0.379   0.717  10.012 -1.2760 -1.6466 -0.2904
   52CHL1    C5 6262   0.276   0.769   9.815 -0.0250  0.0426  0.1550
   52CHL1    C6 6263   0.341   0.682   9.737 -0.3907  0.2521  0.2730
   52CHL1    H6 6264   0.430   0.626   9.770  0.9068  1.9867 -0.1372
   52CHL1    C7 6265   0.335   0.673   9.584  0.6234 -0.4472 -0.1104
   52CHL1   H7A 6266   0.433   0.664   9.533 -0.2157 -0.8712 -1.6953
   52CHL1   H7B 6267   0.274   0.583   9.561 -1.5228  0.4906  1.5508
   52CHL1    C8 6268   0.264   0.808   9.536 -0.1274 -0.7258 -0.0567
   52CHL1    H8 6269   0.330   0.896   9.548 -0.3737 -0.3308 -1.3964
   52CHL1   C14 6270   0.232   0.785   9.385  0.6529 -0.2027 -0.3229
   52CHL1   H14 6271   0.178   0.689   9.388  2.8417 -1.4862  1.0989
   52CHL1   C15 6272   0.354   0.754   9.298 -0.1964 -0.6599  0.3573
   52CHL1  H15A 6273   0.440   0.820   9.323 -0.4340  0.2162 -1.0760
   52CHL1  H15B 6274   0.401   0.654   9.311  0.5757 -0.1270  1.9895
   52CHL1   C16 6275   0.304   0.774   9.155  0.5329 -0.7029  0.6572
   52CHL1  H16A 6276   0.366   0.849   9.101 -1.4215 -0.5649 -1.5577
   52CHL1  H16B 6277   0.322   0.682   9.097  1.5274 -0.4214  0.4992
   52CHL1   C17 6278   0.160   0.834   9.164 -0.7673 -0.3509  0.9280
   52CHL1   H17 6279   0.086   0.751   9.164  1.4619 -2.4520  0.7993
   52CHL1   C13 6280   0.162   0.894   9.309  0.1096 -0.8928 -0.2408
   52CHL1   C18 6281   0.249   1.028   9.307 -0.4222  0.1369 -0.0830
   52CHL1  H18A 6282   0.198   1.097   9.237 -2.4024  2.0665  3.0121
   52CHL1  H18B 6283   0.258   1.064   9.411 -0.1503  0.8340 -0.3457
   52CHL1  H18C 6284   0.348   1.011   9.259  1.0001  0.9618  2.3489
   52CHL1   C12 6285   0.028   0.912   9.385 -0.0424  0.5885  0.0566
   52CHL1  H12A 6286  -0.032   0.994   9.341 -1.1234 -1.0989 -1.8068
   52CHL1  H12B 6287  -0.026   0.817   9.366  1.7389 -0.4185 -0.1870
   52CHL1   C11 6288   0.044   0.938   9.536 -0.2206 -0.4230 -0.9026
   52CHL1  H11A 6289   0.097   1.035   9.530 -0.3079 -0.2318  1.0029
   52CHL1  H11B 6290  -0.051   0.950   9.592  0.3932 -1.2537  0.3518
   52CHL1    C9 6291   0.136   0.839   9.611 -0.4569 -0.2617 -0.4847
   52CHL1    H9 6292   0.084   0.740   9.616  1.0692 -1.0326  2.2392
   52CHL1   C10 6293   0.168   0.867   9.761 -0.1900 -0.2069  0.1938
   52CHL1   C19 6294   0.216   1.011   9.775 -0.0359 -0.3759  1.1461
   52CHL1  H19A 6295   0.297   1.030   9.701 -1.9735 -2.6765 -1.8069
   52CHL1  H19B 6296   0.136   1.084   9.749 -1.5360 -1.5932  2.1463
   52CHL1  H19C 6297   0.243   1.045   9.878 -0.7180  0.1877  1.1489
   52CHL1    C1 6298   0.041   0.851   9.849  0.1940  0.3767  0.0556
   52CHL1   H1A 6299  -0.039   0.919   9.814  1.7792  1.7452 -1.0496
   52CHL1   H1B 6300  -0.004   0.754   9.818  3.3116 -1.0665 -0.3336
   52CHL1    C2 6301   0.062   0.860   9.999 -0.4681  0.5641  0.4655
   52CHL1   H2A 6302  -0.034   0.829  10.046 -0.4252  1.4870  1.1904
   52CHL1   H2B 6303   0.087   0.964  10.031  2.9150  0.8322 -2.4162
   52CHL1   C20 6304   0.118   0.920   9.040 -0.9660 -0.3636  0.4790
   52CHL1   H20 6305   0.195   1.000   9.035 -2.3106  0.8928 -1.4732
   52CHL1   C21 6306  -0.016   0.992   9.055 -0.1690 -0.1529  0.1674
   52CHL1  H21A 6307  -0.034   1.063   8.971 -0.5686  1.6581  1.7258
   52CHL1  H21B 6308  -0.014   1.057   9.145  3.4571  1.5113 -0.9052
   52CHL1  H21C 6309  -0.099   0.918   9.046 -2.1070  1.7634  1.4230
   52CHL1   C22 6310   0.128   0.830   8.910  0.7702 -0.4330 -0.2553
   52CHL1  H22A 6311   0.230   0.786   8.901  0.1047 -1.9231 -0.9273
   52CHL1  H22B 6312   0.063   0.742   8.930  1.0366 -0.6402 -0.2980
   52CHL1   C23 6313   0.085   0.901   8.780  0.2008 -0.5047 -0.1569
   52CHL1  H23A 6314   0.099   0.830   8.696  0.2244 -0.5400 -0.1240
   52CHL1  H23B 6315  -0.025   0.909   8.787 -0.0855  0.5655 -3.7803
   52CHL1   C24 6316   0.150   1.035   8.754 -0.7547  0.2654  0.3503
   52CHL1  H24A 6317   0.120   1.103   8.837  0.0444  0.1109  0.7826
   52CHL1  H24B 6318   0.261   1.026   8.763 -0.7155  0.8951  0.5987
   52CHL1   C25 6319   0.105   1.103   8.621 -0.2093  0.9663 -0.5178
   52CHL1   H25 6320   0.086   1.021   8.548  2.4028 -0.0380 -0.1809
   52CHL1   C26 6321  -0.017   1.190   8.622  0.0743  0.3874  0.1727
   52CHL1  H26A 6322  -0.022   1.238   8.522  0.2920 -1.5803 -0.8321
   52CHL1  H26B 6323  -0.108   1.129   8.640  0.7166 -0.5923  0.1778
   52CHL1  H26C 6324   0.008   1.263   8.703  1.2115 -0.8079  0.9411
   52CHL1   C27 6325   0.219   1.181   8.564 -0.2370 -0.0870 -0.4629
   52CHL1  H27A 6326   0.200   1.231   8.467  0.5491 -0.7047 -0.9453
   52CHL1  H27B 6327   0.263   1.256   8.633 -0.4151 -1.6368  1.4512
   52CHL1  H27C 6328   0.301   1.107   8.548 -1.4769 -1.9002  1.0599
   53CHL1    C3 6329   1.352   1.645   9.960  0.0167  0.1542 -0.4133
   53CHL1    H3 6330   1.249   1.608   9.977  0.2092  0.4023  1.6286
   53CHL1    O3 6331   1.413   1.653  10.085 -0.2291 -0.1305 -0.6729
   53CHL1   H3' 6332   1.495   1.602  10.076 -0.7032 -1.1908  0.6603
   53CHL1    C4 6333   1.430   1.541   9.877 -0.7810  0.3199  0.3859
   53CHL1   H4A 6334   1.540   1.557   9.878 -0.9373  1.5117 -0.0254
   53CHL1   H4B 6335   1.416   1.440   9.921  2.1177 -0.4050 -0.1754
   53CHL1    C5 6336   1.382   1.542   9.730  0.4931 -0.8889  0.1000
   53CHL1    C6 6337   1.339   1.432   9.670 -0.7729 -0.3407  0.3924
   53CHL1    H6 6338   1.342   1.339   9.728  1.9117 -0.0094  0.9295
   53CHL1    C7 6339   1.296   1.429   9.527 -0.2208  0.9183 -0.0542
   53CHL1   H7A 6340   1.338   1.341   9.475 -1.5563 -0.3326  0.9112
   53CHL1   H7B 6341   1.188   1.402   9.521  0.5347 -2.8956  1.1654
   53CHL1    C8 6342   1.330   1.548   9.440 -0.7584  0.1957 -0.4365
   53CHL1    H8 6343   1.439   1.552   9.422 -0.5175 -0.1556  0.8556
   53CHL1   C14 6344   1.244   1.548   9.322  0.2152 -0.0210 -0.1784
   53CHL1   H14 6345   1.138   1.543   9.355  0.7059 -1.2047  1.3318
   53CHL1   C15 6346   1.248   1.419   9.235 -0.8009 -0.0812 -0.7164
   53CHL1  H15A 6347   1.354   1.400   9.210  0.6286  3.4407  1.8874
   53CHL1  H15B 6348   1.212   1.331   9.292 -1.3178  2.0628  2.5501
   53CHL1   C16 6349   1.170   1.470   9.112  0.0391 -0.0835  0.1823
   53CHL1  H16A 6350   1.232   1.431   9.028  0.7840  0.6261  0.4056
   53CHL1  H16B 6351   1.070   1.421   9.105 -0.2124  0.6166 -1.8228
   53CHL1   C17 6352   1.162   1.630   9.122 -0.4322 -0.1333  0.2536
   53CHL1   H17 6353   1.063   1.661   9.163 -0.6725 -1.7538  0.9770
   53CHL1   C13 6354   1.263   1.671   9.229  0.1316  0.6527 -0.3676
   53CHL1   C18 6355   1.403   1.674   9.169  0.2446  0.3474 -0.2737
   53CHL1  H18A 6356   1.477   1.666   9.251 -0.5662  0.0879  0.4443
   53CHL1  H18B 6357   1.417   1.584   9.105 -1.4838  0.5349 -0.9828
   53CHL1  H18C 6358   1.418   1.772   9.118 -2.1006  2.0166  1.9827
   53CHL1   C12 6359   1.228   1.797   9.311 -0.4505  0.3982 -0.0297
   53CHL1  H12A 6360   1.219   1.894   9.258  2.2551  0.5095 -0.4718
   53CHL1  H12B 6361   1.126   1.786   9.352 -1.6227  2.9439 -2.0428
   53CHL1   C11 6362   1.329   1.805   9.431  0.5913 -0.0235 -0.0602
   53CHL1  H11A 6363   1.435   1.821   9.401  0.2783  2.6635  0.0861
   53CHL1  H11B 6364   1.298   1.896   9.486 -0.1334  0.6486 -1.5328
   53CHL1    C9 6365   1.303   1.686   9.522 -0.1899  1.1476  0.2214
   53CHL1    H9 6366   1.196   1.669   9.545 -0.1338  1.9073  1.0811
   53CHL1   C10 6367   1.372   1.687   9.659  0.6591 -0.0825 -0.5308
   53CHL1   C19 6368   1.520   1.744   9.640  0.2943 -0.2770 -0.1673
   53CHL1  H19A 6369   1.515   1.852   9.616  0.8551 -0.3716 -0.7754
   53CHL1  H19B 6370   1.584   1.724   9.729 -0.2363 -3.1994 -0.3399
   53CHL1  H19C 6371   1.572   1.697   9.553  0.4213  3.3996 -2.3044
   53CHL1    C1 6372   1.292   1.782   9.753 -0.6146 -0.1151  0.4031
   53CHL1   H1A 6373   1.281   1.885   9.715 -1.6174  0.8347  3.0426
   53CHL1   H1B 6374   1.185   1.753   9.763 -0.1081 -1.6452  2.0699
   53CHL1    C2 6375   1.350   1.786   9.895  0.4022 -0.0540 -0.5324
   53CHL1   H2A 6376   1.292   1.859   9.955  1.4838 -0.6356  1.3205
   53CHL1   H2B 6377   1.456   1.820   9.891  0.1350  1.0314  0.7415
   53CHL1   C20 6378   1.182   1.698   8.987  0.0535  0.6061  0.5482
   53CHL1   H20 6379   1.286   1.680   8.951 -0.4993 -1.6457 -0.0832
   53CHL1   C21 6380   1.161   1.849   8.995 -0.1792  0.1137 -0.4109
   53CHL1  H21A 6381   1.065   1.873   9.045  0.5381  0.3293  0.8924
   53CHL1  H21B 6382   1.139   1.900   8.898 -1.9360 -0.2879 -0.2555
   53CHL1  H21C 6383   1.238   1.901   9.055 -1.4298 -0.3953  1.7309
   53CHL1   C22 6384   1.097   1.647   8.868  0.0102  0.6447 -0.2644
   53CHL1  H22A 6385   1.138   1.708   8.784 -0.9519  2.0988  0.2691
   53CHL1  H22B 6386   1.105   1.540   8.841  2.6382  1.1846 -1.9593
   53CHL1   C23 6387   0.944   1.661   8.878  0.0113  0.1124 -0.4264
   53CHL1  H23A 6388   0.904   1.613   8.970 -1.9771 -0.1746 -1.3829
   53CHL1  H23B 6389   0.930   1.771   8.880 -1.7542 -0.0890 -0.0880
   53CHL1   C24 6390   0.876   1.589   8.757  0.3896  0.2560  0.3815
   53CHL1  H24A 6391   0.891   1.647   8.664 -1.0313 -0.0983 -0.0950
   53CHL1  H24B 6392   0.928   1.493   8.736 -0.7241 -0.9525  2.6989
   53CHL1   C25 6393   0.725   1.556   8.764  0.4623  0.1277 -0.3846
   53CHL1   H25 6394   0.666   1.650   8.767  1.6469  0.8744  0.7948
   53CHL1   C26 6395   0.680   1.476   8.646 -0.2206 -0.3165  0.6393
   53CHL1  H26A 6396   0.758   1.409   8.604 -0.2826  0.6962 -1.2149
   53CHL1  H26B 6397   0.584   1.423   8.666 -1.1415  0.8203 -0.5802
   53CHL1  H26C 6398   0.652   1.538   8.558 -0.0759 -1.9303 -0.6086
   53CHL1   C27 6399   0.681   1.491   8.892 -0.4156  0.6799 -0.7513
   53CHL1  H27A 6400   0.577   1.452   8.896 -0.9698  2.0055 -1.4931
   53CHL1  H27B 6401   0.754   1.408   8.902 -1.7573 -0.9449 -3.2766
   53CHL1  H27C 6402   0.681   1.561   8.978  0.6429 -0.1907 -0.0148
   54CHL1    C3 6403   1.613   5.732  10.101  0.2937  0.3740  0.2687
   54CHL1    H3 6404   1.579   5.826  10.052  2.1016 -0.5054 -3.0107
   54CHL1    O3 6405   1.657   5.747  10.233 -0.2310 -0.3263 -0.2045
   54CHL1   H3' 6406   1.584   5.793  10.277  0.1632  0.4776 -0.3682
   54CHL1    C4 6407   1.490   5.643  10.122  0.0078  0.1454  0.7385
   54CHL1   H4A 6408   1.529   5.547  10.162  0.4908  1.0292  2.5023
   54CHL1   H4B 6409   1.430   5.684  10.205  2.0537 -1.0156  2.9205
   54CHL1    C5 6410   1.424   5.622   9.989 -0.3661  0.4145  0.0205
   54CHL1    C6 6411   1.302   5.679   9.962 -0.0652 -0.5684 -0.0708
   54CHL1    H6 6412   1.243   5.736  10.035 -0.4968 -1.3044  0.1671
   54CHL1    C7 6413   1.232   5.662   9.835 -0.1546 -0.1957 -0.0122
   54CHL1   H7A 6414   1.124   5.644   9.851 -0.1578 -0.9680 -0.8349
   54CHL1   H7B 6415   1.240   5.762   9.787 -1.6875 -0.4091 -0.7688
   54CHL1    C8 6416   1.288   5.551   9.744 -0.0672  0.0574 -0.1276
   54CHL1    H8 6417   1.275   5.449   9.786  2.0381 -1.1183 -2.1104
   54CHL1   C14 6418   1.225   5.557   9.607  0.5322  0.5593 -0.2734
   54CHL1   H14 6419   1.241   5.660   9.569 -1.2965 -0.1912 -3.4419
   54CHL1   C15 6420   1.071   5.561   9.586  0.5211  0.4318  0.4478
   54CHL1  H15A 6421   1.026   5.474   9.639  0.6541  0.3864  0.4846
   54CHL1  H15B 6422   1.016   5.654   9.612 -1.4560 -0.9743  1.6408
   54CHL1   C16 6423   1.056   5.532   9.429 -0.7370 -0.1857 -1.3000
   54CHL1  H16A 6424   0.978   5.454   9.417 -1.4168  0.4820 -1.2787
   54CHL1  H16B 6425   1.023   5.620   9.370 -0.9205  1.1564  0.6841
   54CHL1   C17 6426   1.196   5.489   9.384  0.5238  0.2203 -0.6655
   54CHL1   H17 6427   1.228   5.582   9.332  1.8184 -0.1798 -0.6265
   54CHL1   C13 6428   1.281   5.459   9.505 -0.1736 -0.1896  0.0658
   54CHL1   C18 6429   1.262   5.317   9.546 -0.2913  0.4746 -0.2681
   54CHL1  H18A 6430   1.305   5.248   9.471  1.5137  0.9508  0.2863
   54CHL1  H18B 6431   1.314   5.309   9.644  1.7201  2.1344 -1.1242
   54CHL1  H18C 6432   1.154   5.298   9.570  0.1195  0.1863  1.5441
   54CHL1   C12 6433   1.429   5.515   9.489  0.7561 -0.5976  0.6334
   54CHL1  H12A 6434   1.478   5.455   9.409  0.0003  0.3896 -0.6025
   54CHL1  H12B 6435   1.420   5.623   9.466  1.0109 -1.2813 -3.4314
   54CHL1   C11 6436   1.506   5.499   9.618  0.7664 -0.2689 -0.1760
   54CHL1  H11A 6437   1.537   5.396   9.645 -0.3840 -0.0643  2.2277
   54CHL1  H11B 6438   1.609   5.536   9.598  0.4001  0.9168  0.0257
   54CHL1    C9 6439   1.438   5.574   9.731 -0.3735 -0.6094  0.1344
   54CHL1    H9 6440   1.442   5.681   9.699 -0.3285 -0.3801  0.8850
   54CHL1   C10 6441   1.511   5.558   9.873  0.5114  0.2257 -0.2601
   54CHL1   C19 6442   1.552   5.410   9.899 -0.3422 -0.0999  0.0531
   54CHL1  H19A 6443   1.591   5.382   9.999  0.9669 -0.8659 -0.6488
   54CHL1  H19B 6444   1.477   5.331   9.876  0.7687 -0.7927 -1.3184
   54CHL1  H19C 6445   1.635   5.386   9.830 -1.1034 -1.9759 -0.2637
   54CHL1    C1 6446   1.636   5.652   9.872  0.7209  0.7555  0.7720
   54CHL1   H1A 6447   1.710   5.617   9.796  1.2677  1.1463  1.1158
   54CHL1   H1B 6448   1.617   5.756   9.836  2.1464  0.5502 -0.7115
   54CHL1    C2 6449   1.708   5.660  10.006 -0.2803 -0.6399  0.3243
   54CHL1   H2A 6450   1.801   5.720   9.996 -0.8090 -0.1648 -2.6510
   54CHL1   H2B 6451   1.732   5.558  10.042  2.8953  0.0514  0.4980
   54CHL1   C20 6452   1.197   5.381   9.274 -0.8135  0.3785 -0.1154
   54CHL1   H20 6453   1.177   5.281   9.319  0.1743  1.0044  1.7933
   54CHL1   C21 6454   1.337   5.359   9.215  0.4379 -0.2207 -0.2717
   54CHL1  H21A 6455   1.384   5.446   9.166  0.7087 -1.1708 -1.7808
   54CHL1  H21B 6456   1.339   5.275   9.142 -3.2938  0.7702 -1.7597
   54CHL1  H21C 6457   1.403   5.319   9.295 -1.6299  0.9967  2.1674
   54CHL1   C22 6458   1.104   5.398   9.155 -0.4501  0.0079  0.1601
   54CHL1  H22A 6459   1.108   5.304   9.096  1.4146 -0.2208  0.5756
   54CHL1  H22B 6460   1.001   5.405   9.194 -0.9250 -4.3091  0.0745
   54CHL1   C23 6461   1.128   5.511   9.050 -0.1945 -0.8525 -0.3832
   54CHL1  H23A 6462   1.178   5.593   9.106  0.3771 -0.7143 -1.0808
   54CHL1  H23B 6463   1.202   5.485   8.971  1.4780  2.8685 -0.2384
   54CHL1   C24 6464   0.988   5.560   8.996  0.5020  0.0559 -0.3886
   54CHL1  H24A 6465   0.909   5.481   8.992  0.3435  0.1046  1.2218
   54CHL1  H24B 6466   0.942   5.643   9.054 -2.1716 -1.4637 -0.1567
   54CHL1   C25 6467   1.013   5.612   8.852 -0.0783  0.1096  0.2133
   54CHL1   H25 6468   0.921   5.669   8.824  0.2040  0.9983  1.0341
   54CHL1   C26 6469   1.121   5.713   8.838 -0.3007  0.0477  0.2095
   54CHL1  H26A 6470   1.118   5.781   8.927 -0.7896 -0.6378  0.7234
   54CHL1  H26B 6471   1.220   5.664   8.826 -0.1526  0.2272  0.6701
   54CHL1  H26C 6472   1.097   5.777   8.750 -0.9572 -1.7437 -0.9683
   54CHL1   C27 6473   1.039   5.502   8.747  0.2138 -0.7908  0.0913
   54CHL1  H27A 6474   0.961   5.423   8.751 -0.4958 -0.1631 -0.7307
   54CHL1  H27B 6475   1.037   5.556   8.650 -1.1344 -1.3766 -0.2203
   54CHL1  H27C 6476   1.132   5.444   8.764  0.5119 -0.4117 -0.2067
   55CHL1    C3 6477   1.763   1.254   9.956 -0.5127  0.2635  0.1887
   55CHL1    H3 6478   1.662   1.292   9.981  0.3699  1.4057  2.2445
   55CHL1    O3 6479   1.819   1.208  10.081  0.3252 -0.5159 -0.3064
   55CHL1   H3' 6480   1.913   1.188  10.071 -0.1080 -2.7648 -0.2238
   55CHL1    C4 6481   1.756   1.132   9.867  0.2173  0.0647 -0.8470
   55CHL1   H4A 6482   1.854   1.079   9.871 -0.4639 -1.1946  0.6153
   55CHL1   H4B 6483   1.685   1.063   9.918 -1.1935 -0.3118 -3.1888
   55CHL1    C5 6484   1.716   1.162   9.719 -0.6419 -0.5044  0.5700
   55CHL1    C6 6485   1.620   1.094   9.653 -0.0740  0.0996  0.1607
   55CHL1    H6 6486   1.575   1.011   9.710 -0.7915 -0.2484 -0.8801
   55CHL1    C7 6487   1.591   1.114   9.505  0.5928 -0.6671  0.4361
   55CHL1   H7A 6488   1.574   1.019   9.450  0.3980 -0.8643  0.8315
   55CHL1   H7B 6489   1.494   1.168   9.501  0.4259 -1.0026 -0.2639
   55CHL1    C8 6490   1.697   1.196   9.432  0.2727 -0.4364  0.1500
   55CHL1    H8 6491   1.787   1.133   9.422  0.4793 -0.4883  2.0625
   55CHL1   C14 6492   1.634   1.253   9.304  0.8010  0.6417  1.0847
   55CHL1   H14 6493   1.537   1.306   9.322 -0.0609 -0.1731 -0.9108
   55CHL1   C15 6494   1.595   1.145   9.200  0.0465  0.4064 -0.3995
   55CHL1  H15A 6495   1.677   1.070   9.201  0.2136  0.5887 -0.2450
   55CHL1  H15B 6496   1.499   1.095   9.224  0.5361  0.9386  3.2100
   55CHL1   C16 6497   1.592   1.218   9.065 -0.1074  0.2473  0.1253
   55CHL1  H16A 6498   1.661   1.165   8.997 -0.1769 -0.6176  0.7207
   55CHL1  H16B 6499   1.488   1.228   9.027  0.3070 -1.9089 -1.7758
   55CHL1   C17 6500   1.641   1.369   9.094 -0.7032  0.1734  0.1719
   55CHL1   H17 6501   1.551   1.434   9.109  0.5507  2.6477 -2.1814
   55CHL1   C13 6502   1.717   1.349   9.230  0.5800  0.2739 -0.0767
   55CHL1   C18 6503   1.864   1.299   9.204  0.0700  0.1452 -0.5366
   55CHL1  H18A 6504   1.915   1.382   9.151 -1.2863  2.1123  1.0771
   55CHL1  H18B 6505   1.912   1.277   9.301  1.1172  0.3189 -1.0019
   55CHL1  H18C 6506   1.859   1.207   9.142  0.1459  0.3827 -0.9031
   55CHL1   C12 6507   1.714   1.474   9.318 -0.3005  0.1398  0.0894
   55CHL1  H12A 6508   1.755   1.557   9.256  1.4097 -1.6833 -1.3662
   55CHL1  H12B 6509   1.614   1.508   9.352 -0.4857  0.8957 -1.1422
   55CHL1   C11 6510   1.785   1.450   9.454  0.1296 -1.0722 -0.2608
   55CHL1  H11A 6511   1.894   1.435   9.436 -0.0078 -0.8797 -1.3441
   55CHL1  H11B 6512   1.769   1.540   9.517  1.8489  0.5381 -1.9408
   55CHL1    C9 6513   1.724   1.325   9.527 -0.2469 -0.2641  0.0098
   55CHL1    H9 6514   1.622   1.355   9.560 -0.3771 -2.1521  1.4567
   55CHL1   C10 6515   1.792   1.284   9.655  0.4635  0.7098  0.1879
   55CHL1   C19 6516   1.933   1.232   9.628  0.4474  0.4205 -0.4982
   55CHL1  H19A 6517   1.998   1.305   9.575  0.3581  0.3167 -0.7513
   55CHL1  H19B 6518   1.980   1.209   9.726  1.8960  1.9786 -0.7862
   55CHL1  H19C 6519   1.940   1.137   9.571  0.9401  0.1889 -0.0622
   55CHL1    C1 6520   1.808   1.404   9.754 -0.1658 -0.4057 -0.0658
   55CHL1   H1A 6521   1.882   1.474   9.712  0.5750 -1.6752 -0.9394
   55CHL1   H1B 6522   1.706   1.447   9.759 -0.9373 -2.2010  0.8332
   55CHL1    C2 6523   1.845   1.373   9.899 -0.4649 -0.2139  0.1828
   55CHL1   H2A 6524   1.831   1.471   9.949  3.0798  1.4941 -1.7900
   55CHL1   H2B 6525   1.954   1.353   9.890 -0.4164 -0.2742  0.8563
   55CHL1   C20 6526   1.707   1.453   8.979  0.1935  1.0915  0.2892
   55CHL1   H20 6527   1.791   1.387   8.946  0.7334  0.5469  2.5882
   55CHL1   C21 6528   1.769   1.590   9.020  0.1437  0.0626  0.0633
   55CHL1  H21A 6529   1.692   1.648   9.074  0.3626 -0.0687  0.5223
   55CHL1  H21B 6530   1.794   1.653   8.932 -0.8317  1.7590  0.9579
   55CHL1  H21C 6531   1.865   1.592   9.077 -0.0767  0.0255  0.4369
   55CHL1   C22 6532   1.618   1.475   8.859  0.0087  0.1975 -0.1889
   55CHL1  H22A 6533   1.570   1.380   8.828  1.1275 -0.4429 -0.0204
   55CHL1  H22B 6534   1.538   1.541   8.898 -0.3300  0.2154 -0.9098
   55CHL1   C23 6535   1.689   1.537   8.734 -0.2065  0.0644  0.3803
   55CHL1  H23A 6536   1.743   1.632   8.755  1.0552 -0.7999  1.2301
   55CHL1  H23B 6537   1.767   1.461   8.710  0.0677  0.7544 -0.9975
   55CHL1   C24 6538   1.600   1.565   8.602  0.0513  0.0162 -0.3122
   55CHL1  H24A 6539   1.665   1.602   8.520  2.6653 -0.6677  1.3201
   55CHL1  H24B 6540   1.559   1.464   8.583  1.2574 -1.4804  3.7643
   55CHL1   C25 6541   1.490   1.667   8.630  0.2592  0.7385  0.2858
   55CHL1   H25 6542   1.428   1.625   8.712 -0.6970 -2.8233 -2.0106
   55CHL1   C26 6543   1.547   1.807   8.666  0.1644  0.6325 -0.3267
   55CHL1  H26A 6544   1.599   1.846   8.575 -0.2665  1.6145 -0.1656
   55CHL1  H26B 6545   1.469   1.884   8.684 -0.1661  0.4675 -1.0032
   55CHL1  H26C 6546   1.617   1.801   8.752 -2.5959 -2.1424  1.9190
   55CHL1   C27 6547   1.397   1.673   8.504 -0.2457  0.1074  0.2962
   55CHL1  H27A 6548   1.456   1.720   8.423  1.5022 -0.8779  0.9458
   55CHL1  H27B 6549   1.371   1.567   8.485 -1.1040 -0.0225  1.9880
   55CHL1  H27C 6550   1.305   1.731   8.525  0.7715  2.3005 -1.0023
   56CHL1    C3 6551   0.693   5.721  10.079  0.2905 -0.1306  0.2978
   56CHL1    H3 6552   0.762   5.806  10.102  1.3485 -0.8803 -0.0130
   56CHL1    O3 6553   0.705   5.634  10.195  0.2609  0.4601 -0.5994
   56CHL1   H3' 6554   0.625   5.583  10.186 -0.9066  1.9435  0.8145
   56CHL1    C4 6555   0.549   5.769  10.063 -0.1599 -0.1677  1.2049
   56CHL1   H4A 6556   0.475   5.686  10.062 -1.0324  0.5901  0.1073
   56CHL1   H4B 6557   0.534   5.824  10.158  1.6145  1.3749  0.6317
   56CHL1    C5 6558   0.537   5.861   9.939 -0.0080  0.0247  0.6305
   56CHL1    C6 6559   0.487   5.984   9.945 -0.0959 -0.5929 -0.0904
   56CHL1    H6 6560   0.449   6.011  10.045 -1.4519 -0.2027 -0.6994
   56CHL1    C7 6561   0.461   6.067   9.819 -0.2000 -0.3902  0.9123
   56CHL1   H7A 6562   0.367   6.125   9.825  0.6062  1.1316 -0.3791
   56CHL1   H7B 6563   0.548   6.136   9.822 -0.6781  0.2563  0.2769
   56CHL1    C8 6564   0.470   5.986   9.680  0.1871  0.3569 -0.2649
   56CHL1    H8 6565   0.378   5.924   9.677  1.0808 -1.1543  1.4217
   56CHL1   C14 6566   0.491   6.083   9.565 -0.0139  0.9241  0.3013
   56CHL1   H14 6567   0.596   6.120   9.573  0.3284 -0.1914  1.2343
   56CHL1   C15 6568   0.394   6.199   9.553  1.0682 -0.0417 -0.1321
   56CHL1  H15A 6569   0.292   6.158   9.571  1.0813 -0.2220 -0.4560
   56CHL1  H15B 6570   0.413   6.272   9.634  3.0613  0.5742 -1.0992
   56CHL1   C16 6571   0.402   6.231   9.400 -0.2393 -0.0898  0.0592
   56CHL1  H16A 6572   0.299   6.216   9.362 -0.5538 -4.3550  1.9805
   56CHL1  H16B 6573   0.437   6.335   9.383  1.8648 -0.4351  1.8607
   56CHL1   C17 6574   0.501   6.130   9.330 -0.6778 -0.2931  0.5589
   56CHL1   H17 6575   0.606   6.165   9.339 -0.5648 -0.6261  0.5288
   56CHL1   C13 6576   0.494   6.009   9.428  0.0081 -0.5890  0.4483
   56CHL1   C18 6577   0.360   5.938   9.401  0.0620  0.4163  0.2469
   56CHL1  H18A 6578   0.348   5.899   9.298 -1.0606 -1.2700  0.9624
   56CHL1  H18B 6579   0.350   5.853   9.472  0.4133 -0.2292 -0.4685
   56CHL1  H18C 6580   0.269   5.998   9.424  0.1831  0.6264  0.1792
   56CHL1   C12 6581   0.605   5.913   9.426  0.6471 -0.5019  0.4622
   56CHL1  H12A 6582   0.603   5.847   9.336  2.5464  0.8052 -0.6266
   56CHL1  H12B 6583   0.702   5.965   9.414 -0.0667  0.2475 -3.3546
   56CHL1   C11 6584   0.617   5.818   9.546  0.6467  0.4260  0.1874
   56CHL1  H11A 6585   0.561   5.726   9.521 -0.5923  0.6909  1.8632
   56CHL1  H11B 6586   0.724   5.788   9.540  0.1788 -1.2563 -0.3105
   56CHL1    C9 6587   0.587   5.882   9.683 -0.8408  0.0748  0.4743
   56CHL1    H9 6588   0.678   5.943   9.704 -0.8208 -0.5850  2.5568
   56CHL1   C10 6589   0.585   5.787   9.804  0.3230  0.1058 -0.2440
   56CHL1   C19 6590   0.471   5.682   9.768 -0.1804  0.0007 -0.4502
   56CHL1  H19A 6591   0.378   5.729   9.730 -1.0048 -0.8987  0.4014
   56CHL1  H19B 6592   0.502   5.614   9.686  0.6528  2.3191 -2.1786
   56CHL1  H19C 6593   0.445   5.620   9.856 -0.4061  2.1943  1.1089
   56CHL1    C1 6594   0.720   5.707   9.823  0.2065 -1.1781  0.1204
   56CHL1   H1A 6595   0.740   5.630   9.746  1.2813  0.1512 -0.9883
   56CHL1   H1B 6596   0.801   5.780   9.803  0.3315 -1.0621  0.9955
   56CHL1    C2 6597   0.737   5.636   9.958 -0.1420  0.0405 -0.2684
   56CHL1   H2A 6598   0.846   5.619   9.970 -0.2685  0.7586  2.5490
   56CHL1   H2B 6599   0.687   5.537   9.954 -0.6710  0.2532  0.8070
   56CHL1   C20 6600   0.474   6.117   9.179 -0.2704  0.2298  0.5846
   56CHL1   H20 6601   0.386   6.052   9.154  1.4617 -2.0191 -0.0164
   56CHL1   C21 6602   0.584   6.035   9.114  0.8327  0.5233 -0.5761
   56CHL1  H21A 6603   0.560   5.928   9.135  0.6782  0.4441 -1.1357
   56CHL1  H21B 6604   0.685   6.053   9.157  0.6781 -1.1447  0.5637
   56CHL1  H21C 6605   0.591   6.048   9.004 -1.2380 -0.7215 -0.9103
   56CHL1   C22 6606   0.464   6.244   9.089 -0.0204  1.1121  0.2606
   56CHL1  H22A 6607   0.407   6.323   9.143 -0.4708  0.1930  1.1490
   56CHL1  H22B 6608   0.567   6.281   9.068  0.0539  1.0262  0.4703
   56CHL1   C23 6609   0.387   6.214   8.952  0.3435 -1.1390 -0.5100
   56CHL1  H23A 6610   0.437   6.148   8.878  0.5468  0.0875 -1.5242
   56CHL1  H23B 6611   0.292   6.158   8.969 -1.2145  1.7709  1.1829
   56CHL1   C24 6612   0.340   6.345   8.883  0.1696 -0.2909 -0.1824
   56CHL1  H24A 6613   0.299   6.411   8.962 -1.0036 -0.3263 -0.7529
   56CHL1  H24B 6614   0.430   6.388   8.833 -0.3804  0.8555 -0.2098
   56CHL1   C25 6615   0.233   6.317   8.775  0.0477  0.1488 -0.3529
   56CHL1   H25 6616   0.262   6.231   8.711  0.3681 -1.3008  1.6364
   56CHL1   C26 6617   0.094   6.294   8.839  0.0087  0.4762 -0.3346
   56CHL1  H26A 6618   0.026   6.240   8.770  1.7304 -1.1376 -0.8814
   56CHL1  H26B 6619   0.111   6.218   8.919  1.5259 -0.1390 -1.1883
   56CHL1  H26C 6620   0.044   6.384   8.879  0.8583  1.3070 -1.1009
   56CHL1   C27 6621   0.226   6.433   8.680  0.8868  0.2161 -1.0480
   56CHL1  H27A 6622   0.318   6.460   8.624  0.8411  0.1935 -1.1354
   56CHL1  H27B 6623   0.148   6.415   8.603  0.1023 -1.0562  0.0103
   56CHL1  H27C 6624   0.202   6.532   8.724  0.7245 -0.1329 -0.3333
   57CHL1    C3 6625   2.231   2.545  10.173 -0.5715 -0.7268 -0.4809
   57CHL1    H3 6626   2.324   2.595  10.141 -0.7540 -1.0825 -1.5963
   57CHL1    O3 6627   2.221   2.530  10.315  0.0533 -0.0913  0.2603
   57CHL1   H3' 6628   2.210   2.435  10.324 -0.6159  0.1130  1.9364
   57CHL1    C4 6629   2.122   2.630  10.108 -0.1330  0.1971  0.3452
   57CHL1   H4A 6630   2.027   2.582  10.140 -0.7416  1.6394  0.7932
   57CHL1   H4B 6631   2.122   2.730  10.156 -0.8537  1.1451 -1.5384
   57CHL1    C5 6632   2.111   2.637   9.959  0.3334  0.3396 -0.0213
   57CHL1    C6 6633   2.113   2.759   9.902 -0.2347  0.6111  0.2059
   57CHL1    H6 6634   2.127   2.851   9.960  2.4929  0.0934  0.5291
   57CHL1    C7 6635   2.111   2.760   9.751 -0.1178  0.4026  0.3922
   57CHL1   H7A 6636   2.033   2.833   9.721 -1.4101 -1.1563 -0.1852
   57CHL1   H7B 6637   2.211   2.799   9.721 -0.3217  0.0863 -0.7276
   57CHL1    C8 6638   2.082   2.634   9.670  0.2397  0.4740 -0.3074
   57CHL1    H8 6639   1.973   2.615   9.681  0.5277 -2.1664 -1.2987
   57CHL1   C14 6640   2.116   2.652   9.530  0.7318  0.7528 -0.0430
   57CHL1   H14 6641   2.224   2.677   9.527  0.7016  0.7856 -1.5488
   57CHL1   C15 6642   2.046   2.777   9.457  0.1249 -0.0792 -0.4149
   57CHL1  H15A 6643   1.945   2.782   9.505  1.2367 -1.7316  2.3705
   57CHL1  H15B 6644   2.097   2.874   9.473 -0.5854  0.7389 -2.6810
   57CHL1   C16 6645   2.054   2.734   9.313 -0.5960 -1.0695  0.0683
   57CHL1  H16A 6646   1.954   2.716   9.269 -0.7536  1.1769 -0.6163
   57CHL1  H16B 6647   2.112   2.800   9.244  0.3024  0.6400  2.3161
   57CHL1   C17 6648   2.109   2.587   9.302 -0.1671 -0.0699  0.8006
   57CHL1   H17 6649   2.217   2.605   9.284  0.3596 -1.6447  2.0714
   57CHL1   C13 6650   2.092   2.525   9.448  0.8124 -0.0391  0.3987
   57CHL1   C18 6651   1.948   2.480   9.454  0.9165  0.5075  0.0876
   57CHL1  H18A 6652   1.929   2.456   9.560 -1.1778  4.3316  0.7325
   57CHL1  H18B 6653   1.877   2.559   9.421 -0.3610 -1.4076 -2.0929
   57CHL1  H18C 6654   1.931   2.387   9.395  0.1614 -1.2058  2.8717
   57CHL1   C12 6655   2.184   2.415   9.498 -0.8035  0.4101  0.6111
   57CHL1  H12A 6656   2.175   2.315   9.450 -0.5097  0.2011  0.9920
   57CHL1  H12B 6657   2.291   2.442   9.489 -0.1373 -2.0838  0.1977
   57CHL1   C11 6658   2.155   2.390   9.646  0.2273 -1.0179 -0.4733
   57CHL1  H11A 6659   2.062   2.331   9.660 -0.6441  0.7132  1.4249
   57CHL1  H11B 6660   2.229   2.319   9.689  0.2008 -0.4027  0.6385
   57CHL1    C9 6661   2.160   2.521   9.731 -0.2825 -0.0885 -0.4515
   57CHL1    H9 6662   2.266   2.554   9.734 -0.5150  0.6558  2.0951
   57CHL1   C10 6663   2.120   2.506   9.879 -0.0919 -0.4497 -0.4089
   57CHL1   C19 6664   1.979   2.437   9.894  0.4924  0.5883 -0.2422
   57CHL1  H19A 6665   1.976   2.337   9.846  0.9785  0.5919 -0.2919
   57CHL1  H19B 6666   1.944   2.430   9.999 -2.4070 -1.0289 -1.2025
   57CHL1  H19C 6667   1.904   2.495   9.836 -0.4965  2.4633  2.6793
   57CHL1    C1 6668   2.232   2.426   9.953 -0.2119 -0.0192 -0.2827
   57CHL1   H1A 6669   2.251   2.333   9.895  1.6134  0.8517 -1.1681
   57CHL1   H1B 6670   2.322   2.486   9.929  1.2672 -2.0873 -0.2140
   57CHL1    C2 6671   2.221   2.406  10.101  0.3898 -0.3482  0.6098
   57CHL1   H2A 6672   2.296   2.332  10.135  0.0032 -0.9113  0.2641
   57CHL1   H2B 6673   2.121   2.368  10.129 -0.4678  1.0031 -0.4678
   57CHL1   C20 6674   2.066   2.508   9.181  0.2363 -0.1562  0.5033
   57CHL1   H20 6675   1.960   2.479   9.202  0.7348 -2.2492  0.3398
   57CHL1   C21 6676   2.158   2.384   9.162 -0.5570  0.1700 -0.1522
   57CHL1  H21A 6677   2.145   2.309   9.242  3.4472  0.2734  0.8219
   57CHL1  H21B 6678   2.262   2.422   9.174  0.8972 -3.5110  0.1079
   57CHL1  H21C 6679   2.138   2.328   9.068 -1.9751 -0.7123  0.6532
   57CHL1   C22 6680   2.062   2.580   9.044  0.4901 -0.0327  0.3567
   57CHL1  H22A 6681   2.019   2.681   9.059  2.5873  0.8335  0.8712
   57CHL1  H22B 6682   2.167   2.588   9.009  0.2464 -0.8728 -0.6075
   57CHL1   C23 6683   1.962   2.518   8.938  0.4692  0.0968 -0.4946
   57CHL1  H23A 6684   2.002   2.415   8.935  2.9160  0.9854 -1.2206
   57CHL1  H23B 6685   1.858   2.521   8.975  0.9621  2.9624  0.9541
   57CHL1   C24 6686   1.980   2.578   8.799 -0.5089 -0.1966  0.5438
   57CHL1  H24A 6687   1.892   2.559   8.734 -0.7447  3.6764 -0.5512
   57CHL1  H24B 6688   1.985   2.689   8.808  0.1753 -0.3080  1.6796
   57CHL1   C25 6689   2.113   2.527   8.734  0.1675 -0.2963 -0.8994
   57CHL1   H25 6690   2.204   2.563   8.786 -0.6714 -0.8208  1.0321
   57CHL1   C26 6691   2.132   2.375   8.716  0.1585 -0.1117  0.3164
   57CHL1  H26A 6692   2.168   2.329   8.811 -1.5160 -0.0015  1.0403
   57CHL1  H26B 6693   2.033   2.334   8.688  0.2829 -1.3996  1.6629
   57CHL1  H26C 6694   2.203   2.381   8.631  0.5448  0.7494  0.6772
   57CHL1   C27 6695   2.128   2.603   8.600  0.4101 -0.3082 -0.2278
   57CHL1  H27A 6696   2.213   2.569   8.538  0.1822  0.2084 -0.8321
   57CHL1  H27B 6697   2.039   2.586   8.535  0.2542  2.5713 -0.9054
   57CHL1  H27C 6698   2.141   2.713   8.613  0.8481 -0.3997  0.1520
   58CHL1    C3 6699   5.088   0.111  10.082 -0.1782  0.0527 -0.2652
   58CHL1    H3 6700   4.995   0.148  10.131  1.4847  0.9765  2.3854
   58CHL1    O3 6701   5.176   0.079  10.193  0.1615 -0.2772  0.6579
   58CHL1   H3' 6702   5.123   0.056  10.270 -1.8489  3.2657  0.5423
   58CHL1    C4 6703   5.084  -0.010   9.994 -0.1394 -0.1884  0.1880
   58CHL1   H4A 6704   5.187  -0.037   9.963  0.3068  3.6339 -2.4066
   58CHL1   H4B 6705   5.044  -0.083  10.067  0.0832  1.1625  1.7218
   58CHL1    C5 6706   4.996   0.034   9.880  0.1009  0.3768  0.1169
   58CHL1    C6 6707   4.884  -0.035   9.853 -0.2227  0.0567 -0.1812
   58CHL1    H6 6708   4.866  -0.124   9.915  1.9099 -0.6990 -0.5832
   58CHL1    C7 6709   4.781  -0.002   9.744 -0.0389  0.6473 -0.1460
   58CHL1   H7A 6710   4.742  -0.092   9.692  0.1593  0.7768 -0.5174
   58CHL1   H7B 6711   4.689   0.044   9.788 -0.2604  0.0195  0.0698
   58CHL1    C8 6712   4.846   0.086   9.637  0.5336  0.2552 -0.3939
   58CHL1    H8 6713   4.915   0.015   9.588 -0.1125 -0.7004  0.0354
   58CHL1   C14 6714   4.749   0.138   9.531  0.1154 -0.1829 -0.6024
   58CHL1   H14 6715   4.673   0.201   9.582  0.7182  0.2983 -0.2783
   58CHL1   C15 6716   4.667   0.020   9.463  0.6070  0.5616  0.3497
   58CHL1  H15A 6717   4.741  -0.057   9.430 -0.0432  0.7698 -1.7344
   58CHL1  H15B 6718   4.590  -0.024   9.530  0.1837  0.4247 -0.2192
   58CHL1   C16 6719   4.614   0.088   9.340  0.0867  0.1440  0.4715
   58CHL1  H16A 6720   4.609   0.019   9.253  1.7765 -1.4193  1.5181
   58CHL1  H16B 6721   4.507   0.114   9.353 -0.2295 -0.5130 -0.6276
   58CHL1   C17 6722   4.691   0.227   9.323 -0.1609  0.0025 -0.6297
   58CHL1   H17 6723   4.631   0.304   9.375  1.4130  0.2353  0.9181
   58CHL1   C13 6724   4.809   0.225   9.419  0.1158  0.2864 -0.3059
   58CHL1   C18 6725   4.924   0.153   9.344  0.1768  0.4338 -0.0616
   58CHL1  H18A 6726   4.954   0.209   9.253  2.1961 -2.3809 -1.2726
   58CHL1  H18B 6727   5.009   0.137   9.414 -2.5416  0.8742  3.6379
   58CHL1  H18C 6728   4.899   0.047   9.321  1.7033 -0.7847  3.2024
   58CHL1   C12 6729   4.856   0.352   9.493  0.1781  0.5664 -0.2631
   58CHL1  H12A 6730   4.901   0.423   9.420  0.2383  0.2731 -0.5155
   58CHL1  H12B 6731   4.769   0.398   9.544 -0.2460  0.3116 -0.7472
   58CHL1   C11 6732   4.964   0.327   9.611 -0.5219  0.2961 -0.5376
   58CHL1  H11A 6733   5.048   0.286   9.552  0.3575  0.2455  0.7220
   58CHL1  H11B 6734   4.990   0.419   9.667  1.4373 -1.0363  0.8573
   58CHL1    C9 6735   4.916   0.207   9.709  0.2248 -0.9624 -0.1224
   58CHL1    H9 6736   4.835   0.250   9.771 -2.0971 -3.4081 -1.2452
   58CHL1   C10 6737   5.033   0.156   9.800  0.2547 -0.2881 -0.1818
   58CHL1   C19 6738   5.152   0.110   9.708  0.0189 -0.8816 -0.3740
   58CHL1  H19A 6739   5.126   0.033   9.633  1.8072 -2.6961  0.7637
   58CHL1  H19B 6740   5.191   0.202   9.659 -0.9409 -0.5839 -0.6031
   58CHL1  H19C 6741   5.240   0.075   9.766  0.0089 -1.2422 -0.5771
   58CHL1    C1 6742   5.081   0.278   9.890 -0.6364  0.3349 -0.0003
   58CHL1   H1A 6743   5.154   0.338   9.832 -2.5345 -0.3542 -3.4079
   58CHL1   H1B 6744   4.988   0.333   9.915 -0.1607  0.6383  1.1333
   58CHL1    C2 6745   5.154   0.232  10.012  0.2599  0.3574 -0.3595
   58CHL1   H2A 6746   5.166   0.318  10.082 -2.7498  1.8396 -1.4574
   58CHL1   H2B 6747   5.259   0.204   9.989 -0.1636 -2.0634  0.3120
   58CHL1   C20 6748   4.718   0.276   9.175  0.3053 -0.1348 -0.2772
   58CHL1   H20 6749   4.778   0.199   9.123 -1.5781 -1.0262 -1.2275
   58CHL1   C21 6750   4.778   0.414   9.165 -0.0623 -0.0860  0.2539
   58CHL1  H21A 6751   4.880   0.433   9.207 -0.7240  1.2844  1.3436
   58CHL1  H21B 6752   4.716   0.492   9.214  1.9417  2.2710 -0.7426
   58CHL1  H21C 6753   4.782   0.445   9.059 -0.6354  0.8912  0.5059
   58CHL1   C22 6754   4.587   0.278   9.091  0.4663  0.1982  0.8249
   58CHL1  H22A 6755   4.519   0.201   9.133  0.6709 -1.4765 -1.6723
   58CHL1  H22B 6756   4.537   0.377   9.088 -2.1696 -1.0874 -0.1161
   58CHL1   C23 6757   4.607   0.244   8.940 -0.0556 -0.6146  0.5491
   58CHL1  H23A 6758   4.666   0.330   8.902 -0.8738 -0.2614  0.0536
   58CHL1  H23B 6759   4.669   0.154   8.923  2.0863  0.9150 -0.1001
   58CHL1   C24 6760   4.480   0.243   8.851  0.0613 -0.5983  0.6083
   58CHL1  H24A 6761   4.410   0.171   8.898 -0.0817  0.0459  1.4115
   58CHL1  H24B 6762   4.423   0.336   8.874 -1.8944 -1.7650  0.7124
   58CHL1   C25 6763   4.503   0.232   8.701 -0.3668 -0.0478  0.4755
   58CHL1   H25 6764   4.553   0.135   8.677 -1.1438 -0.7168  1.4832
   58CHL1   C26 6765   4.366   0.228   8.633  1.1760 -0.5467  0.1418
   58CHL1  H26A 6766   4.291   0.167   8.686  0.7840  2.2610  3.1151
   58CHL1  H26B 6767   4.318   0.327   8.652 -0.5661 -1.7313  2.2742
   58CHL1  H26C 6768   4.375   0.207   8.524 -2.0675 -0.7379 -0.1625
   58CHL1   C27 6769   4.572   0.351   8.646 -0.8305  0.1810 -0.5325
   58CHL1  H27A 6770   4.602   0.331   8.541 -0.9431 -2.1151 -0.1746
   58CHL1  H27B 6771   4.514   0.443   8.668 -0.2166  0.3444  0.5269
   58CHL1  H27C 6772   4.668   0.368   8.700 -0.5549 -3.0917  0.2054
   59CHL1    C3 6773   4.578   1.169  10.163  0.7090 -0.1730  0.3603
   59CHL1    H3 6774   4.469   1.180  10.143  1.4205  0.9787 -3.8660
   59CHL1    O3 6775   4.597   1.104  10.290  0.1420  0.0031 -0.4919
   59CHL1   H3' 6776   4.555   1.162  10.354  0.5418  0.0491 -0.2688
   59CHL1    C4 6777   4.649   1.089  10.050  0.3171  0.5604  0.2593
   59CHL1   H4A 6778   4.753   1.073  10.088  0.0757 -1.6440  0.1324
   59CHL1   H4B 6779   4.603   0.988  10.054  0.6863  0.3223 -1.1191
   59CHL1    C5 6780   4.642   1.153   9.919  0.1466  0.3382  0.0926
   59CHL1    C6 6781   4.591   1.083   9.820 -0.0989 -0.3462 -0.8367
   59CHL1    H6 6782   4.547   0.984   9.843 -1.7280  0.4562 -0.3471
   59CHL1    C7 6783   4.569   1.152   9.689  0.0727  0.5478  0.9627
   59CHL1   H7A 6784   4.587   1.087   9.601 -1.0793  2.2872 -0.6283
   59CHL1   H7B 6785   4.463   1.186   9.687 -0.5035 -1.1547  0.2270
   59CHL1    C8 6786   4.653   1.279   9.668 -0.1985  0.1832  0.3329
   59CHL1    H8 6787   4.757   1.241   9.657  0.1724  1.0320  0.8546
   59CHL1   C14 6788   4.610   1.360   9.542  0.0237  0.2004  0.6751
   59CHL1   H14 6789   4.513   1.406   9.569  1.3329  1.6918  3.2063
   59CHL1   C15 6790   4.598   1.287   9.408 -0.2542 -0.1841  0.5576
   59CHL1  H15A 6791   4.686   1.220   9.406  1.2493  1.4540  4.0263
   59CHL1  H15B 6792   4.506   1.225   9.396  0.4149 -0.9154 -1.1896
   59CHL1   C16 6793   4.607   1.388   9.303  0.3236  1.2044 -0.0807
   59CHL1  H16A 6794   4.688   1.367   9.230  1.2531  0.5156  1.1019
   59CHL1  H16B 6795   4.511   1.404   9.249  0.8133  0.5751 -1.1730
   59CHL1   C17 6796   4.634   1.523   9.381 -0.6619  0.0980  0.6964
   59CHL1   H17 6797   4.539   1.564   9.421  0.1112  1.5349  1.1429
   59CHL1   C13 6798   4.698   1.482   9.506  0.1573  0.0019  0.2002
   59CHL1   C18 6799   4.851   1.450   9.487  0.2764  1.0399  0.4285
   59CHL1  H18A 6800   4.904   1.545   9.509 -0.0651  1.5351 -0.8072
   59CHL1  H18B 6801   4.884   1.378   9.565 -0.1856  2.4709  2.0127
   59CHL1  H18C 6802   4.873   1.407   9.387  1.0587 -0.6447  1.2873
   59CHL1   C12 6803   4.683   1.582   9.629 -0.1666 -0.8541 -0.0038
   59CHL1  H12A 6804   4.756   1.665   9.617  1.7173 -2.7522 -3.0602
   59CHL1  H12B 6805   4.577   1.618   9.630  0.4191  1.0135 -0.6536
   59CHL1   C11 6806   4.726   1.505   9.751  0.1842 -0.0955  0.4316
   59CHL1  H11A 6807   4.834   1.485   9.739  0.2767  1.3113 -1.6412
   59CHL1  H11B 6808   4.704   1.580   9.830 -0.0729  0.9322 -0.5846
   59CHL1    C9 6809   4.650   1.376   9.790 -0.3617  0.4964 -0.5971
   59CHL1    H9 6810   4.546   1.414   9.795 -0.3631  0.8205 -2.2647
   59CHL1   C10 6811   4.684   1.303   9.915  0.5905  0.5461 -0.8621
   59CHL1   C19 6812   4.834   1.300   9.940 -0.4313 -0.3918 -0.2942
   59CHL1  H19A 6813   4.894   1.255   9.859  1.9911 -0.4790  1.4288
   59CHL1  H19B 6814   4.883   1.398   9.956 -0.3086 -0.5326  0.2350
   59CHL1  H19C 6815   4.860   1.252  10.037  1.5346  0.1549 -0.5073
   59CHL1    C1 6816   4.612   1.386  10.028 -0.2108 -1.0539  0.1626
   59CHL1   H1A 6817   4.656   1.488  10.032  2.8762 -2.3432  2.4333
   59CHL1   H1B 6818   4.502   1.384  10.013 -0.2633  2.1763 -0.6437
   59CHL1    C2 6819   4.630   1.319  10.166  0.2606 -0.1426  0.3373
   59CHL1   H2A 6820   4.579   1.378  10.245 -1.6704 -1.3905  0.0963
   59CHL1   H2B 6821   4.737   1.325  10.195 -0.0941  1.4932  1.4374
   59CHL1   C20 6822   4.690   1.635   9.285  0.1110  0.6432  0.2180
   59CHL1   H20 6823   4.800   1.627   9.293  0.1161  0.3415 -0.0987
   59CHL1   C21 6824   4.657   1.776   9.349  0.2674  0.7024 -0.2979
   59CHL1  H21A 6825   4.702   1.865   9.300  0.8836  0.8891  0.6004
   59CHL1  H21B 6826   4.696   1.770   9.453  0.9950  1.4226 -0.5202
   59CHL1  H21C 6827   4.547   1.763   9.354  0.3590  0.4294  1.9031
   59CHL1   C22 6828   4.633   1.631   9.140  0.0173  0.7144 -0.7184
   59CHL1  H22A 6829   4.665   1.541   9.083  0.5240 -0.3058  1.1312
   59CHL1  H22B 6830   4.522   1.627   9.146  0.0812 -1.0751 -0.2982
   59CHL1   C23 6831   4.667   1.750   9.060  0.5793  0.4587 -0.5098
   59CHL1  H23A 6832   4.610   1.837   9.099  1.0133  1.5868 -2.2564
   59CHL1  H23B 6833   4.773   1.783   9.071  0.5052  0.6013 -0.1891
   59CHL1   C24 6834   4.645   1.738   8.912  0.3392  0.3436  0.2841
   59CHL1  H24A 6835   4.710   1.665   8.858 -0.2254  1.5702 -2.2241
   59CHL1  H24B 6836   4.547   1.686   8.904 -0.1924  1.2053  1.0185
   59CHL1   C25 6837   4.644   1.864   8.824  0.2041 -0.0428  0.1919
   59CHL1   H25 6838   4.743   1.916   8.825 -0.1133  0.5706  0.4665
   59CHL1   C26 6839   4.601   1.825   8.682  0.6390  0.5491 -0.2159
   59CHL1  H26A 6840   4.495   1.793   8.686  0.8724 -0.0980  1.2322
   59CHL1  H26B 6841   4.593   1.903   8.604  1.1715  1.2948  0.4582
   59CHL1  H26C 6842   4.663   1.742   8.641 -0.2891  0.3778 -1.3343
   59CHL1   C27 6843   4.543   1.963   8.880  0.0474 -0.3137 -0.0704
   59CHL1  H27A 6844   4.590   2.019   8.964  0.1682 -1.3942  0.5975
   59CHL1  H27B 6845   4.508   2.034   8.802 -1.4202 -0.9011  0.0057
   59CHL1  H27C 6846   4.446   1.917   8.911 -1.3720  2.2011 -0.4803
   60CHL1    C3 6847   4.325   3.949  10.278 -0.6011 -0.2682 -0.0372
   60CHL1    H3 6848   4.254   3.863  10.267  1.4890 -2.0051 -0.6645
   60CHL1    O3 6849   4.357   3.976  10.409  0.2721  0.1879  0.3305
   60CHL1   H3' 6850   4.412   4.054  10.400  2.9632 -1.5315  0.5873
   60CHL1    C4 6851   4.461   3.921  10.213 -0.5785  0.7009 -0.0801
   60CHL1   H4A 6852   4.515   4.015  10.237 -1.3462  0.6810  1.9139
   60CHL1   H4B 6853   4.513   3.837  10.263  0.1233  0.4585 -1.1684
   60CHL1    C5 6854   4.462   3.895  10.061  0.4129 -0.2984 -0.4369
   60CHL1    C6 6855   4.503   3.780  10.012 -0.5964  0.0772  0.6752
   60CHL1    H6 6856   4.550   3.703  10.075  0.5812 -0.4044 -0.7323
   60CHL1    C7 6857   4.493   3.739   9.867  0.0387  0.2840  0.0651
   60CHL1   H7A 6858   4.589   3.693   9.835  0.4312  0.9463  0.2693
   60CHL1   H7B 6859   4.415   3.662   9.851 -1.2311  1.3373  0.9500
   60CHL1    C8 6860   4.449   3.856   9.777 -0.1444 -0.1766  0.2678
   60CHL1    H8 6861   4.530   3.927   9.753  1.3827 -1.7984  0.4151
   60CHL1   C14 6862   4.397   3.804   9.643  0.1024 -0.0619 -0.0892
   60CHL1   H14 6863   4.308   3.744   9.671 -1.8967  1.7390 -2.2011
   60CHL1   C15 6864   4.491   3.711   9.555  0.3017  1.5110  0.3344
   60CHL1  H15A 6865   4.596   3.746   9.538  0.8954  0.2848  1.3322
   60CHL1  H15B 6866   4.511   3.607   9.591 -2.4140  1.3452  1.5518
   60CHL1   C16 6867   4.411   3.700   9.422 -0.3148 -0.6188  0.6274
   60CHL1  H16A 6868   4.484   3.713   9.339  0.0996  0.3471  1.1208
   60CHL1  H16B 6869   4.372   3.597   9.406  1.0615 -0.8302 -1.8993
   60CHL1   C17 6870   4.302   3.817   9.424 -0.2168  0.4072 -0.6321
   60CHL1   H17 6871   4.211   3.770   9.466  0.2850  0.4036  0.5013
   60CHL1   C13 6872   4.343   3.906   9.544 -0.3132 -0.4151  0.3354
   60CHL1   C18 6873   4.452   4.001   9.499  0.9991 -0.2372 -0.3529
   60CHL1  H18A 6874   4.515   3.956   9.420  0.4361 -1.5497 -0.0732
   60CHL1  H18B 6875   4.410   4.088   9.445 -0.4564 -0.7006 -0.0040
   60CHL1  H18C 6876   4.519   4.042   9.578 -0.8595  3.2086 -0.3754
   60CHL1   C12 6877   4.230   3.985   9.605  0.4561 -0.4573  0.3636
   60CHL1  H12A 6878   4.199   4.076   9.548  0.8069  0.2781  1.3279
   60CHL1  H12B 6879   4.143   3.918   9.623 -1.1461  1.2899 -0.4904
   60CHL1   C11 6880   4.283   4.042   9.736 -0.0810 -0.4586 -0.3243
   60CHL1  H11A 6881   4.364   4.113   9.711  0.3992 -0.6997  0.5163
   60CHL1  H11B 6882   4.201   4.098   9.786  1.5361  0.3487  1.5431
   60CHL1    C9 6883   4.334   3.935   9.842 -0.3054  0.0897 -0.0474
   60CHL1    H9 6884   4.255   3.861   9.866  0.9684 -1.8497 -1.5982
   60CHL1   C10 6885   4.374   4.000   9.980  0.5851  0.6390 -0.6402
   60CHL1   C19 6886   4.458   4.129   9.964 -0.2866  0.4479  0.5713
   60CHL1  H19A 6887   4.407   4.219   9.923  2.4449  2.1411  0.6216
   60CHL1  H19B 6888   4.495   4.161  10.064  0.6047 -1.2965  0.8459
   60CHL1  H19C 6889   4.551   4.116   9.904  1.3151  2.6469  2.3855
   60CHL1    C1 6890   4.234   4.035  10.056  0.1100 -0.1477 -0.6461
   60CHL1   H1A 6891   4.179   4.120  10.010  0.0053 -0.6125 -1.3943
   60CHL1   H1B 6892   4.173   3.943  10.058  0.3678 -0.3629 -1.9705
   60CHL1    C2 6893   4.260   4.068  10.207 -0.1886  0.1704  1.1413
   60CHL1   H2A 6894   4.170   4.095  10.265  0.3754 -0.8742  2.5704
   60CHL1   H2B 6895   4.327   4.156  10.216  1.8188 -1.3162  1.5101
   60CHL1   C20 6896   4.266   3.872   9.289  0.2910 -0.0371  0.2179
   60CHL1   H20 6897   4.347   3.937   9.250 -1.5424  1.6334 -0.9866
   60CHL1   C21 6898   4.130   3.951   9.305 -0.0187 -0.3227  0.2570
   60CHL1  H21A 6899   4.093   3.985   9.206  0.1385  0.1352  0.3522
   60CHL1  H21B 6900   4.154   4.049   9.351  1.6852  0.1700 -1.5520
   60CHL1  H21C 6901   4.051   3.905   9.369 -1.7001  1.9375 -0.0386
   60CHL1   C22 6902   4.251   3.769   9.167  0.2563  0.1815 -0.1433
   60CHL1  H22A 6903   4.255   3.836   9.079  0.3905 -2.1658 -2.0216
   60CHL1  H22B 6904   4.341   3.705   9.161 -0.2299 -1.2608  4.0895
   60CHL1   C23 6905   4.120   3.684   9.165 -0.0913 -0.4832 -0.6305
   60CHL1  H23A 6906   4.101   3.630   9.260 -0.1641  0.2278 -0.2323
   60CHL1  H23B 6907   4.036   3.754   9.146  0.8762  0.7144 -0.6174
   60CHL1   C24 6908   4.137   3.578   9.059  0.1642 -0.4442 -0.1235
   60CHL1  H24A 6909   4.221   3.514   9.092  0.9242  1.2345  1.3935
   60CHL1  H24B 6910   4.051   3.508   9.071  1.5210 -2.4789 -1.6826
   60CHL1   C25 6911   4.141   3.623   8.915 -0.3435  1.3144 -0.4021
   60CHL1   H25 6912   4.244   3.658   8.893  0.0202  0.3908 -0.1919
   60CHL1   C26 6913   4.136   3.498   8.827  0.1811  0.0444  0.8144
   60CHL1  H26A 6914   4.217   3.426   8.848 -2.3812 -3.9932 -1.7498
   60CHL1  H26B 6915   4.040   3.442   8.832 -1.8272  3.1899  1.0975
   60CHL1  H26C 6916   4.141   3.535   8.722  0.9604  1.2549  1.2638
   60CHL1   C27 6917   4.041   3.727   8.871  0.1492  0.4339  0.5946
   60CHL1  H27A 6918   4.048   3.817   8.937 -0.8189  0.8208  0.1974
   60CHL1  H27B 6919   4.040   3.761   8.765 -0.9856  1.2385  0.8375
   60CHL1  H27C 6920   3.940   3.681   8.876  0.7896 -1.3620 -1.6922
   61CHL1    C3 6921   3.641   5.755  10.266 -0.0584 -0.4012 -0.3776
   61CHL1    H3 6922   3.661   5.647  10.278 -1.7353 -0.9225 -1.8082
   61CHL1    O3 6923   3.586   5.809  10.392 -0.2268  0.7628  1.2802
   61CHL1   H3' 6924   3.553   5.895  10.366 -1.2404  0.3421  1.0899
   61CHL1    C4 6925   3.769   5.819  10.227  0.0466 -0.4028  0.7236
   61CHL1   H4A 6926   3.760   5.930  10.229 -0.5787 -0.4271 -0.1021
   61CHL1   H4B 6927   3.845   5.791  10.303  0.9578  2.0727  0.8315
   61CHL1    C5 6928   3.807   5.776  10.087 -0.8248  0.6740 -0.9626
   61CHL1    C6 6929   3.929   5.731  10.064  0.0459 -0.2461 -0.0889
   61CHL1    H6 6930   3.998   5.739  10.148  0.1716 -1.0006 -0.1128
   61CHL1    C7 6931   3.980   5.699   9.930  0.0443 -0.1293 -0.6161
   61CHL1   H7A 6932   4.072   5.755   9.902  0.9592 -1.2076  0.1335
   61CHL1   H7B 6933   4.013   5.593   9.927  0.5573  0.0407 -1.6623
   61CHL1    C8 6934   3.884   5.744   9.817  0.2692  0.1631 -0.0561
   61CHL1    H8 6935   3.891   5.853   9.796 -2.2882  0.5019  0.5148
   61CHL1   C14 6936   3.926   5.673   9.689  0.5434  0.3270  0.2915
   61CHL1   H14 6937   3.917   5.563   9.696  4.3896 -0.1378  0.3873
   61CHL1   C15 6938   4.071   5.681   9.653  0.3280 -0.3214  0.1402
   61CHL1  H15A 6939   4.116   5.778   9.683  2.7029 -1.9054  2.1500
   61CHL1  H15B 6940   4.143   5.615   9.706 -1.7820  0.2483  4.0413
   61CHL1   C16 6941   4.071   5.650   9.497  0.1389 -0.0542 -0.3086
   61CHL1  H16A 6942   4.108   5.734   9.436  1.3917  0.6608  1.3464
   61CHL1  H16B 6943   4.116   5.551   9.470 -2.6799 -1.1494 -1.3114
   61CHL1   C17 6944   3.920   5.634   9.466 -0.5140  0.2333 -0.0163
   61CHL1   H17 6945   3.902   5.524   9.464  1.2324 -0.2007  2.3673
   61CHL1   C13 6946   3.839   5.708   9.568  0.2749 -0.2694  0.3969
   61CHL1   C18 6947   3.838   5.861   9.538 -0.0820  0.0096  0.8042
   61CHL1  H18A 6948   3.799   5.929   9.617  0.9532 -0.1280  1.4508
   61CHL1  H18B 6949   3.940   5.899   9.515 -0.9590  0.7816 -2.2868
   61CHL1  H18C 6950   3.768   5.879   9.454 -1.1422  0.3477  1.7213
   61CHL1   C12 6951   3.692   5.663   9.597 -0.1423  0.3024 -0.4066
   61CHL1  H12A 6952   3.613   5.685   9.522  0.3608 -0.2918 -1.1261
   61CHL1  H12B 6953   3.695   5.559   9.636  3.6971  0.0564 -0.8873
   61CHL1   C11 6954   3.644   5.733   9.719  0.3396  0.1267 -0.2606
   61CHL1  H11A 6955   3.631   5.843   9.705  0.9668  0.1281 -0.9048
   61CHL1  H11B 6956   3.540   5.699   9.736 -0.4156  1.7623 -1.3509
   61CHL1    C9 6957   3.739   5.716   9.844 -0.0111  1.0811 -0.1231
   61CHL1    H9 6958   3.727   5.607   9.863 -2.0235  1.3819  0.5443
   61CHL1   C10 6959   3.696   5.781   9.979  0.0335  0.3345  0.3917
   61CHL1   C19 6960   3.674   5.935   9.945 -0.3357  0.1195 -0.1648
   61CHL1  H19A 6961   3.578   5.938   9.889 -0.1195 -2.4388 -0.7857
   61CHL1  H19B 6962   3.642   6.002  10.028 -2.3231 -0.6406 -0.2645
   61CHL1  H19C 6963   3.761   5.976   9.889  0.5010  0.5676  1.4061
   61CHL1    C1 6964   3.581   5.703  10.040 -0.7048  0.0052  0.0591
   61CHL1   H1A 6965   3.500   5.706   9.964  0.2778 -1.0754 -1.0779
   61CHL1   H1B 6966   3.609   5.596  10.049 -0.6650  0.0962  1.0552
   61CHL1    C2 6967   3.528   5.762  10.165  0.0669  0.2141  0.1925
   61CHL1   H2A 6968   3.444   5.698  10.198  0.2942  0.0632  0.4908
   61CHL1   H2B 6969   3.497   5.868  10.164  1.6196  0.7059  0.3612
   61CHL1   C20 6970   3.883   5.669   9.325 -0.5911  0.0654  0.0065
   61CHL1   H20 6971   3.904   5.777   9.308 -1.2141  0.6302  2.3477
   61CHL1   C21 6972   3.731   5.660   9.290  0.3924  0.8626 -0.4472
   61CHL1  H21A 6973   3.682   5.572   9.336 -0.8116  1.6459 -0.1892
   61CHL1  H21B 6974   3.694   5.667   9.185 -1.1253  2.2474  0.1294
   61CHL1  H21C 6975   3.684   5.748   9.338 -0.7176 -1.8461  3.9655
   61CHL1   C22 6976   3.956   5.572   9.230 -0.6583 -0.3275 -0.0857
   61CHL1  H22A 6977   3.992   5.477   9.275  2.0143  1.6049  2.1623
   61CHL1  H22B 6978   3.893   5.545   9.142  1.4110  0.6880 -1.9974
   61CHL1   C23 6979   4.072   5.638   9.156 -0.0932  0.1699  0.8180
   61CHL1  H23A 6980   4.146   5.690   9.221 -0.5243  0.6449  0.9317
   61CHL1  H23B 6981   4.127   5.554   9.107  0.2471  1.3282 -0.8623
   61CHL1   C24 6982   4.025   5.729   9.041 -0.3333  0.7298  0.2851
   61CHL1  H24A 6983   3.958   5.672   8.973 -1.5136  0.2534  1.7931
   61CHL1  H24B 6984   3.964   5.816   9.074 -1.5478 -0.2190  0.5846
   61CHL1   C25 6985   4.144   5.785   8.960 -0.1811 -0.2068  0.5053
   61CHL1   H25 6986   4.240   5.781   9.016 -0.6030  0.5968  1.3223
   61CHL1   C26 6987   4.165   5.708   8.830  1.0739  0.1443 -0.6437
   61CHL1  H26A 6988   4.175   5.598   8.842  0.2880  0.1747  0.4327
   61CHL1  H26B 6989   4.079   5.726   8.761  0.7415  1.7314  0.1433
   61CHL1  H26C 6990   4.251   5.739   8.768  0.3196  2.9859 -0.3975
   61CHL1   C27 6991   4.112   5.936   8.918  0.5160 -0.5687 -0.4076
   61CHL1  H27A 6992   4.014   5.947   8.867  1.4363  1.4004 -1.8677
   61CHL1  H27B 6993   4.101   5.996   9.011 -1.1930 -1.6568  0.1564
   61CHL1  H27C 6994   4.183   5.987   8.850  0.5050  1.3029  0.9158
   62CHL1    C3 6995   1.930   2.147  10.154  0.0761  0.4019 -0.0041
   62CHL1    H3 6996   1.963   2.243  10.107  2.1421 -0.2522 -0.0094
   62CHL1    O3 6997   1.921   2.148  10.297  0.5778  0.0484 -0.1970
   62CHL1   H3' 6998   1.872   2.067  10.315  3.6888 -1.8388  0.3470
   62CHL1    C4 6999   1.791   2.102  10.092 -0.0886  0.4195  0.3857
   62CHL1   H4A 7000   1.743   2.008  10.125  0.6240 -0.1995 -0.3000
   62CHL1   H4B 7001   1.730   2.183  10.138 -0.2705  0.5125 -0.0183
   62CHL1    C5 7002   1.798   2.101   9.943  0.7921  0.2021 -0.5895
   62CHL1    C6 7003   1.707   2.177   9.882  0.8791  0.5796  0.3279
   62CHL1    H6 7004   1.634   2.230   9.944  0.6231  0.2075  0.3481
   62CHL1    C7 7005   1.691   2.178   9.734  0.1489 -0.2665 -0.5999
   62CHL1   H7A 7006   1.583   2.164   9.712  0.2827 -2.7051  0.0171
   62CHL1   H7B 7007   1.727   2.280   9.707 -0.8887  0.4626  0.6763
   62CHL1    C8 7008   1.776   2.062   9.659  0.1269 -0.1918 -0.3454
   62CHL1    H8 7009   1.722   1.965   9.654  1.5181 -0.9933 -0.6627
   62CHL1   C14 7010   1.802   2.096   9.512  0.8131 -0.0315  0.0890
   62CHL1   H14 7011   1.866   2.186   9.524  0.2396  0.2117  1.4971
   62CHL1   C15 7012   1.681   2.137   9.430  0.4677 -0.0093 -0.4416
   62CHL1  H15A 7013   1.597   2.065   9.436  1.7729 -2.0388 -3.5047
   62CHL1  H15B 7014   1.653   2.244   9.442  1.5347  0.0200  2.5844
   62CHL1   C16 7015   1.739   2.129   9.286  0.1276 -0.3722 -0.6156
   62CHL1  H16A 7016   1.667   2.083   9.215 -1.0595  0.2976  0.1312
   62CHL1  H16B 7017   1.758   2.230   9.244  2.0988 -1.6605 -3.1076
   62CHL1   C17 7018   1.880   2.063   9.296  0.7639  0.0546  0.3242
   62CHL1   H17 7019   1.937   2.156   9.317 -0.8041  1.2994 -0.6737
   62CHL1   C13 7020   1.886   1.993   9.433 -0.4932 -0.4871 -0.1520
   62CHL1   C18 7021   1.818   1.858   9.426 -0.0313 -0.1900 -0.1056
   62CHL1  H18A 7022   1.809   1.815   9.528  0.4466  0.6029  0.2815
   62CHL1  H18B 7023   1.725   1.857   9.364  0.6305 -0.3698 -1.1227
   62CHL1  H18C 7024   1.890   1.788   9.379 -0.9469 -2.0224  1.1096
   62CHL1   C12 7025   2.026   1.982   9.503  0.2199  0.3105  0.6665
   62CHL1  H12A 7026   2.092   1.905   9.458  1.1791  1.6923 -0.3408
   62CHL1  H12B 7027   2.077   2.079   9.484  1.1118  0.1154  1.9473
   62CHL1   C11 7028   2.024   1.948   9.652 -0.4326 -0.5531 -0.0179
   62CHL1  H11A 7029   1.999   1.841   9.668  0.8293 -0.7766  0.5829
   62CHL1  H11B 7030   2.126   1.962   9.693 -1.2759  1.3462  1.5641
   62CHL1    C9 7031   1.919   2.037   9.725 -0.1128 -0.1482  0.4779
   62CHL1    H9 7032   1.959   2.139   9.713 -1.4226  0.3501  0.2026
   62CHL1   C10 7033   1.904   2.018   9.879  0.0911 -0.5639  0.3718
   62CHL1   C19 7034   1.877   1.868   9.904 -0.1924 -0.3638 -0.7571
   62CHL1  H19A 7035   1.966   1.806   9.881 -0.0484 -0.4162 -0.0761
   62CHL1  H19B 7036   1.847   1.852  10.010 -3.3065  2.0284 -1.1350
   62CHL1  H19C 7037   1.790   1.833   9.845 -1.0319  0.5374 -0.0902
   62CHL1    C1 7038   2.039   2.058   9.945  0.2106  0.1211  0.2980
   62CHL1   H1A 7039   2.109   1.983   9.904 -0.2090  1.2264 -2.7566
   62CHL1   H1B 7040   2.073   2.158   9.908 -1.1832  0.6274  0.3222
   62CHL1    C2 7041   2.039   2.051  10.099  0.2894 -0.1507  0.0739
   62CHL1   H2A 7042   2.141   2.074  10.137  1.6325 -0.3854 -3.1117
   62CHL1   H2B 7043   2.020   1.945  10.126  2.8425 -0.6530  0.1893
   62CHL1   C20 7044   1.916   1.989   9.169  0.2090 -0.8339 -0.2671
   62CHL1   H20 7045   1.847   1.904   9.150 -1.7188  0.5660  0.1214
   62CHL1   C21 7046   2.060   1.943   9.180  0.1057 -0.3638 -0.1990
   62CHL1  H21A 7047   2.057   1.869   9.263 -2.0598  1.1554  1.2146
   62CHL1  H21B 7048   2.125   2.028   9.211  0.8211 -1.3649  1.1227
   62CHL1  H21C 7049   2.091   1.897   9.084  2.9598 -0.3877  0.6448
   62CHL1   C22 7050   1.898   2.077   9.040  0.3469  0.0309  0.2947
   62CHL1  H22A 7051   1.803   2.134   9.045  0.1171 -0.2217 -0.9845
   62CHL1  H22B 7052   1.978   2.154   9.051  0.1208  0.5195 -1.3027
   62CHL1   C23 7053   1.920   2.002   8.913 -0.2469 -0.2822  0.0912
   62CHL1  H23A 7054   2.025   1.968   8.901  0.2469  0.8327  1.0816
   62CHL1  H23B 7055   1.857   1.911   8.921  0.4966 -1.1666 -2.9914
   62CHL1   C24 7056   1.884   2.072   8.780 -0.4260 -0.2648  0.2894
   62CHL1  H24A 7057   1.784   2.116   8.801 -1.0593 -0.0500 -2.6532
   62CHL1  H24B 7058   1.953   2.156   8.757  0.6918 -0.7043  1.8985
   62CHL1   C25 7059   1.878   1.974   8.652 -0.1338  0.3846 -0.1011
   62CHL1   H25 7060   1.805   1.894   8.680  0.6575 -0.5876 -0.7333
   62CHL1   C26 7061   1.829   2.053   8.531 -0.9432  0.6635 -0.5419
   62CHL1  H26A 7062   1.839   1.990   8.440  0.2371 -0.5456  0.3978
   62CHL1  H26B 7063   1.722   2.081   8.541 -0.4982  2.2175  0.2991
   62CHL1  H26C 7064   1.888   2.146   8.516  0.9472 -0.3824  0.0905
   62CHL1   C27 7065   2.009   1.904   8.619  0.1905 -0.0768 -0.6522
   62CHL1  H27A 7066   2.084   1.946   8.689 -1.5950 -0.6782  1.7394
   62CHL1  H27B 7067   2.010   1.793   8.612 -0.7540 -0.2986  1.7019
   62CHL1  H27C 7068   2.054   1.944   8.526  1.2701  3.0422  1.0472
   63CHL1    C3 7069   3.428   3.258  10.291  0.0009 -0.4221 -0.2965
   63CHL1    H3 7070   3.417   3.149  10.277  1.7858 -0.7867  0.8149
   63CHL1    O3 7071   3.465   3.291  10.427  0.5000 -0.3525  0.5353
   63CHL1   H3' 7072   3.557   3.264  10.428  0.3184 -1.1611 -0.9002
   63CHL1    C4 7073   3.535   3.311  10.194  0.2286 -0.0805  0.2303
   63CHL1   H4A 7074   3.542   3.419  10.220  0.8844  0.6966 -2.7623
   63CHL1   H4B 7075   3.636   3.266  10.205 -1.1790 -3.5573  0.4267
   63CHL1    C5 7076   3.499   3.311  10.052  0.3132 -0.0839 -0.3422
   63CHL1    C6 7077   3.583   3.262   9.955  0.0631 -0.3027 -0.4084
   63CHL1    H6 7078   3.672   3.202   9.979 -1.2558 -1.5822  1.5232
   63CHL1    C7 7079   3.550   3.258   9.810  0.1361 -0.4282 -0.0630
   63CHL1   H7A 7080   3.640   3.273   9.746  0.4543  1.9974  0.8689
   63CHL1   H7B 7081   3.518   3.153   9.793  0.0449 -0.6259  1.2284
   63CHL1    C8 7082   3.448   3.357   9.767 -0.0697  0.2845  0.3691
   63CHL1    H8 7083   3.502   3.454   9.756  0.5091 -0.0659  0.0764
   63CHL1   C14 7084   3.400   3.312   9.627  0.0908  0.0222  0.2235
   63CHL1   H14 7085   3.362   3.208   9.639 -0.5301 -0.1177 -2.3187
   63CHL1   C15 7086   3.505   3.317   9.517  0.2983  0.6462  0.1679
   63CHL1  H15A 7087   3.549   3.419   9.512 -0.8941  1.1488 -0.6804
   63CHL1  H15B 7088   3.577   3.232   9.515 -1.3447 -0.7869 -1.1625
   63CHL1   C16 7089   3.412   3.306   9.391 -0.6031 -0.2957  0.3931
   63CHL1  H16A 7090   3.447   3.375   9.311  1.4072 -0.5374  1.0185
   63CHL1  H16B 7091   3.418   3.202   9.349  0.1910  0.4816 -1.5714
   63CHL1   C17 7092   3.261   3.329   9.441  0.0804 -0.6301  0.5551
   63CHL1   H17 7093   3.221   3.225   9.442  0.3812 -0.7662 -0.4191
   63CHL1   C13 7094   3.283   3.384   9.583 -0.1196 -0.3088  0.3448
   63CHL1   C18 7095   3.314   3.540   9.562  0.6754 -0.2444 -0.0109
   63CHL1  H18A 7096   3.390   3.587   9.627  0.6274  0.4973 -0.4809
   63CHL1  H18B 7097   3.357   3.564   9.463  0.7064 -0.1475  0.0270
   63CHL1  H18C 7098   3.218   3.592   9.582  0.2144 -1.9163  2.6958
   63CHL1   C12 7099   3.171   3.373   9.688  0.3210  0.3848  0.1608
   63CHL1  H12A 7100   3.075   3.418   9.653 -0.6346 -2.4408 -1.1252
   63CHL1  H12B 7101   3.148   3.265   9.692 -2.2731  0.8485 -0.5399
   63CHL1   C11 7102   3.214   3.427   9.822  0.3574 -0.2996  0.0393
   63CHL1  H11A 7103   3.231   3.536   9.816  1.2496 -0.4506 -0.2735
   63CHL1  H11B 7104   3.133   3.417   9.898  0.9684  0.1189  0.7590
   63CHL1    C9 7105   3.331   3.357   9.871  0.2404  0.9382  0.6676
   63CHL1    H9 7106   3.304   3.250   9.859 -0.2736  1.0702  0.6364
   63CHL1   C10 7107   3.369   3.380  10.020  0.4867 -0.2843  0.1748
   63CHL1   C19 7108   3.380   3.539  10.026 -0.3208 -0.2682 -0.5892
   63CHL1  H19A 7109   3.282   3.591  10.029 -1.6123 -2.4849  3.3351
   63CHL1  H19B 7110   3.432   3.571  10.119  0.5864 -0.2593 -1.0818
   63CHL1  H19C 7111   3.446   3.563   9.939  0.1593  1.3849  0.2008
   63CHL1    C1 7112   3.259   3.321  10.119 -0.3718 -0.5126  0.1995
   63CHL1   H1A 7113   3.168   3.383  10.108  0.0957  0.2049  0.3129
   63CHL1   H1B 7114   3.257   3.218  10.078  0.6622 -0.6477  0.4442
   63CHL1    C2 7115   3.288   3.316  10.268  0.3384  0.2096  0.6617
   63CHL1   H2A 7116   3.215   3.262  10.332 -0.3163  0.7589  0.3936
   63CHL1   H2B 7117   3.300   3.418  10.309  2.6653 -0.5980  2.1376
   63CHL1   C20 7118   3.186   3.414   9.332  0.2593 -0.8385 -0.5776
   63CHL1   H20 7119   3.235   3.511   9.310 -0.8760 -0.7808 -3.1565
   63CHL1   C21 7120   3.040   3.444   9.388  0.0650 -0.5486  0.1489
   63CHL1  H21A 7121   3.056   3.506   9.479  0.0381  0.1756 -0.3332
   63CHL1  H21B 7122   2.981   3.355   9.420 -0.9725 -0.3563 -1.1406
   63CHL1  H21C 7123   2.986   3.506   9.313 -1.0208  0.9174  2.0631
   63CHL1   C22 7124   3.188   3.343   9.194  0.4063 -0.5685  0.4884
   63CHL1  H22A 7125   3.292   3.310   9.172 -0.6490 -2.1002 -2.6895
   63CHL1  H22B 7126   3.121   3.255   9.188  0.9589 -0.9575 -0.0429
   63CHL1   C23 7127   3.153   3.419   9.063 -0.3843  0.5086  0.1512
   63CHL1  H23A 7128   3.049   3.459   9.058  0.8363  3.8711 -1.5534
   63CHL1  H23B 7129   3.222   3.504   9.043  0.8369 -0.3659  0.5252
   63CHL1   C24 7130   3.167   3.326   8.935 -0.1987 -0.0720  0.0081
   63CHL1  H24A 7131   3.265   3.275   8.924  0.7929  1.4071  1.4568
   63CHL1  H24B 7132   3.095   3.243   8.946 -2.0999  1.1974 -2.0813
   63CHL1   C25 7133   3.148   3.399   8.799  0.6696 -0.6330  0.6162
   63CHL1   H25 7134   3.237   3.461   8.777 -0.4890  0.7224 -0.4529
   63CHL1   C26 7135   3.137   3.309   8.675 -0.6743  0.1089  0.7747
   63CHL1  H26A 7136   3.214   3.231   8.660  0.3731  1.1563  0.5614
   63CHL1  H26B 7137   3.042   3.252   8.680  0.1984 -1.4826 -0.0198
   63CHL1  H26C 7138   3.120   3.368   8.583 -0.8756  1.2132  1.5034
   63CHL1   C27 7139   3.019   3.484   8.805 -0.0134  1.1636  0.1064
   63CHL1  H27A 7140   2.973   3.516   8.709 -1.9560 -0.0422  0.5723
   63CHL1  H27B 7141   2.934   3.428   8.851  0.9124 -1.1609 -0.8592
   63CHL1  H27C 7142   3.040   3.574   8.868  0.1792 -0.4870  2.5326
   64CHL1    C3 7143   2.746   3.910  10.015 -0.2995 -0.3119  0.4388
   64CHL1    H3 7144   2.728   3.801  10.003 -1.3457 -0.0518 -0.5131
   64CHL1    O3 7145   2.777   3.931  10.153 -0.1878  0.1127  0.3946
   64CHL1   H3' 7146   2.694   3.912  10.198 -0.9697  1.6504 -0.3315
   64CHL1    C4 7147   2.873   3.949   9.936 -0.3659 -0.0488  0.1702
   64CHL1   H4A 7148   2.900   4.054   9.956 -1.2388  0.6443 -1.9634
   64CHL1   H4B 7149   2.964   3.896   9.970 -1.6881 -1.2658  2.0188
   64CHL1    C5 7150   2.843   3.927   9.790  0.4244  0.1606 -0.3070
   64CHL1    C6 7151   2.910   3.828   9.722  0.9169  0.3713  0.8723
   64CHL1    H6 7152   2.983   3.761   9.770 -0.0001 -0.5598  1.0235
   64CHL1    C7 7153   2.896   3.809   9.575  0.3969 -0.0289 -0.5231
   64CHL1   H7A 7154   2.998   3.794   9.535 -0.8782 -2.7480 -3.1553
   64CHL1   H7B 7155   2.832   3.729   9.533  0.4594  0.5955 -1.8662
   64CHL1    C8 7156   2.824   3.936   9.516 -0.2807 -0.2072 -0.1613
   64CHL1    H8 7157   2.886   4.027   9.523 -1.4086  0.6765 -1.1635
   64CHL1   C14 7158   2.795   3.906   9.369 -0.9282 -0.2019  0.1139
   64CHL1   H14 7159   2.718   3.827   9.366 -1.3570  0.2265 -0.5406
   64CHL1   C15 7160   2.916   3.861   9.288 -0.0128  0.3897  0.2878
   64CHL1  H15A 7161   3.012   3.914   9.303 -0.0920  0.8232 -0.6275
   64CHL1  H15B 7162   2.935   3.752   9.291 -1.5970  0.0703 -0.2101
   64CHL1   C16 7163   2.872   3.891   9.137  0.7807  0.1829  0.3013
   64CHL1  H16A 7164   2.947   3.957   9.088  0.9249  0.3744  0.7693
   64CHL1  H16B 7165   2.861   3.792   9.088  3.7746  0.1885 -0.5629
   64CHL1   C17 7166   2.728   3.958   9.147 -0.3519 -0.0232 -0.1023
   64CHL1   H17 7167   2.649   3.880   9.140 -1.3804  1.0070 -0.1887
   64CHL1   C13 7168   2.726   4.019   9.288  1.0116  0.5430  0.3625
   64CHL1   C18 7169   2.815   4.143   9.288 -1.3043 -0.2030 -0.1235
   64CHL1  H18A 7170   2.757   4.234   9.260 -1.1326  0.0225  0.2477
   64CHL1  H18B 7171   2.856   4.160   9.390 -0.6531  0.6373 -0.5103
   64CHL1  H18C 7172   2.900   4.142   9.216 -0.9650  3.3563  0.0165
   64CHL1   C12 7173   2.589   4.047   9.363 -0.4386  0.0981  0.0580
   64CHL1  H12A 7174   2.530   4.133   9.326  0.5452  0.8493  0.2061
   64CHL1  H12B 7175   2.538   3.949   9.348 -2.0470  0.7128  1.1883
   64CHL1   C11 7176   2.613   4.081   9.513 -0.4464 -0.5035  0.8415
   64CHL1  H11A 7177   2.677   4.172   9.520 -0.4059 -0.4182 -0.4338
   64CHL1  H11B 7178   2.511   4.100   9.554 -0.2819 -2.6784  2.4539
   64CHL1    C9 7179   2.697   3.969   9.585 -0.5446 -0.8748  0.3143
   64CHL1    H9 7180   2.639   3.874   9.590  1.0631 -1.9080  0.1706
   64CHL1   C10 7181   2.726   4.012   9.729 -0.4546  0.1610 -0.6098
   64CHL1   C19 7182   2.742   4.166   9.743  0.0183  1.0466  0.3110
   64CHL1  H19A 7183   2.650   4.224   9.720 -1.3091 -0.8055  0.7289
   64CHL1  H19B 7184   2.787   4.206   9.836  3.9777  1.4408 -1.5646
   64CHL1  H19C 7185   2.822   4.202   9.675  1.3139 -1.3480  0.4601
   64CHL1    C1 7186   2.607   3.959   9.811 -0.4249  0.1956 -0.0529
   64CHL1   H1A 7187   2.522   4.010   9.762 -1.3731 -0.7126  0.5995
   64CHL1   H1B 7188   2.588   3.851   9.791 -3.1870  0.3533  1.2181
   64CHL1    C2 7189   2.623   3.981   9.965  0.1718 -0.6739 -0.5877
   64CHL1   H2A 7190   2.536   3.950  10.028  0.6009 -0.8270 -0.0655
   64CHL1   H2B 7191   2.643   4.087   9.990 -0.2603 -0.3188 -1.6898
   64CHL1   C20 7192   2.698   4.059   9.034 -0.2490  0.0566 -0.4493
   64CHL1   H20 7193   2.774   4.139   9.028  0.0330 -0.1759 -0.0049
   64CHL1   C21 7194   2.564   4.136   9.056  0.9759  0.3707 -0.1260
   64CHL1  H21A 7195   2.550   4.200   8.966 -0.3830 -3.3160 -2.8030
   64CHL1  H21B 7196   2.576   4.201   9.145 -0.8694 -0.5030  0.8237
   64CHL1  H21C 7197   2.484   4.059   9.065  1.6017 -0.3110 -0.3109
   64CHL1   C22 7198   2.706   4.000   8.891 -0.1926  0.3968 -0.1189
   64CHL1  H22A 7199   2.711   4.073   8.808  0.3363  2.8976  1.9911
   64CHL1  H22B 7200   2.801   3.941   8.890 -1.2294 -1.3340 -0.0774
   64CHL1   C23 7201   2.599   3.886   8.856 -0.9310  0.3879 -0.0470
   64CHL1  H23A 7202   2.583   3.820   8.944 -0.9154  0.5834  0.1031
   64CHL1  H23B 7203   2.501   3.929   8.829 -0.9268  0.4405  0.0209
   64CHL1   C24 7204   2.653   3.802   8.734 -0.2392 -0.3249  0.5444
   64CHL1  H24A 7205   2.663   3.860   8.641  1.0551 -0.6098  0.4900
   64CHL1  H24B 7206   2.749   3.762   8.773  1.0273 -0.0032 -2.0643
   64CHL1   C25 7207   2.551   3.687   8.715 -0.4800 -0.0651  0.3574
   64CHL1   H25 7208   2.507   3.663   8.814  0.7371  1.4627  1.3181
   64CHL1   C26 7209   2.437   3.737   8.627  0.0407 -0.1676 -0.4517
   64CHL1  H26A 7210   2.393   3.833   8.660  0.9615  0.3832 -0.8007
   64CHL1  H26B 7211   2.476   3.761   8.526 -0.0740  0.1358 -0.4240
   64CHL1  H26C 7212   2.353   3.664   8.626 -0.2359  0.1592 -0.9645
   64CHL1   C27 7213   2.613   3.559   8.658  0.1789  0.3561  0.3529
   64CHL1  H27A 7214   2.638   3.571   8.550  0.3791 -0.9484  0.2423
   64CHL1  H27B 7215   2.702   3.537   8.720 -0.1866  0.3687  0.8943
   64CHL1  H27C 7216   2.540   3.476   8.668  0.5936 -0.0172  0.2960
   65CHL1    C3 7217   5.958   6.691  10.141 -0.2517 -0.5655 -0.4271
   65CHL1    H3 7218   5.878   6.614  10.135  0.3511 -1.4416  1.6784
   65CHL1    O3 7219   6.011   6.688  10.276 -0.6169 -0.3234  0.4307
   65CHL1   H3' 7220   6.051   6.775  10.287 -0.5616 -0.5989  2.6716
   65CHL1    C4 7221   6.068   6.661  10.042 -0.1015 -0.1459 -0.7074
   65CHL1   H4A 7222   6.164   6.708  10.075 -0.6746  1.1535 -0.8189
   65CHL1   H4B 7223   6.089   6.553  10.056 -1.2200 -0.2449  0.4086
   65CHL1    C5 7224   6.022   6.705   9.894 -0.1250 -0.6810 -0.0548
   65CHL1    C6 7225   6.022   6.613   9.799 -0.3265  0.7844 -0.3622
   65CHL1    H6 7226   6.057   6.510   9.812  0.3086  1.0833  0.3499
   65CHL1    C7 7227   5.990   6.650   9.656 -0.1866 -0.0992  0.3348
   65CHL1   H7A 7228   6.059   6.593   9.591  0.2839 -0.0721  0.8056
   65CHL1   H7B 7229   5.888   6.619   9.625 -0.0527  1.6544 -2.1270
   65CHL1    C8 7230   5.996   6.792   9.612  0.7118 -0.3329 -0.1092
   65CHL1    H8 7231   6.101   6.827   9.604 -0.0994  2.4395  0.0715
   65CHL1   C14 7232   5.928   6.835   9.480  0.1139 -0.1542 -0.9348
   65CHL1   H14 7233   5.824   6.803   9.500 -0.0825  1.0969  0.1744
   65CHL1   C15 7234   5.974   6.757   9.354  0.2711  0.4244 -0.2466
   65CHL1  H15A 7235   6.084   6.751   9.365  0.2387  1.0793  0.5402
   65CHL1  H15B 7236   5.926   6.657   9.352 -0.3763  0.7238  0.0177
   65CHL1   C16 7237   5.930   6.854   9.240 -1.0807  0.0651  0.2744
   65CHL1  H16A 7238   6.025   6.886   9.192 -2.2462  2.4150 -0.6643
   65CHL1  H16B 7239   5.860   6.810   9.166  0.3002  1.5104 -2.0265
   65CHL1   C17 7240   5.862   6.971   9.305  0.4991  0.2064  0.2259
   65CHL1   H17 7241   5.760   6.933   9.330  0.5045 -0.2447 -0.4230
   65CHL1   C13 7242   5.933   6.979   9.438  0.2789 -0.0899  0.5023
   65CHL1   C18 7243   6.082   7.028   9.418 -0.0327 -0.1434 -0.3505
   65CHL1  H18A 7244   6.134   7.044   9.515 -1.8990  0.8240  0.5499
   65CHL1  H18B 7245   6.140   6.956   9.357 -0.0012 -0.1445 -0.3194
   65CHL1  H18C 7246   6.077   7.120   9.356  0.3895  0.2662  0.2044
   65CHL1   C12 7247   5.866   7.060   9.556 -0.1722 -0.1801  0.0466
   65CHL1  H12A 7248   5.889   7.168   9.544  3.2634 -0.7488  0.4108
   65CHL1  H12B 7249   5.757   7.041   9.567 -0.7500  2.6125 -0.0773
   65CHL1   C11 7250   5.923   7.024   9.688  0.1613 -0.0052  0.2969
   65CHL1  H11A 7251   6.029   7.054   9.699  0.1968  0.4267 -1.0850
   65CHL1  H11B 7252   5.872   7.079   9.770  1.4983 -0.7534  1.6684
   65CHL1    C9 7253   5.922   6.871   9.720  0.1330  0.2440 -0.7247
   65CHL1    H9 7254   5.817   6.834   9.713  0.1860 -0.5600  1.7080
   65CHL1   C10 7255   5.969   6.848   9.866 -0.6047  0.3852  0.1351
   65CHL1   C19 7256   6.086   6.942   9.911  0.3968 -0.1957  0.0424
   65CHL1  H19A 7257   6.181   6.930   9.853  2.1978  0.4988  2.6928
   65CHL1  H19B 7258   6.055   7.048   9.902  0.0761 -0.3357 -0.6424
   65CHL1  H19C 7259   6.121   6.916  10.013  1.6838 -1.6442 -0.7122
   65CHL1    C1 7260   5.851   6.868   9.975  0.1366 -0.8616  0.1150
   65CHL1   H1A 7261   5.807   6.969   9.988 -1.4047 -1.0930 -2.5623
   65CHL1   H1B 7262   5.764   6.809   9.937 -0.0895 -0.4792  0.0372
   65CHL1    C2 7263   5.890   6.833  10.117  0.1661  0.3693  0.2259
   65CHL1   H2A 7264   5.799   6.842  10.179 -1.5272 -2.2962 -1.6833
   65CHL1   H2B 7265   5.957   6.906  10.168  1.0306 -1.7402  2.2814
   65CHL1   C20 7266   5.841   7.094   9.219 -0.2775  0.6424  0.4158
   65CHL1   H20 7267   5.941   7.128   9.182 -0.2208  1.7194  1.4834
   65CHL1   C21 7268   5.785   7.208   9.303  0.1017 -0.3992 -0.0263
   65CHL1  H21A 7269   5.746   7.295   9.245  1.4668  1.4824  1.6997
   65CHL1  H21B 7270   5.872   7.258   9.352  0.7163 -0.9937 -0.4902
   65CHL1  H21C 7271   5.704   7.184   9.374 -1.0065  0.3840 -0.9934
   65CHL1   C22 7272   5.742   7.071   9.106 -0.4056  0.0988 -0.1063
   65CHL1  H22A 7273   5.765   6.974   9.057 -1.8630 -1.3060  1.8241
   65CHL1  H22B 7274   5.644   7.053   9.155 -0.3286 -0.1943 -0.0598
   65CHL1   C23 7275   5.733   7.181   8.995  0.0335 -0.3863 -0.1887
   65CHL1  H23A 7276   5.690   7.279   9.025 -2.7697 -1.6687  0.3564
   65CHL1  H23B 7277   5.835   7.185   8.951  0.2732 -1.4477  0.2421
   65CHL1   C24 7278   5.646   7.138   8.875 -0.7083 -0.6547 -0.5720
   65CHL1  H24A 7279   5.696   7.052   8.824 -0.4453  0.5441 -2.4237
   65CHL1  H24B 7280   5.544   7.113   8.911  0.0236  0.1710  2.3216
   65CHL1   C25 7281   5.622   7.247   8.764 -0.6486  0.3300  0.2791
   65CHL1   H25 7282   5.553   7.207   8.687 -1.4886  2.0857  0.0748
   65CHL1   C26 7283   5.535   7.358   8.818  0.3859  0.2031 -0.5685
   65CHL1  H26A 7284   5.590   7.404   8.903  0.6055 -1.5614  0.3047
   65CHL1  H26B 7285   5.532   7.438   8.741  1.3612 -1.1051 -2.0295
   65CHL1  H26C 7286   5.434   7.328   8.853 -0.2871  3.1730  0.2775
   65CHL1   C27 7287   5.757   7.294   8.696  0.3443  0.1892  0.4661
   65CHL1  H27A 7288   5.799   7.379   8.754  0.7331 -0.3060  0.9197
   65CHL1  H27B 7289   5.833   7.214   8.697 -1.6411 -1.8057  2.4110
   65CHL1  H27C 7290   5.716   7.328   8.598 -2.6010 -0.1480  1.4650
   66CHL1    C3 7291   3.715   4.462  10.484 -0.2590 -0.9015  0.1753
   66CHL1    H3 7292   3.688   4.568  10.465  2.1974 -0.1814  0.4233
   66CHL1    O3 7293   3.706   4.439  10.628 -0.7104 -0.0564  0.5944
   66CHL1   H3' 7294   3.788   4.479  10.658 -0.6487 -0.2125  0.6359
   66CHL1    C4 7295   3.624   4.366  10.415 -0.6980 -0.0430  0.6160
   66CHL1   H4A 7296   3.668   4.266  10.440 -2.1539 -0.8398  0.0999
   66CHL1   H4B 7297   3.518   4.368  10.448 -1.3932 -1.0575 -1.4179
   66CHL1    C5 7298   3.639   4.378  10.260  0.3727 -0.4770 -0.1226
   66CHL1    C6 7299   3.531   4.414  10.188  0.1813 -0.6549  0.2146
   66CHL1    H6 7300   3.436   4.426  10.242  0.1418  0.7000 -0.1288
   66CHL1    C7 7301   3.533   4.424  10.042  0.3288  0.3889  0.7130
   66CHL1   H7A 7302   3.441   4.379   9.999  0.8965 -2.0042  1.8475
   66CHL1   H7B 7303   3.537   4.531  10.012  0.7061  0.6966  1.8024
   66CHL1    C8 7304   3.660   4.363   9.971 -0.5144  0.1012  0.2297
   66CHL1    H8 7305   3.654   4.254   9.991 -0.5902 -0.0528 -0.5724
   66CHL1   C14 7306   3.674   4.400   9.825  0.0570  0.0461 -0.6170
   66CHL1   H14 7307   3.691   4.510   9.827  0.5776 -0.0351 -0.3589
   66CHL1   C15 7308   3.549   4.383   9.738 -0.1989 -0.2575 -0.0607
   66CHL1  H15A 7309   3.498   4.287   9.763 -1.6225  0.2211 -0.9885
   66CHL1  H15B 7310   3.474   4.464   9.752  1.6069  1.5681 -0.6094
   66CHL1   C16 7311   3.604   4.368   9.595 -0.0521  0.4708  0.2335
   66CHL1  H16A 7312   3.582   4.272   9.544  0.3510  0.4450  0.0996
   66CHL1  H16B 7313   3.562   4.448   9.531 -0.9686 -0.4739 -0.3755
   66CHL1   C17 7314   3.762   4.376   9.608 -0.7504 -0.6363  0.3513
   66CHL1   H17 7315   3.790   4.483   9.602  1.6613 -1.2662 -1.0448
   66CHL1   C13 7316   3.792   4.330   9.754 -0.7856  0.3663  0.5957
   66CHL1   C18 7317   3.793   4.173   9.764  0.0048 -0.1288 -0.0614
   66CHL1  H18A 7318   3.695   4.131   9.732  0.2579  1.3196 -3.0734
   66CHL1  H18B 7319   3.878   4.131   9.706 -0.3406  1.4229 -1.7683
   66CHL1  H18C 7320   3.814   4.141   9.868 -0.7655 -1.0254 -0.1648
   66CHL1   C12 7321   3.912   4.393   9.817 -0.0823 -0.1085  0.6583
   66CHL1  H12A 7322   4.006   4.355   9.771 -0.5600 -1.5397  0.8021
   66CHL1  H12B 7323   3.909   4.501   9.789  0.7415 -0.2418  0.0098
   66CHL1   C11 7324   3.922   4.383   9.969 -0.1892  0.3449  0.0654
   66CHL1  H11A 7325   3.956   4.278   9.979  0.0485  0.3517 -0.6498
   66CHL1  H11B 7326   3.997   4.447  10.018  0.3365 -0.0906 -0.1613
   66CHL1    C9 7327   3.784   4.412  10.042 -0.4490  0.2515 -0.9951
   66CHL1    H9 7328   3.784   4.523  10.034  1.3842  0.3306 -0.4568
   66CHL1   C10 7329   3.782   4.374  10.196  0.2827 -0.4956 -0.1392
   66CHL1   C19 7330   3.848   4.236  10.211 -1.0573  0.0074  0.1407
   66CHL1  H19A 7331   3.845   4.205  10.317 -2.1533  2.7953  1.0032
   66CHL1  H19B 7332   3.825   4.147  10.148 -0.2989 -0.4086  0.4359
   66CHL1  H19C 7333   3.957   4.251  10.199 -1.0110 -0.4337 -0.0264
   66CHL1    C1 7334   3.863   4.476  10.288  0.0675 -0.3212 -0.3609
   66CHL1   H1A 7335   3.965   4.453  10.251 -0.0497 -0.8382 -0.3666
   66CHL1   H1B 7336   3.843   4.583  10.267  0.6130 -0.3271 -0.9262
   66CHL1    C2 7337   3.860   4.448  10.440  0.1179 -0.0563 -0.7627
   66CHL1   H2A 7338   3.927   4.520  10.489  3.7043 -3.3468 -0.3358
   66CHL1   H2B 7339   3.899   4.349  10.472  1.7375  0.5645 -0.7504
   66CHL1   C20 7340   3.843   4.309   9.487  0.8169 -0.0994  0.0569
   66CHL1   H20 7341   3.832   4.200   9.505  3.3605 -0.4419 -0.0532
   66CHL1   C21 7342   3.998   4.338   9.488  0.6772  0.3122  0.3044
   66CHL1  H21A 7343   4.052   4.296   9.576  1.1578  1.5731  0.6303
   66CHL1  H21B 7344   4.019   4.447   9.487  0.4795  0.4005  2.2982
   66CHL1  H21C 7345   4.035   4.288   9.395 -1.7626  1.9899 -1.6932
   66CHL1   C22 7346   3.791   4.337   9.346  0.0661 -1.2009 -0.3518
   66CHL1  H22A 7347   3.681   4.342   9.339  0.0235 -2.2558 -0.6337
   66CHL1  H22B 7348   3.822   4.438   9.313 -1.7134  0.0744  1.6084
   66CHL1   C23 7349   3.821   4.230   9.237 -0.3288 -0.0223 -0.3479
   66CHL1  H23A 7350   3.927   4.198   9.242 -0.1809  0.6484  1.2156
   66CHL1  H23B 7351   3.749   4.150   9.264 -0.8095 -0.2062 -2.0691
   66CHL1   C24 7352   3.799   4.279   9.092  0.3049 -0.1885 -0.3804
   66CHL1  H24A 7353   3.695   4.317   9.084  0.0102 -1.0817 -0.9152
   66CHL1  H24B 7354   3.870   4.363   9.077 -1.3502  1.6565  1.5148
   66CHL1   C25 7355   3.815   4.177   8.986 -0.1485 -0.1779  0.4762
   66CHL1   H25 7356   3.829   4.234   8.892  0.0444 -0.9855  0.0065
   66CHL1   C26 7357   3.942   4.090   9.002 -0.2432  0.0138 -0.0891
   66CHL1  H26A 7358   3.966   4.035   8.908 -1.0439 -0.2925 -0.1169
   66CHL1  H26B 7359   4.028   4.154   9.032 -0.0403 -0.3648  0.1429
   66CHL1  H26C 7360   3.923   4.019   9.085  0.2304  0.6410  0.5686
   66CHL1   C27 7361   3.687   4.091   8.975 -0.0349 -0.0728  0.1977
   66CHL1  H27A 7362   3.600   4.156   8.953  1.6157  2.0768 -0.4516
   66CHL1  H27B 7363   3.695   4.017   8.893  2.4736 -0.6857  0.8828
   66CHL1  H27C 7364   3.662   4.047   9.074  1.1413  0.6638  0.8543
   67CHL1    C3 7365   2.703   5.600  10.335  0.0251  0.0524 -0.0852
   67CHL1    H3 7366   2.801   5.651  10.326  0.9199 -1.8777 -2.4421
   67CHL1    O3 7367   2.688   5.537  10.461 -0.3695 -0.2541  0.1108
   67CHL1   H3' 7368   2.617   5.586  10.503 -0.3947 -0.6031  0.4836
   67CHL1    C4 7369   2.578   5.694  10.301 -0.0497 -0.1974 -0.5372
   67CHL1   H4A 7370   2.484   5.637  10.321 -1.4362  1.8064 -0.9975
   67CHL1   H4B 7371   2.576   5.770  10.382 -1.1174 -1.6007  0.8116
   67CHL1    C5 7372   2.583   5.750  10.164 -0.3757 -0.1277 -0.6044
   67CHL1    C6 7373   2.587   5.879  10.138 -0.7753  0.3697 -0.4542
   67CHL1    H6 7374   2.581   5.957  10.216 -1.2202 -0.2485  0.1459
   67CHL1    C7 7375   2.578   5.930   9.997 -0.6102 -0.3259 -0.3640
   67CHL1   H7A 7376   2.503   6.010   9.981  1.4732  1.3331 -2.4907
   67CHL1   H7B 7377   2.673   5.981   9.971  0.2312 -0.7213  1.7758
   67CHL1    C8 7378   2.548   5.820   9.890 -0.2240  0.0391  0.4999
   67CHL1    H8 7379   2.437   5.817   9.901 -0.2941 -2.1290 -0.2880
   67CHL1   C14 7380   2.582   5.860   9.749 -0.1720  0.5265 -0.4000
   67CHL1   H14 7381   2.693   5.858   9.752 -0.1325  1.5954 -0.7853
   67CHL1   C15 7382   2.548   6.004   9.711  0.0234 -0.1697 -0.1964
   67CHL1  H15A 7383   2.448   6.045   9.739 -0.4553 -0.4195 -1.4822
   67CHL1  H15B 7384   2.624   6.073   9.754  0.4650  0.0313 -1.2661
   67CHL1   C16 7385   2.546   5.998   9.559 -0.7299 -1.0250 -0.1013
   67CHL1  H16A 7386   2.447   6.032   9.522 -0.1734  0.2044 -0.5057
   67CHL1  H16B 7387   2.614   6.077   9.520  0.3887 -2.3883 -1.0296
   67CHL1   C17 7388   2.575   5.850   9.517  0.5449  0.9804 -0.6163
   67CHL1   H17 7389   2.685   5.838   9.515  0.3339 -1.6770 -0.7055
   67CHL1   C13 7390   2.531   5.765   9.641 -0.2649 -0.5736  0.0555
   67CHL1   C18 7391   2.374   5.764   9.647  0.1099 -0.4075  0.7829
   67CHL1  H18A 7392   2.349   5.728   9.749  2.8688  0.7137  1.9607
   67CHL1  H18B 7393   2.324   5.862   9.634  0.5937  0.0699  2.3558
   67CHL1  H18C 7394   2.336   5.704   9.561 -2.2714  1.5972  0.3372
   67CHL1   C12 7395   2.594   5.624   9.664  0.2446  0.6961 -0.3296
   67CHL1  H12A 7396   2.559   5.553   9.586  3.0474  0.3270 -1.3513
   67CHL1  H12B 7397   2.704   5.625   9.650  0.3936 -2.0954 -0.0199
   67CHL1   C11 7398   2.560   5.577   9.811 -1.0249 -0.1789 -0.3519
   67CHL1  H11A 7399   2.454   5.544   9.813 -1.2624  0.5861  0.1124
   67CHL1  H11B 7400   2.625   5.489   9.828 -2.3218 -1.2087 -0.5540
   67CHL1    C9 7401   2.603   5.682   9.917  0.2914 -0.2243  0.3098
   67CHL1    H9 7402   2.713   5.691   9.912  0.1462  1.2244 -0.9043
   67CHL1   C10 7403   2.580   5.633  10.065  0.1460 -0.5784  0.5292
   67CHL1   C19 7404   2.444   5.564  10.071  0.0421 -0.5636 -0.2404
   67CHL1  H19A 7405   2.407   5.546  10.174  0.4756  1.4274  0.3105
   67CHL1  H19B 7406   2.368   5.628  10.021  0.7151  1.6536  1.4292
   67CHL1  H19C 7407   2.456   5.464  10.025  3.7457  0.3469 -1.5974
   67CHL1    C1 7408   2.695   5.531  10.088  0.6518 -0.3430  0.3525
   67CHL1   H1A 7409   2.669   5.444  10.024 -0.0541  2.0783 -2.9189
   67CHL1   H1B 7410   2.795   5.567  10.055  0.5371  0.8375  1.2183
   67CHL1    C2 7411   2.703   5.481  10.232  0.1977  0.3475 -0.5806
   67CHL1   H2A 7412   2.786   5.408  10.244  0.0619  0.1623 -0.7576
   67CHL1   H2B 7413   2.613   5.424  10.264  0.2072  0.5107 -0.2604
   67CHL1   C20 7414   2.518   5.814   9.371 -0.7828 -0.4526 -0.3103
   67CHL1   H20 7415   2.411   5.841   9.376 -0.2304  1.8882 -0.0243
   67CHL1   C21 7416   2.544   5.659   9.349 -0.1399  0.2931  0.1561
   67CHL1  H21A 7417   2.653   5.640   9.365 -0.3738 -0.3256  1.0533
   67CHL1  H21B 7418   2.523   5.624   9.246 -1.6594  1.0019  0.2020
   67CHL1  H21C 7419   2.480   5.586   9.401 -0.2155 -0.1768 -0.5746
   67CHL1   C22 7420   2.586   5.897   9.259  0.5387  0.5371 -0.3009
   67CHL1  H22A 7421   2.582   6.006   9.281 -0.6324  0.3652  0.3799
   67CHL1  H22B 7422   2.695   5.879   9.250  0.3146 -0.0587 -2.7249
   67CHL1   C23 7423   2.517   5.874   9.124 -0.4446 -0.8500  0.4878
   67CHL1  H23A 7424   2.540   5.770   9.093 -0.2294 -0.5798 -0.2818
   67CHL1  H23B 7425   2.410   5.903   9.128 -0.3570  0.3877 -2.8864
   67CHL1   C24 7426   2.580   5.972   9.015 -0.4010 -0.4536 -0.2090
   67CHL1  H24A 7427   2.579   6.078   9.049  0.2182 -0.4505 -0.1960
   67CHL1  H24B 7428   2.688   5.951   8.997 -0.8687 -1.4527 -2.1609
   67CHL1   C25 7429   2.517   5.955   8.870 -0.1626 -0.7876  0.1172
   67CHL1   H25 7430   2.503   5.845   8.856 -1.9200 -1.0069  2.7602
   67CHL1   C26 7431   2.375   6.023   8.857 -0.6206  0.8414 -0.4523
   67CHL1  H26A 7432   2.392   6.129   8.885 -2.7656  1.5221 -1.5344
   67CHL1  H26B 7433   2.358   6.019   8.747 -0.7604 -0.6770 -0.3994
   67CHL1  H26C 7434   2.301   5.980   8.927  0.9938 -1.3007  0.0684
   67CHL1   C27 7435   2.605   6.008   8.763  0.8739 -0.0684 -0.0880
   67CHL1  H27A 7436   2.625   6.117   8.773 -2.3417  0.5418  0.8540
   67CHL1  H27B 7437   2.702   5.952   8.759 -0.4893 -2.6962  0.9674
   67CHL1  H27C 7438   2.551   5.999   8.667 -0.1281 -1.5545  0.5753
   68CHL1    C3 7439   5.013   5.868  10.138  0.4746  0.1209 -0.3573
   68CHL1    H3 7440   5.064   5.967  10.145 -1.4588  1.2091 -0.6970
   68CHL1    O3 7441   4.990   5.823  10.273  0.2928  0.2648  0.3091
   68CHL1   H3' 7442   4.939   5.742  10.262  0.2831  0.5013 -1.7971
   68CHL1    C4 7443   4.884   5.880  10.071  0.8264  0.1532  0.2480
   68CHL1   H4A 7444   4.821   5.788  10.075  2.2231 -0.8050  1.2773
   68CHL1   H4B 7445   4.827   5.959  10.125  3.2802  2.3225 -0.1680
   68CHL1    C5 7446   4.895   5.919   9.927  0.4399 -0.7327  0.5127
   68CHL1    C6 7447   4.849   6.037   9.877  0.0563 -0.5690 -0.4421
   68CHL1    H6 7448   4.794   6.110   9.939 -2.6573 -1.2420 -1.9018
   68CHL1    C7 7449   4.869   6.071   9.732  0.1904  0.7103  0.6279
   68CHL1   H7A 7450   4.772   6.116   9.700  0.1201 -0.4105 -0.8391
   68CHL1   H7B 7451   4.945   6.153   9.735  0.4722  0.4427  0.8905
   68CHL1    C8 7452   4.900   5.954   9.637 -0.6968  0.2595  0.1162
   68CHL1    H8 7453   4.809   5.890   9.635 -1.3315  1.1019  0.8409
   68CHL1   C14 7454   4.930   5.999   9.493  0.9290 -0.3094  0.0186
   68CHL1   H14 7455   5.020   6.063   9.510  1.1133 -1.0177  1.8294
   68CHL1   C15 7456   4.828   6.099   9.425 -0.6668 -0.1062 -0.3213
   68CHL1  H15A 7457   4.725   6.065   9.450  0.3443 -2.5242  0.8477
   68CHL1  H15B 7458   4.856   6.203   9.454  0.4494 -0.6711  0.7037
   68CHL1   C16 7459   4.859   6.074   9.276 -0.2546 -0.2999  0.0278
   68CHL1  H16A 7460   4.761   6.040   9.234 -0.1716 -2.0070  1.1199
   68CHL1  H16B 7461   4.887   6.173   9.236  0.2601 -0.7106 -0.6566
   68CHL1   C17 7462   4.971   5.967   9.265 -0.0396  0.0225  0.1716
   68CHL1   H17 7463   5.070   6.017   9.265 -0.6550  1.4722 -2.7844
   68CHL1   C13 7464   4.964   5.887   9.393  0.4601  0.0464 -0.2222
   68CHL1   C18 7465   4.854   5.787   9.386  0.3517  0.6512 -0.2862
   68CHL1  H18A 7466   4.834   5.743   9.486  0.6864  0.9467 -0.0895
   68CHL1  H18B 7467   4.761   5.828   9.340  0.2988  0.8983  0.0315
   68CHL1  H18C 7468   4.887   5.700   9.327 -2.8513 -0.7545 -0.2280
   68CHL1   C12 7469   5.097   5.816   9.455 -0.0977 -0.6267 -0.1590
   68CHL1  H12A 7470   5.132   5.730   9.394  0.7396 -1.7468  1.7873
   68CHL1  H12B 7471   5.178   5.892   9.470  0.1502 -0.7320 -0.9051
   68CHL1   C11 7472   5.076   5.771   9.602  0.1998 -0.2841  0.5729
   68CHL1  H11A 7473   5.012   5.681   9.589  0.0292 -0.2961  1.4239
   68CHL1  H11B 7474   5.177   5.743   9.641  0.3763  0.0303  0.3459
   68CHL1    C9 7475   5.019   5.874   9.701 -0.0337 -0.2523  0.2772
   68CHL1    H9 7476   5.097   5.950   9.719 -2.0205  1.7446  0.8800
   68CHL1   C10 7477   4.980   5.822   9.838  0.2597  0.3019  0.0680
   68CHL1   C19 7478   4.904   5.685   9.822  0.2285  0.0690  0.0062
   68CHL1  H19A 7479   4.839   5.705   9.734  0.0783  1.9856  0.5029
   68CHL1  H19B 7480   4.974   5.604   9.791  0.2384  0.5502 -1.2877
   68CHL1  H19C 7481   4.855   5.657   9.918 -2.3200 -0.3494 -1.3436
   68CHL1    C1 7482   5.111   5.797   9.918 -0.6052  0.2984  0.1854
   68CHL1   H1A 7483   5.170   5.717   9.868 -0.0896  0.1497  0.9989
   68CHL1   H1B 7484   5.170   5.891   9.910  1.2308 -0.7109  0.9318
   68CHL1    C2 7485   5.100   5.767  10.071  0.3095 -0.4663 -0.1406
   68CHL1   H2A 7486   5.195   5.764  10.129 -1.0149  1.0435  2.3061
   68CHL1   H2B 7487   5.050   5.668  10.079 -3.1776  1.1470 -0.0653
   68CHL1   C20 7488   4.949   5.882   9.136 -0.0559 -0.8174  0.4739
   68CHL1   H20 7489   4.856   5.821   9.137 -0.7624  0.1429 -1.2299
   68CHL1   C21 7490   5.067   5.787   9.114 -0.0946  0.9134 -0.3153
   68CHL1  H21A 7491   5.070   5.709   9.192  1.4735  1.4604  0.2042
   68CHL1  H21B 7492   5.158   5.849   9.123  1.6604 -1.6221  0.2524
   68CHL1  H21C 7493   5.054   5.745   9.012  1.8267  1.2695 -0.7406
   68CHL1   C22 7494   4.926   5.970   9.009 -0.3756 -0.1809 -0.1181
   68CHL1  H22A 7495   4.907   5.904   8.922  1.2782  0.1529 -0.7748
   68CHL1  H22B 7496   4.842   6.041   9.027  1.5534  2.2550 -0.2901
   68CHL1   C23 7497   5.049   6.050   8.969 -0.1268  0.0288  0.3846
   68CHL1  H23A 7498   5.072   6.124   9.048  2.5948  1.4466 -1.5628
   68CHL1  H23B 7499   5.135   5.984   8.945  0.1438  0.1635  0.9748
   68CHL1   C24 7500   5.015   6.138   8.846 -0.3469 -0.2767 -0.3791
   68CHL1  H24A 7501   4.956   6.076   8.775 -1.6313 -2.0848  2.0822
   68CHL1  H24B 7502   4.942   6.212   8.886  0.0704 -1.1766  2.2778
   68CHL1   C25 7503   5.134   6.216   8.794 -0.6846  0.3147  0.0691
   68CHL1   H25 7504   5.177   6.283   8.872 -0.7709 -0.6101  0.9217
   68CHL1   C26 7505   5.240   6.119   8.730 -0.0684  0.0463  0.0888
   68CHL1  H26A 7506   5.322   6.162   8.668  0.7135 -3.1310 -1.2880
   68CHL1  H26B 7507   5.285   6.043   8.797 -0.1130 -1.7785 -1.8341
   68CHL1  H26C 7508   5.175   6.064   8.658 -0.0830 -0.2806  0.3503
   68CHL1   C27 7509   5.074   6.313   8.685  0.2958  0.5250 -0.9009
   68CHL1  H27A 7510   5.033   6.251   8.602  1.3060 -0.1850 -0.8743
   68CHL1  H27B 7511   5.000   6.377   8.738 -0.4919 -0.6237 -0.5867
   68CHL1  H27C 7512   5.160   6.367   8.640 -0.0361  1.4281 -0.4894
   69CHL1    C3 7513   1.619   2.436   6.903  0.7104 -0.5641 -0.0892
   69CHL1    H3 7514   1.620   2.330   6.936 -0.2466 -0.4237  0.4259
   69CHL1    O3 7515   1.557   2.437   6.773 -0.5311  0.1174 -0.4721
   69CHL1   H3' 7516   1.549   2.531   6.756  0.6920  0.6155  1.3423
   69CHL1    C4 7517   1.540   2.524   7.000 -0.3336  0.2004 -0.2424
   69CHL1   H4A 7518   1.540   2.630   6.966  1.9443  0.4133  0.2748
   69CHL1   H4B 7519   1.432   2.498   7.000 -0.0462 -1.1923 -1.4528
   69CHL1    C5 7520   1.583   2.520   7.143 -0.2893  1.0596 -0.5645
   69CHL1    C6 7521   1.510   2.479   7.247 -0.2404  0.6850 -0.5053
   69CHL1    H6 7522   1.405   2.447   7.239 -0.6675  2.0423 -0.5153
   69CHL1    C7 7523   1.566   2.480   7.390 -0.2266  0.0927 -0.4344
   69CHL1   H7A 7524   1.497   2.544   7.449 -1.1058 -1.3908  0.2071
   69CHL1   H7B 7525   1.576   2.381   7.440  0.5121  1.1560  1.6263
   69CHL1    C8 7526   1.706   2.550   7.404 -0.0838  0.5089  0.5302
   69CHL1    H8 7527   1.676   2.657   7.409 -0.9999  0.6109 -3.8547
   69CHL1   C14 7528   1.774   2.509   7.527 -1.0663 -0.2477  0.4613
   69CHL1   H14 7529   1.800   2.401   7.530 -1.7970 -0.4195  1.1228
   69CHL1   C15 7530   1.695   2.529   7.658 -0.6113  0.3179  0.3012
   69CHL1  H15A 7531   1.647   2.629   7.653  1.2807  1.2277 -0.6195
   69CHL1  H15B 7532   1.617   2.452   7.674 -0.2008 -0.4950 -1.3831
   69CHL1   C16 7533   1.805   2.531   7.765 -0.5512  0.5301  0.0398
   69CHL1  H16A 7534   1.809   2.617   7.835 -0.2206 -0.6465  1.5437
   69CHL1  H16B 7535   1.797   2.434   7.820  1.2510  0.4022  0.1299
   69CHL1   C17 7536   1.943   2.527   7.683 -0.0975  0.0157 -0.1116
   69CHL1   H17 7537   1.968   2.419   7.672  0.9551  0.2274  0.0356
   69CHL1   C13 7538   1.911   2.579   7.545  0.0004  0.7113  0.1078
   69CHL1   C18 7539   1.897   2.733   7.547 -0.8323  0.4766  0.5452
   69CHL1  H18A 7540   1.853   2.774   7.453 -0.1789 -0.0420  0.0012
   69CHL1  H18B 7541   1.837   2.759   7.636 -2.6644 -2.2352  0.2231
   69CHL1  H18C 7542   1.993   2.783   7.573 -0.0030 -1.1806  0.8298
   69CHL1   C12 7543   2.011   2.538   7.431 -0.3692 -0.4173 -0.4073
   69CHL1  H12A 7544   2.110   2.586   7.439 -0.7346  0.4577 -1.0767
   69CHL1  H12B 7545   2.033   2.429   7.444 -0.0443 -0.2667  0.3761
   69CHL1   C11 7546   1.948   2.568   7.297 -0.5337 -0.9335  0.2373
   69CHL1  H11A 7547   1.931   2.678   7.292 -2.9925 -1.2939 -0.9378
   69CHL1  H11B 7548   2.019   2.543   7.215 -1.6676 -0.7514 -0.8375
   69CHL1    C9 7549   1.799   2.519   7.283 -0.0930 -0.6084 -0.1061
   69CHL1    H9 7550   1.811   2.408   7.289 -0.7634 -0.7321 -0.8334
   69CHL1   C10 7551   1.737   2.556   7.147  0.6467  1.2441 -0.4547
   69CHL1   C19 7552   1.748   2.705   7.122 -0.6131 -0.7109 -0.4643
   69CHL1  H19A 7553   1.853   2.727   7.094  0.2293 -1.5910  1.8092
   69CHL1  H19B 7554   1.681   2.747   7.043 -0.3157  3.0281  1.0347
   69CHL1  H19C 7555   1.726   2.770   7.210 -0.1155  1.0142 -1.5530
   69CHL1    C1 7556   1.819   2.481   7.029  0.5859 -0.9216 -0.4181
   69CHL1   H1A 7557   1.926   2.511   7.028  0.6533 -1.0709  0.6415
   69CHL1   H1B 7558   1.822   2.373   7.055  1.4114 -0.7761  0.1036
   69CHL1    C2 7559   1.758   2.495   6.890 -0.2538  0.2549  1.0144
   69CHL1   H2A 7560   1.809   2.438   6.809 -3.0896 -0.6052 -0.3131
   69CHL1   H2B 7561   1.757   2.599   6.853  0.3226 -0.4302 -1.0318
   69CHL1   C20 7562   2.054   2.592   7.765 -0.1005  0.1946 -0.7817
   69CHL1   H20 7563   2.029   2.695   7.800 -2.0977 -0.5233  0.0903
   69CHL1   C21 7564   2.187   2.584   7.692 -0.2730 -0.7319 -0.3973
   69CHL1  H21A 7565   2.270   2.605   7.764  2.2586  1.0037 -3.5624
   69CHL1  H21B 7566   2.183   2.656   7.608 -0.8136  0.2923  0.4773
   69CHL1  H21C 7567   2.199   2.482   7.650  0.5112 -1.3413  1.2089
   69CHL1   C22 7568   2.068   2.518   7.898  0.4494 -0.4052 -0.1567
   69CHL1  H22A 7569   1.968   2.519   7.946  0.6773  1.1194  0.3295
   69CHL1  H22B 7570   2.100   2.413   7.878  2.8670 -0.0702  1.6215
   69CHL1   C23 7571   2.150   2.587   8.013 -0.7441  0.2918 -0.5249
   69CHL1  H23A 7572   2.258   2.571   7.993 -0.9079 -1.2948 -0.2792
   69CHL1  H23B 7573   2.125   2.696   8.010  1.6396  0.9223  0.1167
   69CHL1   C24 7574   2.117   2.524   8.159  0.0289  0.6784  0.0453
   69CHL1  H24A 7575   2.179   2.573   8.236  0.0323 -0.7023  0.9502
   69CHL1  H24B 7576   2.009   2.543   8.176 -0.0589 -0.3293  0.6573
   69CHL1   C25 7577   2.132   2.370   8.158 -0.5745  0.4672 -0.6718
   69CHL1   H25 7578   2.076   2.322   8.076  0.0320 -0.5867 -0.4890
   69CHL1   C26 7579   2.281   2.327   8.148  0.4626 -0.4686 -0.4765
   69CHL1  H26A 7580   2.294   2.218   8.160 -1.0989 -0.6850 -0.4819
   69CHL1  H26B 7581   2.316   2.354   8.046  0.9325 -2.1313 -0.7800
   69CHL1  H26C 7582   2.332   2.382   8.230 -3.0833 -0.2090  1.7738
   69CHL1   C27 7583   2.084   2.306   8.286 -0.3400  0.0890 -0.1331
   69CHL1  H27A 7584   1.980   2.343   8.302  0.0115  1.6558 -1.2800
   69CHL1  H27B 7585   2.076   2.195   8.287 -0.1929 -0.0154 -3.0741
   69CHL1  H27C 7586   2.140   2.337   8.377 -1.3157 -2.4377  1.4386
   70CHL1    C3 7587   1.479   0.329   7.091  0.3615  0.7089  0.2879
   70CHL1    H3 7588   1.376   0.290   7.109  0.5875  0.4587  1.0920
   70CHL1    O3 7589   1.488   0.366   6.956  0.5153  0.4519  0.3350
   70CHL1   H3' 7590   1.584   0.371   6.948  0.6042 -1.9553 -0.9991
   70CHL1    C4 7591   1.485   0.451   7.190  0.7464  0.0642 -0.3753
   70CHL1   H4A 7592   1.575   0.512   7.170  1.7808 -1.2557  0.1336
   70CHL1   H4B 7593   1.399   0.517   7.163  0.0509 -0.5758  0.2000
   70CHL1    C5 7594   1.469   0.409   7.330  0.1290  0.1212  0.9689
   70CHL1    C6 7595   1.378   0.454   7.415 -0.0301 -0.6317  0.1167
   70CHL1    H6 7596   1.312   0.529   7.369  2.7640  1.5377 -0.6118
   70CHL1    C7 7597   1.369   0.423   7.559 -0.1715 -0.3238 -0.3107
   70CHL1   H7A 7598   1.342   0.515   7.614  2.9040 -0.0454  0.8800
   70CHL1   H7B 7599   1.291   0.345   7.576 -0.3064 -0.2456 -0.5575
   70CHL1    C8 7600   1.497   0.368   7.614 -0.6549 -0.0426 -0.1160
   70CHL1    H8 7601   1.573   0.449   7.620 -1.2102  0.4858 -0.0332
   70CHL1   C14 7602   1.472   0.311   7.751 -0.6324 -0.1912  0.2078
   70CHL1   H14 7603   1.402   0.229   7.727  1.3819 -1.0502 -3.4072
   70CHL1   C15 7604   1.414   0.399   7.867 -0.1510 -0.4924  0.1400
   70CHL1  H15A 7605   1.463   0.498   7.877  0.5540 -0.9578  1.5081
   70CHL1  H15B 7606   1.304   0.403   7.850 -0.4136 -0.3615  1.7613
   70CHL1   C16 7607   1.440   0.324   7.995 -0.0298 -0.7815 -0.3525
   70CHL1  H16A 7608   1.485   0.388   8.074 -1.3003 -0.5770  0.2194
   70CHL1  H16B 7609   1.345   0.288   8.040 -0.1931 -1.1420 -0.9636
   70CHL1   C17 7610   1.529   0.208   7.947  0.1319  0.9021 -0.0052
   70CHL1   H17 7611   1.456   0.128   7.920 -0.8462  1.5862  0.5494
   70CHL1   C13 7612   1.595   0.244   7.813  0.1553  0.0198 -0.8824
   70CHL1   C18 7613   1.717   0.343   7.836 -0.4329  0.3137 -0.3174
   70CHL1  H18A 7614   1.744   0.412   7.753  0.5018  0.2896 -0.0370
   70CHL1  H18B 7615   1.709   0.411   7.924  1.6414 -0.4490  0.5301
   70CHL1  H18C 7616   1.800   0.271   7.852 -0.9792 -0.5850 -1.4464
   70CHL1   C12 7617   1.645   0.130   7.721  0.7325  0.3245 -0.6403
   70CHL1  H12A 7618   1.735   0.084   7.767  2.1209  1.5114 -2.0483
   70CHL1  H12B 7619   1.564   0.055   7.734  1.9889 -0.7230  1.8213
   70CHL1   C11 7620   1.670   0.179   7.580 -0.6365  0.4894  0.6198
   70CHL1  H11A 7621   1.765   0.236   7.576 -1.4254  1.8119 -2.4296
   70CHL1  H11B 7622   1.690   0.088   7.518 -0.1628  0.8171  0.2789
   70CHL1    C9 7623   1.554   0.252   7.516  0.2113  0.3641  0.1045
   70CHL1    H9 7624   1.474   0.174   7.512 -0.0749  0.6857 -0.5684
   70CHL1   C10 7625   1.573   0.298   7.375 -0.1783 -0.2353  0.2284
   70CHL1   C19 7626   1.711   0.359   7.359 -0.0856  0.8594 -0.0888
   70CHL1  H19A 7627   1.792   0.286   7.379 -0.7876 -0.0285 -0.4018
   70CHL1  H19B 7628   1.731   0.387   7.253 -1.9861  1.5651 -0.3068
   70CHL1  H19C 7629   1.727   0.451   7.419 -0.0356  1.4779 -1.0183
   70CHL1    C1 7630   1.572   0.185   7.273  0.2446  0.5198 -0.4513
   70CHL1   H1A 7631   1.644   0.104   7.295 -0.2255 -0.0764 -1.0711
   70CHL1   H1B 7632   1.475   0.134   7.291  0.5442 -0.3299 -1.1822
   70CHL1    C2 7633   1.581   0.218   7.120  0.2194 -0.1413  0.1275
   70CHL1   H2A 7634   1.552   0.129   7.060 -0.7825  0.4145 -0.2254
   70CHL1   H2B 7635   1.688   0.236   7.095 -0.1736  0.2969 -1.3232
   70CHL1   C20 7636   1.624   0.143   8.052 -0.2922 -1.1782 -0.1566
   70CHL1   H20 7637   1.723   0.194   8.047 -1.3007  0.9238  0.3131
   70CHL1   C21 7638   1.650  -0.008   8.028  0.7585 -0.8984 -0.0192
   70CHL1  H21A 7639   1.560  -0.069   8.052  0.1311 -0.4872 -1.2568
   70CHL1  H21B 7640   1.734  -0.043   8.091 -0.1199  0.0330  1.7597
   70CHL1  H21C 7641   1.670  -0.029   7.921  0.2797 -0.6140 -0.1685
   70CHL1   C22 7642   1.577   0.177   8.199  0.2461 -0.0182  0.2081
   70CHL1  H22A 7643   1.588   0.285   8.225  1.7104 -0.9269  4.2666
   70CHL1  H22B 7644   1.471   0.147   8.209  0.3835 -0.7228 -0.3914
   70CHL1   C23 7645   1.665   0.099   8.293 -0.0526  0.6760 -0.1766
   70CHL1  H23A 7646   1.678  -0.008   8.268  2.1495  1.5904 -3.6363
   70CHL1  H23B 7647   1.769   0.138   8.280  0.3988 -0.6982 -0.8706
   70CHL1   C24 7648   1.610   0.095   8.443 -0.0829  0.5523 -0.4486
   70CHL1  H24A 7649   1.587   0.199   8.476  2.9712  0.6694  1.7010
   70CHL1  H24B 7650   1.510   0.046   8.439 -0.0204  0.0953  1.9716
   70CHL1   C25 7651   1.703   0.045   8.551 -0.0880 -0.0937 -0.2605
   70CHL1   H25 7652   1.653   0.050   8.650  0.1957  0.1336 -0.1284
   70CHL1   C26 7653   1.752  -0.103   8.535  0.5266 -0.0528 -0.3422
   70CHL1  H26A 7654   1.811  -0.131   8.444 -1.4120 -2.3650 -0.9820
   70CHL1  H26B 7655   1.817  -0.124   8.623  0.3203 -1.6900 -0.5454
   70CHL1  H26C 7656   1.665  -0.172   8.536  1.5807 -1.4409  1.4765
   70CHL1   C27 7657   1.825   0.139   8.555  0.5483 -0.6263  0.0608
   70CHL1  H27A 7658   1.898   0.103   8.630  2.0749  2.2442  0.1111
   70CHL1  H27B 7659   1.870   0.147   8.453 -0.0187 -1.5705 -0.2785
   70CHL1  H27C 7660   1.792   0.238   8.593 -2.1930 -1.6677  0.6145
   71CHL1    C3 7661   5.430   0.495   6.802 -0.4635  0.2807  1.0599
   71CHL1    H3 7662   5.338   0.548   6.833 -0.3520  0.1609  1.5973
   71CHL1    O3 7663   5.457   0.511   6.659  0.2668 -0.0561 -0.7000
   71CHL1   H3' 7664   5.449   0.423   6.624  0.6948 -0.4628  0.1873
   71CHL1    C4 7665   5.545   0.555   6.872  0.1513  0.1320 -0.4163
   71CHL1   H4A 7666   5.645   0.529   6.830 -0.4109 -0.8249 -1.1796
   71CHL1   H4B 7667   5.526   0.662   6.853  2.8906  1.2093  2.0330
   71CHL1    C5 7668   5.537   0.538   7.026 -0.1562  0.0247 -0.5086
   71CHL1    C6 7669   5.527   0.643   7.112  0.9044  0.2833 -0.4406
   71CHL1    H6 7670   5.524   0.744   7.067  1.0008  0.2098 -0.6090
   71CHL1    C7 7671   5.531   0.629   7.260  0.4091  0.3110 -0.1928
   71CHL1   H7A 7672   5.614   0.692   7.300  0.1549 -0.1999  1.1706
   71CHL1   H7B 7673   5.437   0.667   7.303  0.7160 -0.7748  1.5292
   71CHL1    C8 7674   5.553   0.486   7.306 -0.4721 -0.9854  0.3517
   71CHL1    H8 7675   5.663   0.483   7.319 -0.5055  1.3853  1.8517
   71CHL1   C14 7676   5.494   0.468   7.448 -0.2391 -0.2591  0.5618
   71CHL1   H14 7677   5.386   0.490   7.436  0.1008  1.2125  0.0319
   71CHL1   C15 7678   5.541   0.569   7.560 -0.2183 -0.6939  0.5951
   71CHL1  H15A 7679   5.652   0.582   7.555 -0.4219  1.2552  0.3558
   71CHL1  H15B 7680   5.500   0.672   7.550 -0.4966 -0.8915 -0.4532
   71CHL1   C16 7681   5.503   0.499   7.692 -0.4775  0.3439 -0.0885
   71CHL1  H16A 7682   5.584   0.502   7.768  1.4287 -0.4969 -1.9843
   71CHL1  H16B 7683   5.428   0.551   7.755  2.7382  2.0441  2.6749
   71CHL1   C17 7684   5.459   0.351   7.653 -0.2942  0.2768  0.0707
   71CHL1   H17 7685   5.349   0.362   7.643 -0.5978 -1.9238  0.3799
   71CHL1   C13 7686   5.513   0.334   7.507  0.0169  0.4701 -0.7293
   71CHL1   C18 7687   5.668   0.295   7.507 -0.0123 -0.9950 -0.1710
   71CHL1  H18A 7688   5.728   0.357   7.578  1.5323  1.2484 -3.1968
   71CHL1  H18B 7689   5.672   0.191   7.545 -0.9045 -0.6786  0.8517
   71CHL1  H18C 7690   5.717   0.316   7.410  0.6692  0.1673  0.3969
   71CHL1   C12 7691   5.448   0.226   7.423 -0.1159  0.6035  0.1727
   71CHL1  H12A 7692   5.470   0.127   7.468  1.6291 -0.0593 -1.9784
   71CHL1  H12B 7693   5.338   0.241   7.428 -0.5883 -1.9091 -1.0632
   71CHL1   C11 7694   5.491   0.234   7.275 -0.5148 -0.6477 -0.2683
   71CHL1  H11A 7695   5.593   0.194   7.258 -0.2820 -0.7789  1.2656
   71CHL1  H11B 7696   5.421   0.175   7.212 -1.9030 -1.8296  2.2120
   71CHL1    C9 7697   5.485   0.381   7.219 -0.0220 -0.4496  0.1203
   71CHL1    H9 7698   5.378   0.409   7.227 -0.7726 -2.9187 -0.2063
   71CHL1   C10 7699   5.531   0.392   7.065  0.5653  0.2841  1.0558
   71CHL1   C19 7700   5.669   0.330   7.042  0.0422  0.5165 -0.2305
   71CHL1  H19A 7701   5.752   0.385   7.091 -0.0719  0.9009 -0.4681
   71CHL1  H19B 7702   5.685   0.225   7.074  0.2833  0.0644 -1.7233
   71CHL1  H19C 7703   5.693   0.324   6.933  0.1168 -2.0440 -0.1489
   71CHL1    C1 7704   5.422   0.320   6.975  0.5465  0.2131  0.0018
   71CHL1   H1A 7705   5.435   0.210   6.971 -1.0876 -0.0764  1.3724
   71CHL1   H1B 7706   5.324   0.337   7.025 -1.1269 -0.5414 -2.8287
   71CHL1    C2 7707   5.415   0.346   6.827 -0.3682 -0.2466  0.2546
   71CHL1   H2A 7708   5.314   0.320   6.789  0.2900  0.8696 -2.4217
   71CHL1   H2B 7709   5.493   0.285   6.777 -0.3695 -1.7844  1.9906
   71CHL1   C20 7710   5.487   0.242   7.758 -0.1315 -0.2885 -0.5343
   71CHL1   H20 7711   5.493   0.141   7.712 -0.4113 -0.8460  0.6236
   71CHL1   C21 7712   5.362   0.233   7.846 -0.6980  0.5590 -0.1851
   71CHL1  H21A 7713   5.373   0.172   7.938 -1.3912  2.3529  1.1661
   71CHL1  H21B 7714   5.281   0.194   7.780 -0.2558  0.4177 -0.6465
   71CHL1  H21C 7715   5.347   0.341   7.871  3.5031  1.4602 -0.8888
   71CHL1   C22 7716   5.611   0.270   7.840 -0.1319  0.1862  0.0103
   71CHL1  H22A 7717   5.686   0.325   7.779  1.1873 -0.9674  0.5394
   71CHL1  H22B 7718   5.588   0.323   7.935  1.5136  1.6139 -0.3235
   71CHL1   C23 7719   5.690   0.145   7.883  0.0838  0.0741 -0.6728
   71CHL1  H23A 7720   5.624   0.069   7.931 -0.3582  0.5779 -0.4756
   71CHL1  H23B 7721   5.735   0.103   7.791  2.4741 -0.0176  0.4873
   71CHL1   C24 7722   5.811   0.172   7.976  0.0528 -0.4154  0.1497
   71CHL1  H24A 7723   5.877   0.247   7.928  0.4233 -1.2467 -0.6818
   71CHL1  H24B 7724   5.765   0.224   8.062  0.4872  0.0054  0.1298
   71CHL1   C25 7725   5.884   0.051   8.030 -0.2869  0.5859  0.4016
   71CHL1   H25 7726   5.930  -0.014   7.952  0.5012  0.9595  0.5519
   71CHL1   C26 7727   5.989   0.114   8.122 -0.3554  0.2059  0.1659
   71CHL1  H26A 7728   6.057   0.182   8.067  0.2325 -0.2814  0.2756
   71CHL1  H26B 7729   5.953   0.174   8.208  1.6743  2.3663 -0.4038
   71CHL1  H26C 7730   6.058   0.037   8.163 -0.3516  0.6047  0.9188
   71CHL1   C27 7731   5.802  -0.032   8.115  0.0047  0.6756  0.4501
   71CHL1  H27A 7732   5.735   0.031   8.177 -1.4463  1.2294 -1.5664
   71CHL1  H27B 7733   5.723  -0.087   8.059  0.8461 -0.6373  0.5155
   71CHL1  H27C 7734   5.857  -0.104   8.179  0.5159 -0.8848 -1.6235
   72CHL1    C3 7735   1.717   0.929   7.135 -0.0401 -0.0728  0.1151
   72CHL1    H3 7736   1.819   0.950   7.172  0.8813 -1.7644 -1.2855
   72CHL1    O3 7737   1.705   0.931   6.994 -0.9443 -0.1021  0.3359
   72CHL1   H3' 7738   1.695   0.838   6.973 -0.4232  0.2422 -1.5655
   72CHL1    C4 7739   1.680   0.790   7.202 -1.1173 -0.8854  0.2027
   72CHL1   H4A 7740   1.580   0.751   7.173 -1.0215 -2.1258  1.4090
   72CHL1   H4B 7741   1.752   0.714   7.165 -0.1891  0.9583 -2.0066
   72CHL1    C5 7742   1.687   0.810   7.352 -0.2302 -0.0971 -0.4297
   72CHL1    C6 7743   1.779   0.727   7.412  0.1375  0.3041 -0.0006
   72CHL1    H6 7744   1.822   0.644   7.355 -1.4993 -0.3091 -0.4048
   72CHL1    C7 7745   1.783   0.732   7.561 -0.1846 -0.3327  0.2498
   72CHL1   H7A 7746   1.767   0.627   7.594  1.4351 -1.1965 -1.5199
   72CHL1   H7B 7747   1.883   0.761   7.600 -0.4601  0.2964  0.4955
   72CHL1    C8 7748   1.680   0.811   7.645  0.0388 -0.7556  0.2080
   72CHL1    H8 7749   1.591   0.747   7.663 -0.7982  0.3580  0.1439
   72CHL1   C14 7750   1.733   0.855   7.785 -0.0356 -0.0805  0.2699
   72CHL1   H14 7751   1.811   0.931   7.763 -0.6219 -0.0516 -1.9882
   72CHL1   C15 7752   1.802   0.753   7.868 -0.2290  0.9640  0.3369
   72CHL1  H15A 7753   1.742   0.660   7.874  0.6535  0.2516 -1.1929
   72CHL1  H15B 7754   1.902   0.718   7.834 -0.9340  0.8129 -1.6941
   72CHL1   C16 7755   1.821   0.823   8.002 -0.3437 -0.1817  0.9693
   72CHL1  H16A 7756   1.782   0.751   8.078  0.9897 -0.5527  1.3201
   72CHL1  H16B 7757   1.927   0.835   8.033 -0.1774 -1.9922  1.1980
   72CHL1   C17 7758   1.728   0.954   7.990  0.1028  0.4286  0.6692
   72CHL1   H17 7759   1.796   1.038   7.963  0.0862 -0.2392 -1.7151
   72CHL1   C13 7760   1.631   0.928   7.874 -0.5282  0.3414 -0.7466
   72CHL1   C18 7761   1.515   0.846   7.925  0.6210  0.1996 -0.8221
   72CHL1  H18A 7762   1.453   0.895   8.003 -0.1562 -0.3651 -1.0749
   72CHL1  H18B 7763   1.449   0.826   7.838 -0.0572  1.2927 -0.5833
   72CHL1  H18C 7764   1.550   0.748   7.964 -1.6561 -0.5953 -0.6495
   72CHL1   C12 7765   1.583   1.062   7.799  0.4723 -0.0097  0.0097
   72CHL1  H12A 7766   1.506   1.124   7.850  1.3945  2.2632 -1.1978
   72CHL1  H12B 7767   1.670   1.130   7.791  0.4885  0.1482  1.3214
   72CHL1   C11 7768   1.534   1.022   7.649 -0.1631  0.1067 -0.4469
   72CHL1  H11A 7769   1.445   0.956   7.659  2.0040 -2.7275  1.8860
   72CHL1  H11B 7770   1.514   1.116   7.594  1.2812  0.8090  0.1846
   72CHL1    C9 7771   1.634   0.935   7.571 -0.2324 -0.1697  0.3558
   72CHL1    H9 7772   1.735   0.982   7.578  0.1500 -0.8230 -0.5176
   72CHL1   C10 7773   1.599   0.914   7.422 -0.0781  0.2962 -0.2706
   72CHL1   C19 7774   1.454   0.867   7.412 -0.2736  0.6183  0.3492
   72CHL1  H19A 7775   1.425   0.855   7.305  3.2009  0.3663 -0.6842
   72CHL1  H19B 7776   1.442   0.768   7.461  0.4696  0.9484  1.2176
   72CHL1  H19C 7777   1.375   0.935   7.451 -0.0528  1.4059 -0.5313
   72CHL1    C1 7778   1.627   1.054   7.350  0.1229  0.2428 -0.0020
   72CHL1   H1A 7779   1.561   1.138   7.380  0.4914  1.1695 -1.6753
   72CHL1   H1B 7780   1.727   1.093   7.378  0.1193  0.6539 -0.5517
   72CHL1    C2 7781   1.627   1.043   7.189  0.4199 -0.3773  0.9753
   72CHL1   H2A 7782   1.630   1.140   7.135 -0.0170 -0.0908  1.4453
   72CHL1   H2B 7783   1.520   1.017   7.173  1.0285 -1.7467 -1.2572
   72CHL1   C20 7784   1.679   0.996   8.128  0.0712 -0.1258 -0.3004
   72CHL1   H20 7785   1.604   0.923   8.166 -0.8045  1.1891  0.5885
   72CHL1   C21 7786   1.601   1.135   8.125  0.2400 -0.3182  0.4580
   72CHL1  H21A 7787   1.581   1.179   8.225  1.2677 -0.9574  0.9481
   72CHL1  H21B 7788   1.516   1.126   8.053  1.7194  0.3347 -1.4604
   72CHL1  H21C 7789   1.675   1.201   8.075  1.3621 -2.7626 -1.3113
   72CHL1   C22 7790   1.789   0.996   8.239  0.1234 -0.1319 -0.2327
   72CHL1  H22A 7791   1.831   0.894   8.249 -1.5656 -0.9389 -0.9589
   72CHL1  H22B 7792   1.869   1.067   8.208  0.2625 -0.8009 -1.4533
   72CHL1   C23 7793   1.728   1.043   8.374 -0.7000 -0.1230  0.4378
   72CHL1  H23A 7794   1.726   1.154   8.373  0.6451 -0.0780  0.4825
   72CHL1  H23B 7795   1.620   1.022   8.389 -1.0377  1.1922  0.0238
   72CHL1   C24 7796   1.826   0.984   8.486  0.3333  0.5679 -0.4437
   72CHL1  H24A 7797   1.798   0.878   8.500 -0.6965  0.2911 -3.7048
   72CHL1  H24B 7798   1.928   0.971   8.444  0.2598  1.9953 -1.1118
   72CHL1   C25 7799   1.808   1.040   8.631  0.2254 -0.3338  0.1740
   72CHL1   H25 7800   1.893   1.000   8.691  0.8109 -3.8802 -2.6671
   72CHL1   C26 7801   1.827   1.191   8.643  1.3015 -0.5181 -0.8999
   72CHL1  H26A 7802   1.824   1.229   8.747  0.0949 -0.3930 -0.9696
   72CHL1  H26B 7803   1.926   1.220   8.602  2.3393  0.1145  1.8468
   72CHL1  H26C 7804   1.745   1.242   8.589 -0.2520 -0.6548  1.2087
   72CHL1   C27 7805   1.672   1.008   8.693  0.3318  0.4446  0.2950
   72CHL1  H27A 7806   1.581   1.042   8.639 -0.2608 -0.5775  0.6207
   72CHL1  H27B 7807   1.658   0.898   8.707  0.0850  0.2608 -1.2288
   72CHL1  H27C 7808   1.669   1.051   8.795 -1.2557  1.0326  0.0241
   73CHL1    C3 7809   6.207   2.462   6.947 -0.5332  0.2790  0.2560
   73CHL1    H3 7810   6.161   2.558   6.978 -1.6857 -0.0451 -0.3816
   73CHL1    O3 7811   6.225   2.478   6.807  0.1834  0.0671 -0.4558
   73CHL1   H3' 7812   6.236   2.388   6.775 -2.3427 -0.8617  0.9493
   73CHL1    C4 7813   6.348   2.445   7.021 -0.7262  0.0079  0.3631
   73CHL1   H4A 7814   6.397   2.365   6.961 -0.3654 -0.1280  0.8399
   73CHL1   H4B 7815   6.417   2.526   6.989 -0.0709 -0.6825 -0.0138
   73CHL1    C5 7816   6.337   2.419   7.166  0.1003 -0.6040 -0.0154
   73CHL1    C6 7817   6.392   2.501   7.256  0.1813  0.4831  0.1071
   73CHL1    H6 7818   6.450   2.582   7.211 -0.1612 -1.2535 -3.8100
   73CHL1    C7 7819   6.386   2.497   7.404  0.5598 -0.3796 -0.5230
   73CHL1   H7A 7820   6.485   2.517   7.451 -1.2957  2.6700  2.6802
   73CHL1   H7B 7821   6.330   2.585   7.442 -0.2572 -1.0428 -0.1606
   73CHL1    C8 7822   6.324   2.365   7.452 -0.5021  0.1926 -0.3619
   73CHL1    H8 7823   6.399   2.284   7.450  1.0648  1.5357  0.7270
   73CHL1   C14 7824   6.280   2.388   7.592 -0.5269  0.3351  0.1723
   73CHL1   H14 7825   6.195   2.458   7.576  0.4321  1.6668  0.7160
   73CHL1   C15 7826   6.369   2.452   7.700  0.5729 -0.0216 -0.0611
   73CHL1  H15A 7827   6.478   2.433   7.689  0.6555 -0.3657  1.2660
   73CHL1  H15B 7828   6.360   2.563   7.698  1.6925  0.0777 -1.2236
   73CHL1   C16 7829   6.312   2.400   7.836  1.1911  0.0487 -0.2376
   73CHL1  H16A 7830   6.380   2.327   7.885 -1.3680 -1.9891  0.4956
   73CHL1  H16B 7831   6.296   2.492   7.895  0.3631  0.8412 -1.6470
   73CHL1   C17 7832   6.185   2.325   7.794  0.3046 -0.4517  1.1678
   73CHL1   H17 7833   6.103   2.399   7.784  0.5213 -0.3444  0.1551
   73CHL1   C13 7834   6.215   2.268   7.651  0.5271  0.1734  0.0430
   73CHL1   C18 7835   6.301   2.140   7.678 -0.3822 -0.5633 -0.7055
   73CHL1  H18A 7836   6.367   2.151   7.766  0.4047  3.4500 -1.6245
   73CHL1  H18B 7837   6.239   2.049   7.696  0.1947 -1.3329 -2.3110
   73CHL1  H18C 7838   6.366   2.119   7.590  0.4914 -0.0688 -0.1841
   73CHL1   C12 7839   6.090   2.234   7.570 -0.6832  0.1738  0.2183
   73CHL1  H12A 7840   6.042   2.145   7.616 -0.4363 -0.4640 -0.7140
   73CHL1  H12B 7841   6.023   2.321   7.561  2.7597  2.9380 -1.0829
   73CHL1   C11 7842   6.128   2.208   7.424  0.0837  0.2845  0.0093
   73CHL1  H11A 7843   6.191   2.117   7.431 -0.9307 -0.3365  1.5940
   73CHL1  H11B 7844   6.027   2.180   7.387 -0.3987 -1.7868  2.5751
   73CHL1    C9 7845   6.207   2.322   7.363 -0.5529 -0.1324  0.1777
   73CHL1    H9 7846   6.135   2.406   7.371 -3.1632 -2.2392  0.1679
   73CHL1   C10 7847   6.245   2.312   7.215 -0.4688 -0.1028 -0.2698
   73CHL1   C19 7848   6.304   2.170   7.187  0.2851  0.2768 -0.0106
   73CHL1  H19A 7849   6.400   2.155   7.240 -1.7842  1.2282  4.4937
   73CHL1  H19B 7850   6.237   2.087   7.221 -0.0945  1.1903  1.5907
   73CHL1  H19C 7851   6.320   2.145   7.080  2.2361 -1.6018  0.6572
   73CHL1    C1 7852   6.114   2.329   7.131 -0.1641 -0.1250  0.2886
   73CHL1   H1A 7853   6.056   2.236   7.148 -0.3148 -0.2888 -1.0268
   73CHL1   H1B 7854   6.054   2.406   7.184  1.4168  1.2375  0.1837
   73CHL1    C2 7855   6.120   2.339   6.978 -0.4721 -0.8383 -0.1100
   73CHL1   H2A 7856   6.023   2.336   6.924 -0.9701 -1.3294  0.7906
   73CHL1   H2B 7857   6.183   2.254   6.946 -1.0170 -1.5205  0.6025
   73CHL1   C20 7858   6.144   2.227   7.910  0.0123 -0.0844  0.3111
   73CHL1   H20 7859   6.229   2.161   7.937 -0.4936 -0.6113  0.6578
   73CHL1   C21 7860   6.037   2.132   7.867 -0.3338 -0.2283 -0.3768
   73CHL1  H21A 7861   6.071   2.049   7.802 -2.1680 -0.7309 -0.7593
   73CHL1  H21B 7862   5.954   2.190   7.822  1.0391  0.9791 -1.4520
   73CHL1  H21C 7863   5.994   2.078   7.955  2.8547 -0.7171  1.0263
   73CHL1   C22 7864   6.092   2.306   8.031  0.0482  0.2348  0.2189
   73CHL1  H22A 7865   6.155   2.395   8.054 -0.1430  0.0697  1.4576
   73CHL1  H22B 7866   5.998   2.352   7.992 -0.3693  2.0957  3.0717
   73CHL1   C23 7867   6.064   2.225   8.156 -0.7175 -0.4186  0.0304
   73CHL1  H23A 7868   5.967   2.172   8.148 -0.5753 -0.4903 -1.5321
   73CHL1  H23B 7869   6.151   2.156   8.159  0.8903  1.4141 -1.7609
   73CHL1   C24 7870   6.075   2.319   8.282 -0.2206 -0.1131 -0.0536
   73CHL1  H24A 7871   6.183   2.340   8.297  0.1851 -1.5145 -0.8026
   73CHL1  H24B 7872   6.023   2.414   8.258  1.3172  0.9770  0.7821
   73CHL1   C25 7873   6.025   2.265   8.418  0.0751  0.1968 -0.2728
   73CHL1   H25 7874   6.076   2.169   8.439  0.6141  0.4426 -0.4305
   73CHL1   C26 7875   6.060   2.351   8.535 -0.1677 -0.2926 -0.3083
   73CHL1  H26A 7876   6.016   2.298   8.622  0.0940  0.9072  0.5833
   73CHL1  H26B 7877   6.170   2.364   8.534 -0.0944 -0.9057 -0.4620
   73CHL1  H26C 7878   6.017   2.452   8.520  1.8133  0.7520  0.6703
   73CHL1   C27 7879   5.872   2.255   8.410 -0.2435  0.0731 -0.3631
   73CHL1  H27A 7880   5.856   2.180   8.329 -0.4023 -2.1078  1.5803
   73CHL1  H27B 7881   5.824   2.227   8.506 -0.2850  0.0853 -0.3804
   73CHL1  H27C 7882   5.825   2.353   8.388 -0.8453 -0.2636 -0.5861
   74CHL1    C3 7883   5.308   2.716   6.773  0.1745 -0.2899 -0.1599
   74CHL1    H3 7884   5.246   2.624   6.780 -1.8662  1.0944  1.0754
   74CHL1    O3 7885   5.317   2.762   6.639 -0.1826 -0.1147  0.3185
   74CHL1   H3' 7886   5.353   2.851   6.644 -0.3222 -0.0132 -0.3637
   74CHL1    C4 7887   5.213   2.822   6.844 -0.3265  0.5388  0.8921
   74CHL1   H4A 7888   5.246   2.926   6.823 -3.5167  1.7235  1.1944
   74CHL1   H4B 7889   5.114   2.805   6.797  0.6111 -0.5725 -0.7654
   74CHL1    C5 7890   5.204   2.801   6.994  0.7279  0.3686 -0.3117
   74CHL1    C6 7891   5.089   2.798   7.056 -0.6644  0.2263 -0.2417
   74CHL1    H6 7892   4.996   2.802   6.998  0.2653  1.9773 -1.7345
   74CHL1    C7 7893   5.071   2.786   7.205 -0.7932  0.3019  0.0407
   74CHL1   H7A 7894   5.001   2.865   7.240  0.2211  1.8808 -1.3469
   74CHL1   H7B 7895   5.034   2.682   7.216 -0.0642 -0.0628 -0.8502
   74CHL1    C8 7896   5.210   2.814   7.277 -0.0289  0.5761  0.1435
   74CHL1    H8 7897   5.236   2.922   7.277  1.3756  0.2490 -0.0918
   74CHL1   C14 7898   5.196   2.766   7.427 -0.0004  0.9327 -0.3259
   74CHL1   H14 7899   5.168   2.659   7.418  2.9607  0.0790 -0.3653
   74CHL1   C15 7900   5.082   2.825   7.518 -0.3705 -0.1465 -0.7780
   74CHL1  H15A 7901   5.080   2.936   7.511  3.0642  0.3617  2.8994
   74CHL1  H15B 7902   4.984   2.782   7.490 -0.2476 -0.1382 -1.2441
   74CHL1   C16 7903   5.117   2.768   7.658 -0.0913  0.2683  0.0239
   74CHL1  H16A 7904   5.107   2.854   7.727  1.0643 -0.6283  1.3870
   74CHL1  H16B 7905   5.055   2.680   7.686 -0.0907  0.5994  1.1176
   74CHL1   C17 7906   5.265   2.727   7.649 -0.1172 -0.4483 -0.6329
   74CHL1   H17 7907   5.260   2.617   7.643  1.3925 -0.5081 -1.3238
   74CHL1   C13 7908   5.318   2.779   7.514 -0.0067  0.1408  0.4667
   74CHL1   C18 7909   5.369   2.925   7.518  0.0141 -0.5745  0.0662
   74CHL1  H18A 7910   5.289   2.992   7.556 -0.1110 -0.8926  0.3692
   74CHL1  H18B 7911   5.445   2.937   7.599 -0.2623 -1.4550  0.4696
   74CHL1  H18C 7912   5.412   2.954   7.420 -0.3116 -2.8199 -0.7979
   74CHL1   C12 7913   5.422   2.675   7.444  0.2975 -0.4804  0.9621
   74CHL1  H12A 7914   5.516   2.662   7.501  1.0310 -1.4977 -0.4368
   74CHL1  H12B 7915   5.362   2.581   7.442 -0.4890  0.0291 -0.5986
   74CHL1   C11 7916   5.450   2.711   7.298 -0.1888 -0.1522 -0.0342
   74CHL1  H11A 7917   5.516   2.801   7.296 -0.1476 -0.0721  2.3490
   74CHL1  H11B 7918   5.505   2.622   7.258 -0.7446 -1.1663  1.3650
   74CHL1    C9 7919   5.317   2.729   7.209  0.0536 -0.8868  0.3264
   74CHL1    H9 7920   5.273   2.627   7.212 -0.8748 -0.5112 -0.2810
   74CHL1   C10 7921   5.342   2.776   7.059 -0.6902 -0.4163 -0.1110
   74CHL1   C19 7922   5.406   2.917   7.059  0.1876 -0.4680  0.4997
   74CHL1  H19A 7923   5.355   2.997   7.118  2.8280  2.7652 -1.2606
   74CHL1  H19B 7924   5.515   2.916   7.080  0.3736 -0.5871 -0.4605
   74CHL1  H19C 7925   5.416   2.963   6.959  2.9576  1.4870  1.5557
   74CHL1    C1 7926   5.430   2.673   6.980  0.1811  0.0674 -0.4778
   74CHL1   H1A 7927   5.534   2.669   7.019  0.1005  1.2940 -0.0958
   74CHL1   H1B 7928   5.389   2.572   7.001 -0.9032  0.5566 -0.1873
   74CHL1    C2 7929   5.444   2.706   6.833  0.4938  0.3935 -0.0314
   74CHL1   H2A 7930   5.501   2.626   6.780 -0.9076  0.2654 -1.4227
   74CHL1   H2B 7931   5.500   2.801   6.829 -0.4598  0.9553 -0.4053
   74CHL1   C20 7932   5.351   2.758   7.777 -0.1114  0.3002  0.1665
   74CHL1   H20 7933   5.424   2.839   7.755 -0.6572  0.1887 -2.4148
   74CHL1   C21 7934   5.456   2.646   7.782 -0.5930  0.4463  0.4294
   74CHL1  H21A 7935   5.529   2.677   7.861 -0.7945  0.2017  0.7133
   74CHL1  H21B 7936   5.515   2.634   7.689  1.3702  1.7525  1.4394
   74CHL1  H21C 7937   5.410   2.550   7.815 -0.4831  0.6284  1.1422
   74CHL1   C22 7938   5.275   2.774   7.910  0.5643  1.3781  0.4082
   74CHL1  H22A 7939   5.203   2.858   7.902  1.2206  2.2431  2.6787
   74CHL1  H22B 7940   5.224   2.680   7.939  0.9504  1.7733  2.6054
   74CHL1   C23 7941   5.365   2.820   8.027  0.1826 -0.2550 -0.7609
   74CHL1  H23A 7942   5.295   2.825   8.113  1.2706  1.2989  0.0892
   74CHL1  H23B 7943   5.448   2.749   8.047  0.7248  0.8623  1.2886
   74CHL1   C24 7944   5.420   2.959   8.001 -0.3809 -0.8261 -0.2552
   74CHL1  H24A 7945   5.493   2.967   7.918 -0.4185  0.9023 -0.1687
   74CHL1  H24B 7946   5.340   3.032   7.974 -2.5349 -2.9617  0.0470
   74CHL1   C25 7947   5.488   3.013   8.130 -0.9575 -0.3372  0.7680
   74CHL1   H25 7948   5.447   2.953   8.214  0.7293 -1.3784  0.9116
   74CHL1   C26 7949   5.635   2.982   8.124 -0.4687  0.0498  0.0560
   74CHL1  H26A 7950   5.691   3.026   8.210  2.6888 -0.4132 -1.6068
   74CHL1  H26B 7951   5.657   2.873   8.130 -1.0685 -0.0328  1.0757
   74CHL1  H26C 7952   5.673   3.024   8.029  1.8797 -0.4979  0.6851
   74CHL1   C27 7953   5.469   3.163   8.150 -0.2504 -0.5623  0.4531
   74CHL1  H27A 7954   5.366   3.202   8.135  0.1718  0.2666 -0.3677
   74CHL1  H27B 7955   5.509   3.197   8.248 -1.1062  0.5765  0.4229
   74CHL1  H27C 7956   5.529   3.214   8.071  1.4671  0.5996  2.4150
   75CHL1    C3 7957   2.498   3.128   6.786 -0.9377 -0.5668 -0.4045
   75CHL1    H3 7958   2.405   3.183   6.812 -1.4279 -0.4716 -2.2449
   75CHL1    O3 7959   2.488   3.055   6.663  0.0960  0.3385  0.1854
   75CHL1   H3' 7960   2.399   3.020   6.658  0.4874 -0.5940 -0.9113
   75CHL1    C4 7961   2.627   3.212   6.784 -0.6281  0.0640  0.3294
   75CHL1   H4A 7962   2.706   3.140   6.751 -1.3915 -0.4603 -0.4191
   75CHL1   H4B 7963   2.617   3.290   6.705  0.7721 -0.3868 -0.3218
   75CHL1    C5 7964   2.646   3.279   6.918 -0.2978 -0.3241  0.4597
   75CHL1    C6 7965   2.663   3.413   6.931 -0.0547 -0.0486 -0.2771
   75CHL1    H6 7966   2.667   3.484   6.848  1.8109  0.8974  0.5701
   75CHL1    C7 7967   2.694   3.476   7.065 -0.5180  0.1741  0.3576
   75CHL1   H7A 7968   2.775   3.551   7.055  0.2117 -0.4801  1.2171
   75CHL1   H7B 7969   2.608   3.539   7.095 -1.3731  1.6864 -4.3747
   75CHL1    C8 7970   2.731   3.376   7.178 -0.0796 -0.6770  0.4763
   75CHL1    H8 7971   2.839   3.349   7.181  0.1442 -0.0675 -1.1453
   75CHL1   C14 7972   2.717   3.451   7.314 -0.2786 -0.3625  0.4373
   75CHL1   H14 7973   2.612   3.487   7.311  0.0454  0.6131 -2.2923
   75CHL1   C15 7974   2.797   3.581   7.322 -0.5629 -0.4500  0.1167
   75CHL1  H15A 7975   2.905   3.554   7.316 -0.7177 -1.1869  0.6526
   75CHL1  H15B 7976   2.770   3.657   7.245 -1.8259  0.6127  1.5559
   75CHL1   C16 7977   2.768   3.625   7.469  1.0501 -0.6258 -0.5857
   75CHL1  H16A 7978   2.868   3.646   7.513  0.4561 -0.5088  0.7395
   75CHL1  H16B 7979   2.693   3.706   7.478  1.1880 -0.5027 -0.5447
   75CHL1   C17 7980   2.709   3.499   7.539 -0.6108  0.1482 -0.3226
   75CHL1   H17 7981   2.599   3.510   7.530 -0.3842  1.3055 -2.6003
   75CHL1   C13 7982   2.735   3.375   7.438 -0.0458  0.7518 -1.3671
   75CHL1   C18 7983   2.880   3.327   7.456 -0.0022 -0.3209  0.7357
   75CHL1  H18A 7984   2.945   3.417   7.446 -2.8731  1.6875 -1.4234
   75CHL1  H18B 7985   2.883   3.278   7.556  0.2339  0.2252  0.9988
   75CHL1  H18C 7986   2.907   3.257   7.373 -0.2022 -0.5477  0.8609
   75CHL1   C12 7987   2.636   3.252   7.440 -0.2971  0.4549 -0.2235
   75CHL1  H12A 7988   2.660   3.177   7.518  2.1687  1.7392  0.3673
   75CHL1  H12B 7989   2.533   3.292   7.430 -0.0488  1.3140  0.4785
   75CHL1   C11 7990   2.663   3.169   7.313  0.3800 -0.4860  0.4892
   75CHL1  H11A 7991   2.757   3.110   7.313  0.3404 -0.6263 -1.3338
   75CHL1  H11B 7992   2.585   3.090   7.302  2.1030 -2.0244 -1.6712
   75CHL1    C9 7993   2.643   3.253   7.181  0.6845  0.0329  0.7127
   75CHL1    H9 7994   2.540   3.294   7.181  1.0342  0.9807 -0.7227
   75CHL1   C10 7995   2.645   3.182   7.037 -0.6727  0.1024 -0.3863
   75CHL1   C19 7996   2.773   3.101   7.020  0.5375  0.1644 -0.1322
   75CHL1  H19A 7997   2.811   3.063   7.118 -1.8012  2.4675  1.7965
   75CHL1  H19B 7998   2.759   3.013   6.953 -0.2633  1.6406 -1.9895
   75CHL1  H19C 7999   2.849   3.159   6.964 -2.2506  2.5929 -1.6239
   75CHL1    C1 8000   2.521   3.087   7.034  0.7251  0.0110 -0.0760
   75CHL1   H1A 8001   2.528   3.006   7.109 -0.6545  0.0335  0.0928
   75CHL1   H1B 8002   2.431   3.149   7.053  1.5883  0.7501  1.8723
   75CHL1    C2 8003   2.505   3.018   6.898  1.2067 -0.7274 -0.1248
   75CHL1   H2A 8004   2.411   2.959   6.892  1.1076 -0.6928  0.9246
   75CHL1   H2B 8005   2.581   2.941   6.871  1.3065 -0.8034  0.3579
   75CHL1   C20 8006   2.740   3.490   7.692  0.0888 -0.1508 -0.1426
   75CHL1   H20 8007   2.851   3.481   7.702  0.1439 -0.4251 -0.9279
   75CHL1   C21 8008   2.670   3.368   7.748 -0.1803 -0.0883 -0.5148
   75CHL1  H21A 8009   2.678   3.364   7.858 -1.9363 -2.2914 -0.3852
   75CHL1  H21B 8010   2.709   3.271   7.711  1.4703 -0.7375  2.6266
   75CHL1  H21C 8011   2.565   3.366   7.712 -0.2115 -3.1157 -0.4933
   75CHL1   C22 8012   2.709   3.618   7.772 -0.1083 -0.1244 -0.2802
   75CHL1  H22A 8013   2.757   3.702   7.719 -0.1468 -0.3344 -0.6484
   75CHL1  H22B 8014   2.600   3.633   7.788 -0.3142 -1.5570 -0.2037
   75CHL1   C23 8015   2.774   3.615   7.910  0.2066 -0.0765 -0.5399
   75CHL1  H23A 8016   2.735   3.531   7.972 -0.7959  2.0880  1.9807
   75CHL1  H23B 8017   2.884   3.599   7.905  0.1307 -2.6320  2.4086
   75CHL1   C24 8018   2.742   3.743   7.980 -0.0528  0.4178  0.3062
   75CHL1  H24A 8019   2.809   3.827   7.952  1.1318  0.3072  2.5462
   75CHL1  H24B 8020   2.638   3.768   7.951 -0.2355 -0.8982 -0.2360
   75CHL1   C25 8021   2.747   3.758   8.134 -1.3272  1.1803  0.3745
   75CHL1   H25 8022   2.853   3.759   8.167 -0.7757 -2.3084 -0.8599
   75CHL1   C26 8023   2.698   3.900   8.176 -0.2427  0.4809 -0.2972
   75CHL1  H26A 8024   2.751   3.980   8.120 -3.3093  1.3591 -2.2009
   75CHL1  H26B 8025   2.589   3.900   8.155 -1.1087  0.0722  3.4954
   75CHL1  H26C 8026   2.717   3.903   8.285 -1.3891 -0.3239 -0.0560
   75CHL1   C27 8027   2.669   3.647   8.211  0.0088  0.4013 -1.1779
   75CHL1  H27A 8028   2.724   3.552   8.227 -3.2616 -1.4837 -0.1934
   75CHL1  H27B 8029   2.660   3.683   8.316 -2.9660 -2.5225 -0.2598
   75CHL1  H27C 8030   2.572   3.629   8.160 -0.9998 -0.1041  0.7757
   76CHL1    C3 8031   0.907   5.671   7.176  0.1440  0.4174  0.4105
   76CHL1    H3 8032   0.973   5.749   7.219 -1.6833  0.8022  2.7529
   76CHL1    O3 8033   0.912   5.675   7.036  0.2476  0.5970  0.2904
   76CHL1   H3' 8034   0.901   5.582   7.014  2.0396  0.7262 -1.3112
   76CHL1    C4 8035   0.971   5.532   7.214 -0.0643  0.2469 -0.3779
   76CHL1   H4A 8036   0.925   5.443   7.164  0.6756  0.1109 -0.8320
   76CHL1   H4B 8037   1.074   5.538   7.173  0.4167  1.8051  0.9711
   76CHL1    C5 8038   0.968   5.522   7.362 -0.2921  0.0850  0.1259
   76CHL1    C6 8039   1.089   5.519   7.424 -0.1824  0.0285 -0.4592
   76CHL1    H6 8040   1.181   5.512   7.365  0.5806 -0.2228  0.7325
   76CHL1    C7 8041   1.094   5.492   7.574 -0.5511  0.1598 -0.3940
   76CHL1   H7A 8042   1.172   5.415   7.587  1.1813  2.0703  1.5053
   76CHL1   H7B 8043   1.121   5.590   7.619  0.4529  0.5916 -1.8637
   76CHL1    C8 8044   0.961   5.440   7.636 -0.1824  0.1013 -0.3311
   76CHL1    H8 8045   0.956   5.333   7.606 -2.1671 -0.0378  0.3743
   76CHL1   C14 8046   0.975   5.450   7.792 -0.2074 -0.2435  0.0654
   76CHL1   H14 8047   0.993   5.559   7.804 -0.7795 -0.2653  1.2226
   76CHL1   C15 8048   1.090   5.375   7.862 -0.0929 -0.0984  0.2913
   76CHL1  H15A 8049   1.090   5.270   7.827 -0.0851 -0.4434  1.3010
   76CHL1  H15B 8050   1.188   5.423   7.841 -0.9350  1.9299  0.7122
   76CHL1   C16 8051   1.050   5.386   8.006 -0.3152  0.7250 -0.3447
   76CHL1  H16A 8052   1.047   5.283   8.048  0.2571  0.5388 -0.7442
   76CHL1  H16B 8053   1.109   5.468   8.053 -0.5789  0.9402 -0.3852
   76CHL1   C17 8054   0.897   5.441   8.015 -0.4751  0.1378 -0.2377
   76CHL1   H17 8055   0.914   5.550   8.030  0.8163  0.1427 -1.5811
   76CHL1   C13 8056   0.847   5.421   7.869  0.1339 -0.9323 -0.3058
   76CHL1   C18 8057   0.793   5.281   7.862 -0.1875  1.2540  0.6218
   76CHL1  H18A 8058   0.688   5.292   7.896 -0.5626  0.4682 -0.2556
   76CHL1  H18B 8059   0.802   5.246   7.757  2.3036  1.0257  0.8382
   76CHL1  H18C 8060   0.850   5.203   7.918 -1.2496 -2.6000 -3.1576
   76CHL1   C12 8061   0.741   5.520   7.826 -0.3995 -0.0173  0.1394
   76CHL1  H12A 8062   0.641   5.508   7.873 -1.2649 -1.4336 -1.9069
   76CHL1  H12B 8063   0.768   5.623   7.857 -0.1504  0.7499 -2.3886
   76CHL1   C11 8064   0.713   5.516   7.670 -0.5998 -0.6222  0.4823
   76CHL1  H11A 8065   0.676   5.415   7.642 -2.8779  0.0479  0.9024
   76CHL1  H11B 8066   0.642   5.594   7.639 -0.8480 -1.5759 -1.4738
   76CHL1    C9 8067   0.848   5.524   7.589 -0.4563 -0.1090 -0.1046
   76CHL1    H9 8068   0.878   5.626   7.621  1.2523 -1.0002  1.3072
   76CHL1   C10 8069   0.834   5.523   7.431 -0.0843  0.0836  0.2897
   76CHL1   C19 8070   0.756   5.392   7.386 -0.2495 -1.0895 -0.3734
   76CHL1  H19A 8071   0.796   5.301   7.437  2.4511 -0.1328 -0.6080
   76CHL1  H19B 8072   0.647   5.403   7.402 -0.2406 -1.6840  0.1546
   76CHL1  H19C 8073   0.779   5.362   7.281  0.0421 -2.7210  0.1299
   76CHL1    C1 8074   0.766   5.660   7.384 -0.1859  0.3509 -0.3679
   76CHL1   H1A 8075   0.668   5.670   7.436  1.4744  0.7424  2.9297
   76CHL1   H1B 8076   0.822   5.747   7.424 -2.1334  2.2587 -1.5974
   76CHL1    C2 8077   0.767   5.681   7.231 -0.0643  0.2849 -0.3235
   76CHL1   H2A 8078   0.718   5.776   7.202 -0.0561 -0.4515 -2.9839
   76CHL1   H2B 8079   0.701   5.603   7.188  0.6218  0.8826 -2.6159
   76CHL1   C20 8080   0.824   5.378   8.137  0.4874 -0.1978  0.2693
   76CHL1   H20 8081   0.771   5.282   8.122  1.1625 -0.9068  2.0890
   76CHL1   C21 8082   0.695   5.461   8.153  0.3397 -0.2274 -0.1442
   76CHL1  H21A 8083   0.724   5.569   8.159  3.6488 -0.8775 -1.9322
   76CHL1  H21B 8084   0.633   5.424   8.238  0.0416  0.9942  0.1926
   76CHL1  H21C 8085   0.635   5.443   8.062 -1.0341 -0.3561  0.7621
   76CHL1   C22 8086   0.904   5.373   8.269  0.7550 -0.1458 -0.7654
   76CHL1  H22A 8087   1.002   5.321   8.258  0.3254 -0.8006 -1.6074
   76CHL1  H22B 8088   0.916   5.471   8.319 -2.5907 -0.2571  0.5179
   76CHL1   C23 8089   0.825   5.284   8.366 -0.3062  0.3327 -0.0069
   76CHL1  H23A 8090   0.721   5.321   8.376  0.1281  1.2141  1.4878
   76CHL1  H23B 8091   0.833   5.178   8.331  1.6465  0.4086  0.0504
   76CHL1   C24 8092   0.896   5.283   8.505  0.1282 -0.4333 -0.0128
   76CHL1  H24A 8093   0.985   5.217   8.501  0.7450  0.3754  0.0525
   76CHL1  H24B 8094   0.941   5.382   8.528 -0.9042 -0.0382  0.3758
   76CHL1   C25 8095   0.816   5.234   8.631 -0.6576  0.2621  0.6140
   76CHL1   H25 8096   0.898   5.230   8.706 -0.6791 -0.3886  0.6064
   76CHL1   C26 8097   0.717   5.343   8.680 -0.2693  0.3413 -0.1015
   76CHL1  H26A 8098   0.651   5.380   8.599 -0.3647 -1.3186 -0.8430
   76CHL1  H26B 8099   0.646   5.297   8.752  1.1217 -0.4438  0.8237
   76CHL1  H26C 8100   0.760   5.432   8.729 -0.2493 -0.2087  0.9040
   76CHL1   C27 8101   0.757   5.093   8.608  0.7368 -0.1169  0.5993
   76CHL1  H27A 8102   0.708   5.099   8.509  2.3683  0.2149 -0.2206
   76CHL1  H27B 8103   0.841   5.020   8.608  4.1965  3.5173  0.2783
   76CHL1  H27C 8104   0.682   5.070   8.686  0.6323 -0.1670  0.4844
   77CHL1    C3 8105   0.122   3.259   6.842 -0.4919 -0.2923  0.0576
   77CHL1    H3 8106   0.222   3.303   6.821 -0.9616  0.5899 -0.3666
   77CHL1    O3 8107   0.044   3.245   6.720 -0.1946  0.2290 -0.5088
   77CHL1   H3' 8108   0.099   3.197   6.659 -0.9844 -2.5823  0.8374
   77CHL1    C4 8109   0.131   3.123   6.917 -0.4194  0.5059 -0.1010
   77CHL1   H4A 8110   0.025   3.093   6.925 -1.0043  1.0411 -3.8761
   77CHL1   H4B 8111   0.168   3.050   6.842 -1.4583  0.7886 -0.9211
   77CHL1    C5 8112   0.184   3.121   7.055  0.3590 -0.6088 -0.2209
   77CHL1    C6 8113   0.291   3.054   7.090 -0.4992  0.0495  0.5965
   77CHL1    H6 8114   0.337   2.992   7.011  0.0525 -0.9825  1.6981
   77CHL1    C7 8115   0.349   3.042   7.232 -0.1383  0.4038  0.7544
   77CHL1   H7A 8116   0.364   2.936   7.261 -3.1773 -0.5663 -0.7800
   77CHL1   H7B 8117   0.447   3.094   7.240 -0.9388  2.1478 -0.3449
   77CHL1    C8 8118   0.247   3.106   7.333  0.2399 -0.7298 -0.0502
   77CHL1    H8 8119   0.178   3.020   7.348  2.3131 -2.0667  2.9674
   77CHL1   C14 8120   0.319   3.135   7.460 -0.0543  0.1911 -0.8247
   77CHL1   H14 8121   0.392   3.215   7.432  0.5247  0.3809  1.1168
   77CHL1   C15 8122   0.404   3.020   7.529 -0.0577  0.5017  0.2199
   77CHL1  H15A 8123   0.357   2.920   7.535  0.9946 -0.4345 -3.7663
   77CHL1  H15B 8124   0.496   3.014   7.467 -1.7993 -0.7565 -2.4361
   77CHL1   C16 8125   0.444   3.076   7.664  0.1486  0.0764 -0.3866
   77CHL1  H16A 8126   0.413   2.997   7.735 -0.9486  1.0934  0.2993
   77CHL1  H16B 8127   0.547   3.111   7.683  0.6701 -0.9978 -1.1657
   77CHL1   C17 8128   0.355   3.198   7.691  0.0230  0.4926  0.3373
   77CHL1   H17 8129   0.418   3.284   7.660  2.5197 -1.6856 -1.0393
   77CHL1   C13 8130   0.241   3.198   7.576 -0.0137 -0.3407  0.0730
   77CHL1   C18 8131   0.128   3.101   7.609 -0.6581 -0.6862 -0.1280
   77CHL1  H18A 8132   0.066   3.086   7.518 -0.5912  2.3844 -0.7739
   77CHL1  H18B 8133   0.175   3.008   7.646  4.3426  2.3885  2.2892
   77CHL1  H18C 8134   0.059   3.150   7.681  1.2472 -0.1910  1.4446
   77CHL1   C12 8135   0.191   3.331   7.527 -0.5269  0.1976 -0.2040
   77CHL1  H12A 8136   0.144   3.381   7.614  0.6056  0.6107  0.1737
   77CHL1  H12B 8137   0.272   3.404   7.510  1.5028 -1.8415  0.2377
   77CHL1   C11 8138   0.106   3.321   7.400 -0.4919 -0.4803  0.2610
   77CHL1  H11A 8139   0.009   3.271   7.421 -0.5510  0.3700  2.1648
   77CHL1  H11B 8140   0.076   3.425   7.373  1.3970  0.8011  2.7248
   77CHL1    C9 8141   0.174   3.237   7.288 -0.3334 -0.3564  0.6187
   77CHL1    H9 8142   0.258   3.305   7.264 -0.4265  0.2297  1.8817
   77CHL1   C10 8143   0.105   3.224   7.147  0.8508  0.0573  0.1365
   77CHL1   C19 8144  -0.039   3.159   7.169 -0.0135 -0.2953  0.1168
   77CHL1  H19A 8145  -0.085   3.146   7.069 -0.7081  1.2684  0.2042
   77CHL1  H19B 8146  -0.023   3.061   7.220  0.4221  0.2860  1.1358
   77CHL1  H19C 8147  -0.101   3.228   7.230  1.6785  1.1077  0.3354
   77CHL1    C1 8148   0.088   3.361   7.074 -0.0650 -0.0635 -0.1026
   77CHL1   H1A 8149   0.018   3.417   7.140 -1.0255 -0.9759 -0.3140
   77CHL1   H1B 8150   0.189   3.407   7.069  0.9083 -1.8572  1.7303
   77CHL1    C2 8151   0.037   3.346   6.935 -0.1758 -0.0936  0.2315
   77CHL1   H2A 8152   0.033   3.450   6.896 -0.8295  0.0964  0.8019
   77CHL1   H2B 8153  -0.064   3.301   6.932 -0.0542 -0.4770  1.3796
   77CHL1   C20 8154   0.308   3.215   7.838  0.2201 -0.5650  0.1562
   77CHL1   H20 8155   0.245   3.125   7.853  0.5011 -0.5199  1.8224
   77CHL1   C21 8156   0.225   3.340   7.864  0.3548 -0.3608  0.0761
   77CHL1  H21A 8157   0.293   3.424   7.838  2.6182 -1.9940  0.4901
   77CHL1  H21B 8158   0.197   3.359   7.970  1.4067 -0.2556  0.3408
   77CHL1  H21C 8159   0.135   3.345   7.798 -0.4289 -2.4788  0.9069
   77CHL1   C22 8160   0.410   3.204   7.954  0.3304  1.4372 -0.1679
   77CHL1  H22A 8161   0.349   3.209   8.046 -2.2309 -1.9708 -1.4813
   77CHL1  H22B 8162   0.455   3.103   7.946 -1.0166  0.8325 -0.3761
   77CHL1   C23 8163   0.528   3.304   7.964  0.1367 -0.2313 -0.2091
   77CHL1  H23A 8164   0.592   3.300   7.872  0.8339 -1.9073  0.3047
   77CHL1  H23B 8165   0.478   3.402   7.976 -0.2555 -0.4609  0.0299
   77CHL1   C24 8166   0.621   3.274   8.080 -0.5478  0.1315 -0.8760
   77CHL1  H24A 8167   0.561   3.222   8.158  0.9495  1.8559  1.5591
   77CHL1  H24B 8168   0.695   3.199   8.043  1.4995  1.0109  1.1306
   77CHL1   C25 8169   0.702   3.385   8.145 -0.3020  0.0150  0.7310
   77CHL1   H25 8170   0.768   3.333   8.218  0.2385  0.5658  0.6395
   77CHL1   C26 8171   0.787   3.464   8.042 -0.1846 -0.2473  0.6297
   77CHL1  H26A 8172   0.875   3.400   8.016 -0.4467 -0.0895 -0.6955
   77CHL1  H26B 8173   0.745   3.497   7.946 -1.0365  0.2557  1.1666
   77CHL1  H26C 8174   0.830   3.553   8.092 -1.7807  1.0681 -0.2575
   77CHL1   C27 8175   0.621   3.483   8.233 -0.1659 -0.3858 -0.1985
   77CHL1  H27A 8176   0.549   3.429   8.299  0.5252  0.0218  0.9262
   77CHL1  H27B 8177   0.690   3.554   8.284 -0.8030  0.0092  0.1188
   77CHL1  H27C 8178   0.554   3.528   8.157 -0.1180  0.3617  0.1897
   78CHL1    C3 8179   3.021   6.307   6.869 -0.5355  0.4179  0.2024
   78CHL1    H3 8180   3.017   6.407   6.919  0.6100  0.2411  0.6863
   78CHL1    O3 8181   3.048   6.341   6.736 -0.5681 -0.2312  0.1031
   78CHL1   H3' 8182   2.974   6.397   6.712 -1.1110 -0.2548  1.6085
   78CHL1    C4 8183   3.132   6.213   6.922  0.3935  0.0713  0.2285
   78CHL1   H4A 8184   3.135   6.113   6.874  2.2291 -0.1627  0.7294
   78CHL1   H4B 8185   3.232   6.260   6.909  1.1881 -1.3127  1.1119
   78CHL1    C5 8186   3.104   6.196   7.072 -0.1961  0.2306  1.0954
   78CHL1    C6 8187   3.185   6.237   7.171 -0.1355 -0.2942  0.2803
   78CHL1    H6 8188   3.281   6.283   7.144  0.2218 -1.1663  0.0191
   78CHL1    C7 8189   3.172   6.213   7.320  0.6975  0.4042  0.4336
   78CHL1   H7A 8190   3.260   6.181   7.380 -0.0804 -1.4796  0.6386
   78CHL1   H7B 8191   3.143   6.312   7.361  1.2529  0.4234  0.7824
   78CHL1    C8 8192   3.052   6.112   7.351 -0.4160  0.4226  0.2460
   78CHL1    H8 8193   3.093   6.010   7.333  3.0841  1.9685 -1.7531
   78CHL1   C14 8194   3.005   6.146   7.490 -0.2079 -0.3607 -0.5309
   78CHL1   H14 8195   2.982   6.255   7.487 -2.1663 -0.7065 -0.0075
   78CHL1   C15 8196   3.113   6.132   7.598 -0.2111  0.2352  0.3079
   78CHL1  H15A 8197   3.176   6.045   7.570 -0.0910  1.1213 -2.5755
   78CHL1  H15B 8198   3.180   6.221   7.598 -2.4338  2.0228 -1.3068
   78CHL1   C16 8199   3.028   6.122   7.726 -1.0726  0.4973  0.1289
   78CHL1  H16A 8200   3.054   6.027   7.777 -0.3835  0.5165 -0.1723
   78CHL1  H16B 8201   3.049   6.201   7.801  0.0419 -1.7124  2.2863
   78CHL1   C17 8202   2.879   6.120   7.686 -0.4545 -0.4355 -0.2531
   78CHL1   H17 8203   2.864   6.230   7.675 -0.0960 -0.2729  0.7489
   78CHL1   C13 8204   2.888   6.068   7.546 -0.0947 -0.1296  0.6886
   78CHL1   C18 8205   2.924   5.916   7.549 -0.2198 -0.0938 -0.4090
   78CHL1  H18A 8206   2.942   5.882   7.445  3.3864  0.3976 -0.0617
   78CHL1  H18B 8207   3.014   5.894   7.611  1.2765  0.1612 -2.3844
   78CHL1  H18C 8208   2.839   5.860   7.593  1.2564 -1.5081  0.7889
   78CHL1   C12 8209   2.766   6.101   7.456 -0.1913 -0.1958  0.1291
   78CHL1  H12A 8210   2.676   6.045   7.489  0.4403 -0.8496  0.7834
   78CHL1  H12B 8211   2.744   6.210   7.461 -2.0097 -0.5721  1.1056
   78CHL1   C11 8212   2.798   6.070   7.304  0.2029  0.2811 -0.6491
   78CHL1  H11A 8213   2.808   5.963   7.277 -1.4931 -0.0090 -0.2352
   78CHL1  H11B 8214   2.715   6.119   7.248  1.6589  3.4809 -0.2609
   78CHL1    C9 8215   2.929   6.144   7.262 -0.0938  0.1716  0.5509
   78CHL1    H9 8216   2.893   6.244   7.295 -1.4769 -0.4073  0.8574
   78CHL1   C10 8217   2.965   6.132   7.103  0.2650  0.2425  0.4441
   78CHL1   C19 8218   2.972   5.981   7.071 -0.0349 -0.0816  0.3088
   78CHL1  H19A 8219   3.019   5.951   6.975 -0.9325  1.7640 -0.7538
   78CHL1  H19B 8220   3.024   5.934   7.157  1.3952  0.6383 -0.1275
   78CHL1  H19C 8221   2.871   5.940   7.054 -0.4987  0.2204  2.1670
   78CHL1    C1 8222   2.854   6.190   7.008  0.1615  0.4663 -0.6009
   78CHL1   H1A 8223   2.774   6.114   6.999 -1.1281  1.3887  1.9627
   78CHL1   H1B 8224   2.814   6.276   7.066  0.4937 -0.6336  1.3543
   78CHL1    C2 8225   2.892   6.229   6.870  0.3222  0.4118 -0.7375
   78CHL1   H2A 8226   2.805   6.279   6.822 -2.8271 -2.2083  1.8192
   78CHL1   H2B 8227   2.897   6.132   6.816  0.1689 -0.3247  0.5308
   78CHL1   C20 8228   2.773   6.056   7.783  0.1187 -0.3757  0.7505
   78CHL1   H20 8229   2.740   5.960   7.740  1.1006 -0.0793 -0.7446
   78CHL1   C21 8230   2.654   6.157   7.788 -0.4316  0.1265  0.9250
   78CHL1  H21A 8231   2.570   6.105   7.840  0.2568 -1.1887  0.7468
   78CHL1  H21B 8232   2.609   6.197   7.695  0.6947 -0.2577  0.1978
   78CHL1  H21C 8233   2.683   6.251   7.839  2.2575 -0.5824  0.8398
   78CHL1   C22 8234   2.827   6.026   7.927 -0.3909  0.1223  0.6591
   78CHL1  H22A 8235   2.917   5.961   7.924  1.9368  3.1403 -0.6533
   78CHL1  H22B 8236   2.861   6.122   7.973 -0.8570  1.5878 -1.8514
   78CHL1   C23 8237   2.724   5.969   8.024 -0.2651 -0.2708  0.5716
   78CHL1  H23A 8238   2.636   6.030   8.056  0.4408  0.8298  0.4652
   78CHL1  H23B 8239   2.684   5.875   7.981  1.4286 -0.5642 -0.4605
   78CHL1   C24 8240   2.800   5.928   8.152 -0.6112  0.3568  0.0957
   78CHL1  H24A 8241   2.874   5.846   8.142 -1.6144 -0.5843  0.2749
   78CHL1  H24B 8242   2.855   6.012   8.200 -1.4497  0.2584  1.2631
   78CHL1   C25 8243   2.712   5.873   8.270 -0.8685 -0.2585  0.1363
   78CHL1   H25 8244   2.619   5.934   8.267 -0.7366 -0.0922 -0.8309
   78CHL1   C26 8245   2.677   5.728   8.247 -0.2051 -0.6210  0.5634
   78CHL1  H26A 8246   2.630   5.716   8.147 -0.0033 -1.6179  0.5751
   78CHL1  H26B 8247   2.769   5.666   8.257  0.7757  0.6538 -0.2741
   78CHL1  H26C 8248   2.608   5.700   8.329 -1.4607 -1.6761 -0.8106
   78CHL1   C27 8249   2.776   5.888   8.412 -0.5162 -0.0798 -0.9772
   78CHL1  H27A 8250   2.706   5.870   8.497  0.4099 -1.4128 -0.4515
   78CHL1  H27B 8251   2.856   5.811   8.420 -0.9838 -0.4336  1.0498
   78CHL1  H27C 8252   2.805   5.992   8.437 -2.0400  0.2794 -0.6242
   79CHL1    C3 8253   1.643   4.701   7.173 -0.3498  0.6207 -0.0788
   79CHL1    H3 8254   1.730   4.639   7.202 -1.4114 -0.5781  0.6483
   79CHL1    O3 8255   1.654   4.738   7.036 -0.4638 -0.1697 -0.9185
   79CHL1   H3' 8256   1.567   4.777   7.028 -0.2259  1.0986  1.6921
   79CHL1    C4 8257   1.516   4.617   7.186 -0.1397  0.4744 -0.4986
   79CHL1   H4A 8258   1.430   4.680   7.155 -0.0443  0.0225 -1.7341
   79CHL1   H4B 8259   1.526   4.526   7.123  0.3956  0.8911 -1.0285
   79CHL1    C5 8260   1.492   4.573   7.332  0.4379 -0.7441 -0.4366
   79CHL1    C6 8261   1.480   4.448   7.360 -0.2310  0.1639 -0.8405
   79CHL1    H6 8262   1.472   4.382   7.273 -2.9903 -0.0522 -0.4903
   79CHL1    C7 8263   1.458   4.397   7.500  0.4642 -0.4037  0.1533
   79CHL1   H7A 8264   1.374   4.326   7.506 -0.9294  1.1326 -0.4042
   79CHL1   H7B 8265   1.549   4.348   7.541  0.2393 -0.8099  0.1640
   79CHL1    C8 8266   1.419   4.511   7.602  0.2380  0.5621  0.5194
   79CHL1    H8 8267   1.319   4.545   7.567  1.1856  2.0883 -0.8692
   79CHL1   C14 8268   1.430   4.459   7.745  0.3472  0.0072  0.4264
   79CHL1   H14 8269   1.537   4.444   7.772  0.6431  0.5953 -0.3985
   79CHL1   C15 8270   1.360   4.325   7.774 -0.2196 -0.7728  0.1177
   79CHL1  H15A 8271   1.267   4.326   7.713  1.9132 -0.9461 -3.4205
   79CHL1  H15B 8272   1.420   4.236   7.744 -0.9654 -1.6393  1.1086
   79CHL1   C16 8273   1.334   4.334   7.924 -0.2548  0.3770 -0.7048
   79CHL1  H16A 8274   1.228   4.313   7.950  0.3728 -0.5588  1.3216
   79CHL1  H16B 8275   1.401   4.261   7.975 -2.8168 -0.4495  1.7192
   79CHL1   C17 8276   1.390   4.477   7.969  0.2544  0.1375 -0.2552
   79CHL1   H17 8277   1.492   4.461   8.009 -0.3630 -4.1654  0.0575
   79CHL1   C13 8278   1.395   4.570   7.841 -0.2346 -0.4352 -0.4162
   79CHL1   C18 8279   1.255   4.626   7.814  0.3345 -0.3792  0.2973
   79CHL1  H18A 8280   1.234   4.716   7.876  1.2196  0.0305  0.0044
   79CHL1  H18B 8281   1.243   4.672   7.714 -1.8310 -1.3654  0.0353
   79CHL1  H18C 8282   1.170   4.555   7.825 -0.7425  1.1289  2.5282
   79CHL1   C12 8283   1.497   4.687   7.833 -0.1128  0.3031 -0.4604
   79CHL1  H12A 8284   1.453   4.767   7.897 -2.4139 -1.3927  0.2382
   79CHL1  H12B 8285   1.599   4.657   7.866  0.0254 -0.2448 -1.3384
   79CHL1   C11 8286   1.499   4.747   7.687  0.5008  0.2635 -0.5880
   79CHL1  H11A 8287   1.406   4.804   7.669 -0.3785 -0.5493  1.1130
   79CHL1  H11B 8288   1.582   4.819   7.673  0.6136  0.3035  0.2837
   79CHL1    C9 8289   1.512   4.636   7.580 -0.4384 -0.3865  0.0103
   79CHL1    H9 8290   1.613   4.596   7.604 -1.0413 -1.5516  0.7104
   79CHL1   C10 8291   1.507   4.684   7.437  0.4736 -0.6763 -0.5933
   79CHL1   C19 8292   1.375   4.759   7.407 -0.1911 -0.8740  0.3310
   79CHL1  H19A 8293   1.371   4.813   7.310  2.1801  0.3143  0.8155
   79CHL1  H19B 8294   1.282   4.702   7.428 -0.4102 -0.1180  1.5457
   79CHL1  H19C 8295   1.368   4.844   7.479 -0.3148  0.1118 -0.8245
   79CHL1    C1 8296   1.632   4.768   7.407  0.6732  0.6114  0.6704
   79CHL1   H1A 8297   1.652   4.851   7.479  3.6320 -0.0137  0.7031
   79CHL1   H1B 8298   1.729   4.714   7.413  0.3832 -0.4550 -2.6180
   79CHL1    C2 8299   1.638   4.824   7.266  0.1753 -0.2992  0.4029
   79CHL1   H2A 8300   1.731   4.883   7.253  0.9463 -1.3291  1.0470
   79CHL1   H2B 8301   1.552   4.884   7.229  2.2799  1.3585 -2.1277
   79CHL1   C20 8302   1.313   4.536   8.089 -0.1096 -0.7262  0.0351
   79CHL1   H20 8303   1.212   4.566   8.053 -0.3390  0.8075  1.8206
   79CHL1   C21 8304   1.386   4.663   8.123  0.0904 -0.1963  0.1746
   79CHL1  H21A 8305   1.349   4.744   8.057  2.0312  1.3839  0.9181
   79CHL1  H21B 8306   1.495   4.654   8.104  0.0113  0.9832 -0.9537
   79CHL1  H21C 8307   1.358   4.691   8.227  0.5703 -0.2944  0.3321
   79CHL1   C22 8308   1.310   4.447   8.212  0.7016 -0.3938  0.2391
   79CHL1  H22A 8309   1.250   4.501   8.289  1.3122 -0.8147  1.0266
   79CHL1  H22B 8310   1.250   4.356   8.191 -0.9779  0.8043 -0.4931
   79CHL1   C23 8311   1.446   4.408   8.253 -0.1467  0.3346 -0.8515
   79CHL1  H23A 8312   1.483   4.332   8.181  0.2751 -1.2542  0.9343
   79CHL1  H23B 8313   1.510   4.498   8.257  0.2412  0.0407 -0.1437
   79CHL1   C24 8314   1.444   4.363   8.401 -0.4580  0.3164  0.1484
   79CHL1  H24A 8315   1.365   4.420   8.454 -0.2392 -1.1239  2.1236
   79CHL1  H24B 8316   1.402   4.260   8.396 -2.7383  1.2363 -0.7975
   79CHL1   C25 8317   1.582   4.374   8.469 -0.1017  0.4807  0.6735
   79CHL1   H25 8318   1.625   4.475   8.455  0.7818 -0.1887 -2.1476
   79CHL1   C26 8319   1.574   4.341   8.619  0.3796  0.3792 -0.0811
   79CHL1  H26A 8320   1.518   4.247   8.635  0.5916  0.2859  0.1307
   79CHL1  H26B 8321   1.675   4.331   8.666 -0.0558  1.0841  1.0511
   79CHL1  H26C 8322   1.524   4.419   8.681 -1.3383 -1.3717  0.8375
   79CHL1   C27 8323   1.681   4.285   8.398  0.2862 -0.2837 -0.0060
   79CHL1  H27A 8324   1.655   4.177   8.387  2.1908 -0.8497  0.4783
   79CHL1  H27B 8325   1.706   4.311   8.293  1.0179 -1.3129 -0.1114
   79CHL1  H27C 8326   1.778   4.281   8.453  0.0345  1.8578  0.6560
   80CHL1    C3 8327   5.794   2.802   6.966  0.6572  0.4115  0.0278
   80CHL1    H3 8328   5.692   2.835   6.995  0.5870  1.0326 -0.8953
   80CHL1    O3 8329   5.781   2.796   6.826 -0.6591 -0.4296 -0.1492
   80CHL1   H3' 8330   5.858   2.749   6.792  0.7581  1.3308  0.4386
   80CHL1    C4 8331   5.897   2.905   7.010  0.5745 -0.3142  0.4541
   80CHL1   H4A 8332   5.995   2.875   6.966  0.4293  1.2381 -1.0388
   80CHL1   H4B 8333   5.869   3.000   6.959  1.8745 -2.2673 -4.4762
   80CHL1    C5 8334   5.898   2.908   7.162 -0.0492 -0.4599  0.7515
   80CHL1    C6 8335   5.864   3.021   7.230 -0.2752  0.5371  0.8454
   80CHL1    H6 8336   5.842   3.107   7.166  4.2984  0.2190 -1.5737
   80CHL1    C7 8337   5.849   3.029   7.384  0.1379  0.3435  0.9821
   80CHL1   H7A 8338   5.866   3.133   7.418 -1.3849  1.4163 -1.2774
   80CHL1   H7B 8339   5.743   3.001   7.402 -0.1910  0.2145 -0.9304
   80CHL1    C8 8340   5.933   2.919   7.448  0.3338 -0.0980 -0.5612
   80CHL1    H8 8341   6.042   2.945   7.448  0.4062 -0.1906  1.4859
   80CHL1   C14 8342   5.900   2.914   7.597  0.5858 -0.3895  0.1678
   80CHL1   H14 8343   5.791   2.891   7.596 -0.2157  2.8378 -0.4036
   80CHL1   C15 8344   5.917   3.040   7.675  0.0549 -0.3715  0.6757
   80CHL1  H15A 8345   6.007   3.097   7.643  0.3366 -1.2294 -0.1012
   80CHL1  H15B 8346   5.827   3.105   7.669  1.6874  1.8854 -0.2725
   80CHL1   C16 8347   5.923   2.989   7.823  0.0984 -0.0110 -0.0410
   80CHL1  H16A 8348   6.018   3.014   7.875 -0.0333  1.0992 -0.3079
   80CHL1  H16B 8349   5.849   3.037   7.890  0.2282  0.0284  0.0758
   80CHL1   C17 8350   5.922   2.832   7.813  0.6060  0.6698 -0.1572
   80CHL1   H17 8351   5.815   2.803   7.811  0.8165 -0.1891  0.3350
   80CHL1   C13 8352   5.977   2.800   7.664 -0.2810 -0.3704  0.2277
   80CHL1   C18 8353   6.135   2.827   7.663 -0.3585 -0.3354 -0.5267
   80CHL1  H18A 8354   6.178   2.832   7.560  0.6085  3.8747 -0.0900
   80CHL1  H18B 8355   6.151   2.929   7.705 -2.7101 -0.1995  0.2309
   80CHL1  H18C 8356   6.187   2.751   7.723 -0.4787 -0.8796 -1.0968
   80CHL1   C12 8357   5.939   2.663   7.604 -0.8084 -0.2016  0.6189
   80CHL1  H12A 8358   6.015   2.599   7.653 -1.2981  0.0811  1.7737
   80CHL1  H12B 8359   5.837   2.632   7.635 -0.7460 -0.8842  0.1608
   80CHL1   C11 8360   5.964   2.667   7.453 -0.2244  0.0911  1.0207
   80CHL1  H11A 8361   6.074   2.657   7.438 -0.4602  0.4599 -1.3423
   80CHL1  H11B 8362   5.928   2.568   7.417 -0.2843 -0.5263  2.6963
   80CHL1    C9 8363   5.907   2.785   7.380  0.3501 -0.0351 -0.4451
   80CHL1    H9 8364   5.796   2.786   7.389  0.5353  0.3711  3.4515
   80CHL1   C10 8365   5.931   2.777   7.226  0.1305 -0.0206  0.4306
   80CHL1   C19 8366   6.086   2.743   7.198 -0.0131 -0.1441  0.8064
   80CHL1  H19A 8367   6.105   2.745   7.088  2.5722 -2.1382  1.1170
   80CHL1  H19B 8368   6.150   2.816   7.252  0.1532  0.1705  0.1906
   80CHL1  H19C 8369   6.101   2.636   7.225 -1.0805 -1.2781 -2.6358
   80CHL1    C1 8370   5.839   2.672   7.167 -0.4531  0.1947  0.1643
   80CHL1   H1A 8371   5.879   2.573   7.197 -1.4398  0.3454  2.1109
   80CHL1   H1B 8372   5.735   2.677   7.206 -0.5637 -1.2688  0.1146
   80CHL1    C2 8373   5.827   2.663   7.013  0.7066 -0.7198 -1.0585
   80CHL1   H2A 8374   5.749   2.590   6.983  2.6438 -1.9765 -3.4588
   80CHL1   H2B 8375   5.916   2.623   6.959 -0.6148  0.0161 -3.9782
   80CHL1   C20 8376   5.989   2.744   7.922 -0.0419  0.2253  0.0389
   80CHL1   H20 8377   6.060   2.673   7.875  3.0716  1.9754  1.7497
   80CHL1   C21 8378   5.878   2.680   8.000  0.4743  0.2500 -0.2487
   80CHL1  H21A 8379   5.832   2.755   8.067 -0.9416 -2.1224  1.5956
   80CHL1  H21B 8380   5.916   2.592   8.056  1.9918  2.0358  1.6964
   80CHL1  H21C 8381   5.796   2.650   7.932  1.5354  0.4001 -1.6503
   80CHL1   C22 8382   6.080   2.820   8.019 -0.4423  0.1073 -0.6672
   80CHL1  H22A 8383   6.142   2.901   7.974  1.3244 -1.5263 -1.3380
   80CHL1  H22B 8384   6.023   2.884   8.090 -0.5879  1.4227 -1.9103
   80CHL1   C23 8385   6.177   2.730   8.095  0.4866  0.2952 -0.2225
   80CHL1  H23A 8386   6.137   2.635   8.137 -0.6766  0.7526 -0.2599
   80CHL1  H23B 8387   6.257   2.698   8.024  0.3813  0.2543 -0.3235
   80CHL1   C24 8388   6.247   2.806   8.210  0.2195 -0.5438 -0.6611
   80CHL1  H24A 8389   6.263   2.911   8.176 -1.0230 -0.3469 -0.6693
   80CHL1  H24B 8390   6.181   2.801   8.299  1.7078  1.7263  0.6715
   80CHL1   C25 8391   6.369   2.743   8.277  0.0258  0.8732  0.0971
   80CHL1   H25 8392   6.456   2.741   8.207  1.9651  0.5815  2.3869
   80CHL1   C26 8393   6.416   2.818   8.399 -0.1664  0.2481 -0.0130
   80CHL1  H26A 8394   6.503   2.767   8.446  0.6280  2.7075  1.3781
   80CHL1  H26B 8395   6.450   2.920   8.369 -0.7754  0.6094  0.4972
   80CHL1  H26C 8396   6.343   2.833   8.482  0.6477  0.6658  0.6451
   80CHL1   C27 8397   6.334   2.596   8.322  0.2054 -0.3170 -0.0548
   80CHL1  H27A 8398   6.418   2.548   8.377  0.1722 -0.0518  0.2307
   80CHL1  H27B 8399   6.256   2.606   8.400  1.5594 -0.1147  1.3297
   80CHL1  H27C 8400   6.297   2.534   8.238  2.5802  1.0253 -2.2608
   81CHL1    C3 8401   3.905   4.536   6.819 -0.2260  0.4697  0.4502
   81CHL1    H3 8402   3.953   4.636   6.827  1.1471  0.0784 -1.8338
   81CHL1    O3 8403   3.884   4.517   6.681 -0.1714  0.1209 -0.2766
   81CHL1   H3' 8404   3.827   4.440   6.681  2.0284 -1.6504  1.6310
   81CHL1    C4 8405   3.992   4.423   6.877  0.0192 -0.0097 -0.6464
   81CHL1   H4A 8406   3.946   4.325   6.851 -3.1254  1.2672 -0.2568
   81CHL1   H4B 8407   4.092   4.419   6.829  0.4561 -2.9622  0.2982
   81CHL1    C5 8408   4.001   4.424   7.029 -0.6561  0.1346 -0.3768
   81CHL1    C6 8409   4.117   4.442   7.100  0.9097  0.2553  0.3486
   81CHL1    H6 8410   4.214   4.445   7.047  0.4032  1.0872 -0.5705
   81CHL1    C7 8411   4.128   4.449   7.250 -0.0440  0.1243  0.0287
   81CHL1   H7A 8412   4.217   4.390   7.282 -0.4318 -1.2694 -1.3893
   81CHL1   H7B 8413   4.131   4.553   7.289  1.8721  0.0357  0.2030
   81CHL1    C8 8414   4.002   4.387   7.321 -0.2425  0.3052 -0.2622
   81CHL1    H8 8415   4.010   4.277   7.306  0.9652  0.3686 -0.1713
   81CHL1   C14 8416   3.998   4.419   7.471 -0.7709  0.2162 -0.3243
   81CHL1   H14 8417   3.993   4.529   7.484  0.6121  0.0363  2.2970
   81CHL1   C15 8418   4.121   4.357   7.553  0.0405 -0.4963  0.2494
   81CHL1  H15A 8419   4.161   4.265   7.507 -1.7933 -1.2223  0.0219
   81CHL1  H15B 8420   4.199   4.436   7.547  0.8378 -1.2966  0.0148
   81CHL1   C16 8421   4.070   4.346   7.698 -0.0357 -0.3655 -0.9591
   81CHL1  H16A 8422   4.068   4.241   7.735  1.8261  0.2298  1.0471
   81CHL1  H16B 8423   4.124   4.405   7.775 -0.2456  0.6329 -1.5697
   81CHL1   C17 8424   3.921   4.404   7.700 -0.3540  0.0127  0.1937
   81CHL1   H17 8425   3.936   4.514   7.700 -0.0443  0.0004 -1.8871
   81CHL1   C13 8426   3.874   4.371   7.554 -0.6892 -0.4537  0.8694
   81CHL1   C18 8427   3.860   4.215   7.549  0.3985 -0.4635  0.6196
   81CHL1  H18A 8428   3.841   4.173   7.448 -4.4322  0.6855  0.8351
   81CHL1  H18B 8429   3.933   4.146   7.597 -0.7682 -1.6094  0.7947
   81CHL1  H18C 8430   3.768   4.186   7.604  0.3687 -1.2924  0.1459
   81CHL1   C12 8431   3.753   4.446   7.491  0.1692 -0.3343 -0.4306
   81CHL1  H12A 8432   3.659   4.421   7.544  0.5176  1.9570  1.4273
   81CHL1  H12B 8433   3.773   4.552   7.516 -2.1917 -0.2999  1.6685
   81CHL1   C11 8434   3.744   4.415   7.340  0.2341 -0.1243 -0.5984
   81CHL1  H11A 8435   3.723   4.306   7.336  0.0003 -0.2348  2.0711
   81CHL1  H11B 8436   3.671   4.489   7.301  1.5301  0.5024 -1.9309
   81CHL1    C9 8437   3.878   4.438   7.258  0.4622 -0.4052  0.1625
   81CHL1    H9 8438   3.892   4.548   7.254 -1.3896 -0.1399  0.0503
   81CHL1   C10 8439   3.865   4.413   7.106 -0.2473 -0.1611  0.6399
   81CHL1   C19 8440   3.814   4.272   7.093 -0.6573 -0.6098  1.0333
   81CHL1  H19A 8441   3.871   4.198   7.154 -0.1019 -0.6247  0.5077
   81CHL1  H19B 8442   3.711   4.272   7.134 -1.5154 -0.4532 -1.0097
   81CHL1  H19C 8443   3.803   4.241   6.987 -1.0195 -1.9718  1.4481
   81CHL1    C1 8444   3.765   4.519   7.035  0.0131  0.0996 -0.1870
   81CHL1   H1A 8445   3.665   4.484   7.067  0.3794  1.1061  2.3137
   81CHL1   H1B 8446   3.793   4.614   7.087  2.7079 -0.7676  0.1118
   81CHL1    C2 8447   3.771   4.538   6.886  0.4028 -0.1454  0.0862
   81CHL1   H2A 8448   3.710   4.627   6.858 -1.9733 -1.4321  0.9959
   81CHL1   H2B 8449   3.707   4.452   6.859 -1.6326 -0.0988  4.0896
   81CHL1   C20 8450   3.834   4.371   7.817  0.3810  0.0082  0.7791
   81CHL1   H20 8451   3.778   4.277   7.798  0.1036  0.4061 -0.4417
   81CHL1   C21 8452   3.732   4.486   7.832  0.1471  0.0283  0.5003
   81CHL1  H21A 8453   3.676   4.499   7.737  2.8820 -0.2420 -1.2479
   81CHL1  H21B 8454   3.784   4.580   7.859  1.5355 -0.9816  1.4894
   81CHL1  H21C 8455   3.654   4.459   7.906  0.7807  0.2839  1.2744
   81CHL1   C22 8456   3.910   4.365   7.952  0.2897 -0.0579  0.7131
   81CHL1  H22A 8457   3.986   4.284   7.944 -0.3918 -0.5748 -1.0067
   81CHL1  H22B 8458   3.948   4.469   7.964 -1.8623  0.7508  1.0399
   81CHL1   C23 8459   3.807   4.346   8.074 -0.8353 -0.4164 -0.4993
   81CHL1  H23A 8460   3.774   4.448   8.103 -2.4518 -0.6438 -1.4168
   81CHL1  H23B 8461   3.721   4.277   8.061  0.3635 -2.3048  0.9466
   81CHL1   C24 8462   3.880   4.281   8.191  0.0243  0.8864 -0.5503
   81CHL1  H24A 8463   3.876   4.172   8.169  0.8035  0.1029  2.7105
   81CHL1  H24B 8464   3.986   4.315   8.192  1.0904 -2.0855  0.1246
   81CHL1   C25 8465   3.821   4.292   8.334  0.0499 -0.6463 -0.4353
   81CHL1   H25 8466   3.729   4.230   8.337  1.0634 -2.2377  2.9725
   81CHL1   C26 8467   3.925   4.242   8.435 -0.1298  0.2656  0.2885
   81CHL1  H26A 8468   4.016   4.305   8.428  0.0281  0.0018 -0.0467
   81CHL1  H26B 8469   3.895   4.238   8.542 -0.4609  3.9143  0.4412
   81CHL1  H26C 8470   3.949   4.136   8.411 -1.8896 -0.4746  1.5749
   81CHL1   C27 8471   3.773   4.431   8.383 -0.0202 -0.0770  0.0289
   81CHL1  H27A 8472   3.862   4.497   8.384  1.2564 -1.7166 -0.7351
   81CHL1  H27B 8473   3.691   4.469   8.318 -1.0758 -2.2953 -0.0286
   81CHL1  H27C 8474   3.740   4.413   8.487 -1.9391  0.1703 -0.4860
   82CHL1    C3 8475   6.162   3.433   7.088 -0.1144 -0.0560  0.4291
   82CHL1    H3 8476   6.070   3.459   7.144 -0.1004 -1.4258  1.1241
   82CHL1    O3 8477   6.143   3.441   6.946  0.4357 -0.2116  0.6842
   82CHL1   H3' 8478   6.054   3.407   6.936  0.5959 -0.5778  0.5073
   82CHL1    C4 8479   6.282   3.522   7.140 -0.3500 -0.4804  0.0614
   82CHL1   H4A 8480   6.376   3.491   7.091 -0.9102  1.1201 -2.1433
   82CHL1   H4B 8481   6.258   3.622   7.099  0.4844 -0.4118 -0.2722
   82CHL1    C5 8482   6.298   3.508   7.284  0.0156 -0.1349  0.1430
   82CHL1    C6 8483   6.295   3.613   7.367  0.4070  0.1278 -0.0815
   82CHL1    H6 8484   6.275   3.713   7.325  0.0154  0.2875  0.4784
   82CHL1    C7 8485   6.298   3.599   7.519 -0.1874 -0.2937 -0.5178
   82CHL1   H7A 8486   6.358   3.681   7.563 -1.5765 -0.0586  1.0616
   82CHL1   H7B 8487   6.191   3.608   7.549 -0.2058  0.1786 -0.7195
   82CHL1    C8 8488   6.365   3.463   7.565 -0.3887  1.2506  0.0804
   82CHL1    H8 8489   6.475   3.465   7.553  0.0443 -2.5601  1.7932
   82CHL1   C14 8490   6.343   3.447   7.720 -0.0415 -0.2739 -0.5019
   82CHL1   H14 8491   6.234   3.433   7.735  0.2385  0.2832  2.5942
   82CHL1   C15 8492   6.394   3.561   7.818 -0.5807 -0.0625 -0.1642
   82CHL1  H15A 8493   6.496   3.587   7.782 -0.6665 -1.2425 -1.3311
   82CHL1  H15B 8494   6.326   3.648   7.821 -0.7248 -0.1867  0.4191
   82CHL1   C16 8495   6.411   3.489   7.955  0.3278  0.8284 -0.1613
   82CHL1  H16A 8496   6.511   3.516   7.995  2.2476 -2.2628 -2.3918
   82CHL1  H16B 8497   6.330   3.518   8.026  1.4421  0.8484  1.1365
   82CHL1   C17 8498   6.386   3.340   7.920  0.3742 -0.1508 -0.4282
   82CHL1   H17 8499   6.278   3.317   7.934  0.6018 -0.3357  1.1975
   82CHL1   C13 8500   6.412   3.320   7.770  0.3642 -0.3236  0.4148
   82CHL1   C18 8501   6.565   3.312   7.758  0.3590  0.1441 -0.2748
   82CHL1  H18A 8502   6.616   3.405   7.790 -1.9135  2.3119 -2.3971
   82CHL1  H18B 8503   6.611   3.226   7.811  1.5683 -0.1491 -1.7246
   82CHL1  H18C 8504   6.590   3.313   7.650  0.7951  3.3169 -0.2400
   82CHL1   C12 8505   6.342   3.199   7.712 -0.9499  0.0020  0.0001
   82CHL1  H12A 8506   6.369   3.100   7.756 -1.9543  0.4559  1.7218
   82CHL1  H12B 8507   6.232   3.207   7.727 -0.8505 -2.0754  2.6191
   82CHL1   C11 8508   6.341   3.206   7.553  0.3924 -0.1035 -0.5500
   82CHL1  H11A 8509   6.447   3.183   7.528  0.4319 -2.0760  1.1745
   82CHL1  H11B 8510   6.270   3.132   7.511  0.6148 -2.0366  2.2007
   82CHL1    C9 8511   6.306   3.345   7.490 -0.4472 -0.6365 -0.0754
   82CHL1    H9 8512   6.198   3.356   7.514 -0.6277 -0.2697 -0.9857
   82CHL1   C10 8513   6.312   3.362   7.339  1.2226  0.1198 -0.3040
   82CHL1   C19 8514   6.458   3.320   7.294  0.5890  0.0951  0.2534
   82CHL1  H19A 8515   6.519   3.404   7.335  0.0176  1.3177 -1.3010
   82CHL1  H19B 8516   6.485   3.218   7.329 -1.6186 -0.4066  0.6590
   82CHL1  H19C 8517   6.470   3.329   7.184 -0.8785  2.2322  0.1991
   82CHL1    C1 8518   6.206   3.265   7.275 -0.1777  0.4907  0.9072
   82CHL1   H1A 8519   6.213   3.155   7.289  0.5826 -0.2220 -3.5980
   82CHL1   H1B 8520   6.113   3.299   7.327 -1.4339 -1.5542  0.1256
   82CHL1    C2 8521   6.192   3.285   7.125  0.1545  0.0205 -0.2413
   82CHL1   H2A 8522   6.101   3.227   7.100 -1.8868  2.1570  1.7536
   82CHL1   H2B 8523   6.280   3.249   7.067 -0.2122 -1.4269  0.0575
   82CHL1   C20 8524   6.446   3.236   8.023  0.3724 -0.2934 -0.0268
   82CHL1   H20 8525   6.452   3.137   7.973 -2.7718 -0.7980  0.3893
   82CHL1   C21 8526   6.351   3.222   8.143 -0.6316  0.1259 -0.5254
   82CHL1  H21A 8527   6.247   3.192   8.118 -0.0895 -3.7908  1.1048
   82CHL1  H21B 8528   6.339   3.315   8.203  0.3115 -1.3819  2.1921
   82CHL1  H21C 8529   6.384   3.141   8.212  0.0929  2.8609  2.6001
   82CHL1   C22 8530   6.595   3.271   8.073  0.0037 -0.6338  0.0166
   82CHL1  H22A 8531   6.652   3.314   7.989  0.7422 -1.8844 -0.1533
   82CHL1  H22B 8532   6.592   3.352   8.149  0.0456 -3.1231  2.9035
   82CHL1   C23 8533   6.665   3.151   8.132 -0.2839  1.0677  0.2448
   82CHL1  H23A 8534   6.608   3.110   8.218  3.4426 -0.1919  2.3018
   82CHL1  H23B 8535   6.679   3.079   8.048  1.8017  3.3499 -1.5064
   82CHL1   C24 8536   6.813   3.186   8.163 -0.1728 -0.2501  0.1643
   82CHL1  H24A 8537   6.857   3.241   8.077  0.4001 -3.2783 -1.6323
   82CHL1  H24B 8538   6.811   3.252   8.252  1.5475  0.3746 -0.2168
   82CHL1   C25 8539   6.898   3.060   8.191 -0.2644  0.7642  0.4176
   82CHL1   H25 8540   6.924   3.025   8.088 -3.0835  0.4245 -0.2666
   82CHL1   C26 8541   7.032   3.089   8.268 -0.4406 -0.1771 -0.8585
   82CHL1  H26A 8542   7.082   3.182   8.234 -0.2759  0.7813  1.7551
   82CHL1  H26B 8543   7.027   3.097   8.379  2.2850  0.9034 -0.7448
   82CHL1  H26C 8544   7.103   3.005   8.249 -0.2102 -0.3261  0.5691
   82CHL1   C27 8545   6.823   2.954   8.267  0.1503  0.5372 -0.5943
   82CHL1  H27A 8546   6.796   2.977   8.372  1.1689 -0.3560 -0.1274
   82CHL1  H27B 8547   6.730   2.931   8.210 -0.1843  0.5422 -0.0563
   82CHL1  H27C 8548   6.876   2.857   8.265 -2.1589 -0.8518  0.8822
   83CHL1    C3 8549   2.394   4.031   6.924  0.7340 -0.5836 -0.0090
   83CHL1    H3 8550   2.505   4.040   6.921  0.6233  1.0676 -2.5024
   83CHL1    O3 8551   2.363   4.014   6.786  0.6031 -0.0123 -0.2773
   83CHL1   H3' 8552   2.268   4.012   6.776  0.4554  3.3743 -0.6035
   83CHL1    C4 8553   2.359   3.911   7.017  0.6833  0.4509 -0.2259
   83CHL1   H4A 8554   2.254   3.888   6.989  0.4037 -0.5656  1.5134
   83CHL1   H4B 8555   2.428   3.834   6.977  2.2804  1.3899  0.6389
   83CHL1    C5 8556   2.381   3.925   7.167  0.3275  0.0793  0.0150
   83CHL1    C6 8557   2.464   3.847   7.248 -0.7640 -0.4236  0.3955
   83CHL1    H6 8558   2.515   3.764   7.197  0.5516 -0.3396  1.4980
   83CHL1    C7 8559   2.476   3.860   7.399  0.4435 -0.7896 -0.2667
   83CHL1   H7A 8560   2.445   3.760   7.437 -1.6976 -0.8456 -1.9794
   83CHL1   H7B 8561   2.583   3.872   7.428  0.6150 -0.8995 -0.8510
   83CHL1    C8 8562   2.382   3.974   7.464  0.1005  0.2761 -0.2843
   83CHL1    H8 8563   2.285   3.925   7.487  0.6756  0.4247  2.8536
   83CHL1   C14 8564   2.445   4.015   7.599 -0.9573  0.2087  0.0693
   83CHL1   H14 8565   2.543   4.062   7.575 -0.2626  0.1344  2.5259
   83CHL1   C15 8566   2.480   3.911   7.709  0.0634 -0.0717  0.0732
   83CHL1  H15A 8567   2.407   3.827   7.705 -0.9498  0.7906  0.1336
   83CHL1  H15B 8568   2.576   3.865   7.680 -0.4302 -1.4246  0.4994
   83CHL1   C16 8569   2.476   3.995   7.840  0.1026 -0.5800 -0.4291
   83CHL1  H16A 8570   2.407   3.947   7.913 -0.3746 -0.6190 -0.9037
   83CHL1  H16B 8571   2.575   3.998   7.891  0.3054 -1.0615 -0.7822
   83CHL1   C17 8572   2.440   4.147   7.796 -0.4508  0.0977  1.2160
   83CHL1   H17 8573   2.537   4.197   7.774 -0.1550 -0.1822  1.8401
   83CHL1   C13 8574   2.365   4.123   7.665 -0.0761 -0.2118  0.2207
   83CHL1   C18 8575   2.227   4.077   7.716 -0.0506  1.0964  1.0710
   83CHL1  H18A 8576   2.228   4.022   7.813  0.2868 -1.9770 -0.5566
   83CHL1  H18B 8577   2.147   4.149   7.742 -1.8713  0.1745 -1.4741
   83CHL1  H18C 8578   2.187   4.007   7.639 -0.6358 -0.8370  3.0295
   83CHL1   C12 8579   2.355   4.240   7.567 -0.3281 -0.0699 -0.0783
   83CHL1  H12A 8580   2.303   4.329   7.609 -0.1982 -1.1823  2.7247
   83CHL1  H12B 8581   2.459   4.274   7.546  0.1978 -0.7763  1.2703
   83CHL1   C11 8582   2.293   4.203   7.432  0.1226  0.0428  0.1077
   83CHL1  H11A 8583   2.185   4.183   7.448 -0.7452  4.4807  1.3291
   83CHL1  H11B 8584   2.292   4.293   7.366 -0.5470 -0.8959 -1.1956
   83CHL1    C9 8585   2.369   4.091   7.364  0.0198  0.0777  0.2939
   83CHL1    H9 8586   2.469   4.133   7.341  0.4289 -1.8862 -1.8432
   83CHL1   C10 8587   2.317   4.056   7.219  0.3154 -0.2144  0.2601
   83CHL1   C19 8588   2.164   4.039   7.220  0.1022  0.5114 -0.0369
   83CHL1  H19A 8589   2.140   3.960   7.294  1.2563 -0.7977 -1.0146
   83CHL1  H19B 8590   2.107   4.130   7.247 -0.4797  0.9185 -2.4139
   83CHL1  H19C 8591   2.123   4.001   7.124  0.0820  0.2264  0.0828
   83CHL1    C1 8592   2.349   4.176   7.122  0.5634 -0.0213 -1.5228
   83CHL1   H1A 8593   2.297   4.265   7.162 -1.2493 -1.7065  0.0717
   83CHL1   H1B 8594   2.458   4.194   7.135  0.4477 -0.5333  0.4329
   83CHL1    C2 8595   2.310   4.154   6.976  0.1590  0.9871  0.1828
   83CHL1   H2A 8596   2.330   4.244   6.914 -1.9979  0.1389 -1.8586
   83CHL1   H2B 8597   2.204   4.130   6.957 -0.3551  2.0614  1.5324
   83CHL1   C20 8598   2.382   4.222   7.907  0.4120 -0.6948  0.0172
   83CHL1   H20 8599   2.291   4.170   7.945  0.1401 -0.1494  0.1248
   83CHL1   C21 8600   2.318   4.363   7.870 -0.6304 -0.0213 -0.2452
   83CHL1  H21A 8601   2.303   4.424   7.961  0.6467  1.9057 -1.2565
   83CHL1  H21B 8602   2.225   4.349   7.811 -0.4694  0.5803 -0.6515
   83CHL1  H21C 8603   2.396   4.411   7.806 -0.5721  2.1381  1.3400
   83CHL1   C22 8604   2.474   4.233   8.029 -0.6035  0.0705  0.1633
   83CHL1  H22A 8605   2.422   4.287   8.111  2.4222 -0.9493  2.9696
   83CHL1  H22B 8606   2.496   4.140   8.085  2.3348  0.0568 -0.8329
   83CHL1   C23 8607   2.613   4.300   8.004 -0.3951 -0.1616 -0.4709
   83CHL1  H23A 8608   2.683   4.216   7.984  0.4554  0.7495 -1.4170
   83CHL1  H23B 8609   2.613   4.365   7.914 -0.1914  0.1912 -0.2160
   83CHL1   C24 8610   2.668   4.398   8.120 -0.6900  0.2999 -0.5135
   83CHL1  H24A 8611   2.619   4.498   8.111 -0.9130  0.0631 -2.4010
   83CHL1  H24B 8612   2.640   4.361   8.221  1.6468 -1.5154 -0.4552
   83CHL1   C25 8613   2.823   4.401   8.127 -0.3649  1.0420 -0.3448
   83CHL1   H25 8614   2.861   4.297   8.117 -0.5102  0.7167  1.9530
   83CHL1   C26 8615   2.878   4.485   8.016  0.4280  0.2211  0.2694
   83CHL1  H26A 8616   2.985   4.507   8.037  0.5116  2.7035 -2.2073
   83CHL1  H26B 8617   2.879   4.429   7.920 -0.2450 -0.6416  0.7555
   83CHL1  H26C 8618   2.825   4.582   8.012 -1.5028 -0.8181 -2.7323
   83CHL1   C27 8619   2.864   4.452   8.267 -0.4277  0.3542 -0.5684
   83CHL1  H27A 8620   2.832   4.381   8.347 -0.4491  0.3002 -0.6240
   83CHL1  H27B 8621   2.974   4.442   8.258 -0.6088 -1.5239 -1.2159
   83CHL1  H27C 8622   2.841   4.558   8.287  3.1849  0.8805  1.6118
   84CHL1    C3 8623   3.755   0.630   6.835 -0.0779  0.3973 -0.4816
   84CHL1    H3 8624   3.705   0.717   6.883 -0.8071 -0.3087  0.0620
   84CHL1    O3 8625   3.712   0.627   6.700 -0.0457  0.8398  0.2165
   84CHL1   H3' 8626   3.777   0.578   6.649 -0.5569  1.8036 -1.4244
   84CHL1    C4 8627   3.905   0.640   6.850 -0.1825  0.2049  0.0120
   84CHL1   H4A 8628   3.963   0.552   6.813  0.6912  0.2612  1.1937
   84CHL1   H4B 8629   3.948   0.718   6.783  0.7209 -1.1408 -1.0506
   84CHL1    C5 8630   3.939   0.659   6.995  0.1708 -0.1813  0.7144
   84CHL1    C6 8631   4.013   0.767   7.030 -0.0226  0.4495 -0.3497
   84CHL1    H6 8632   4.052   0.839   6.957  0.7802  0.2472 -0.1361
   84CHL1    C7 8633   4.061   0.784   7.169 -0.8895  0.1308  0.4590
   84CHL1   H7A 8634   4.169   0.808   7.168 -0.9373  0.3289 -0.1689
   84CHL1   H7B 8635   4.009   0.870   7.217 -2.4226 -1.4904  1.8607
   84CHL1    C8 8636   4.036   0.661   7.268 -0.0815  0.5656 -0.5059
   84CHL1    H8 8637   4.112   0.581   7.259 -0.6007  0.0698 -0.5424
   84CHL1   C14 8638   4.045   0.701   7.424  0.3571 -0.3666  0.1000
   84CHL1   H14 8639   3.957   0.767   7.438  1.8279  1.5128  0.8887
   84CHL1   C15 8640   4.165   0.776   7.481 -0.1392  0.3202  0.3376
   84CHL1  H15A 8641   4.254   0.717   7.450 -0.0457  0.6855 -0.1070
   84CHL1  H15B 8642   4.163   0.883   7.448 -0.4870  0.3539  0.4654
   84CHL1   C16 8643   4.163   0.746   7.632  0.8619  0.4978  0.7236
   84CHL1  H16A 8644   4.254   0.689   7.663  0.5508  0.5999  1.8752
   84CHL1  H16B 8645   4.170   0.845   7.683  2.3763  1.1713 -0.6687
   84CHL1   C17 8646   4.036   0.662   7.656  0.5977 -0.0027  0.1053
   84CHL1   H17 8647   3.950   0.732   7.654  2.5428  2.5199  0.0519
   84CHL1   C13 8648   4.022   0.583   7.521  0.1481  0.3862 -0.2799
   84CHL1   C18 8649   4.134   0.473   7.497 -0.1598  0.9202 -0.4782
   84CHL1  H18A 8650   4.133   0.400   7.581  2.9969 -4.2304 -4.3301
   84CHL1  H18B 8651   4.121   0.406   7.409  2.0812 -0.6079  0.2565
   84CHL1  H18C 8652   4.233   0.521   7.494  0.1435  0.7558  2.8455
   84CHL1   C12 8653   3.881   0.535   7.482 -1.0813  0.0952 -0.4760
   84CHL1  H12A 8654   3.869   0.446   7.548 -1.1220 -1.2975 -2.2806
   84CHL1  H12B 8655   3.809   0.615   7.511 -0.3504  0.6421 -0.1386
   84CHL1   C11 8656   3.866   0.484   7.337 -0.0123 -0.3603 -0.2102
   84CHL1  H11A 8657   3.932   0.395   7.335 -0.7538 -0.9261 -0.1906
   84CHL1  H11B 8658   3.760   0.451   7.327 -1.2705  3.4406 -1.4502
   84CHL1    C9 8659   3.898   0.597   7.233 -0.3873  0.0190  0.0496
   84CHL1    H9 8660   3.823   0.677   7.249  0.0251  0.1255  1.6183
   84CHL1   C10 8661   3.886   0.551   7.087 -0.5708  0.0645 -0.5592
   84CHL1   C19 8662   3.989   0.437   7.060 -0.1287 -0.8129  0.1833
   84CHL1  H19A 8663   4.093   0.452   7.096  0.4025 -0.8155 -1.3075
   84CHL1  H19B 8664   3.954   0.351   7.121  0.0360 -0.7672  0.3421
   84CHL1  H19C 8665   3.994   0.416   6.952  3.4664  3.6519 -0.8175
   84CHL1    C1 8666   3.741   0.519   7.065 -0.5492  0.0125 -0.2997
   84CHL1   H1A 8667   3.719   0.423   7.116  0.5559  0.3480  0.8664
   84CHL1   H1B 8668   3.676   0.599   7.107 -0.4142 -0.2161  0.3639
   84CHL1    C2 8669   3.701   0.501   6.915 -0.2216 -0.4383 -0.0580
   84CHL1   H2A 8670   3.591   0.487   6.902 -0.1587 -0.0182 -1.0667
   84CHL1   H2B 8671   3.759   0.416   6.872  1.6178  0.3425  0.7665
   84CHL1   C20 8672   4.039   0.601   7.796 -0.2312 -0.0202  0.0682
   84CHL1   H20 8673   4.130   0.537   7.805 -1.0517 -1.3080 -0.4410
   84CHL1   C21 8674   3.924   0.510   7.835  0.6150  0.3931 -0.5993
   84CHL1  H21A 8675   3.842   0.572   7.879  0.0649 -0.3671 -0.5184
   84CHL1  H21B 8676   3.959   0.459   7.927 -0.7391  0.3375 -0.0938
   84CHL1  H21C 8677   3.891   0.434   7.761  0.1550 -0.2682  0.2570
   84CHL1   C22 8678   4.057   0.703   7.913 -0.8402 -0.0070 -0.3853
   84CHL1  H22A 8679   4.121   0.791   7.889  0.4093  0.2821  3.3617
   84CHL1  H22B 8680   3.959   0.746   7.940 -0.3652  0.7086  0.2424
   84CHL1   C23 8681   4.126   0.646   8.040 -0.6355  0.2402  0.7958
   84CHL1  H23A 8682   4.077   0.549   8.065  0.8911 -0.6057  0.6697
   84CHL1  H23B 8683   4.235   0.630   8.023 -0.6193  0.2017  0.9326
   84CHL1   C24 8684   4.128   0.735   8.162  0.1997 -0.4039  0.1513
   84CHL1  H24A 8685   4.173   0.832   8.132  2.5302 -1.6538 -0.6167
   84CHL1  H24B 8686   4.023   0.746   8.197 -0.1077 -1.6423 -0.3150
   84CHL1   C25 8687   4.214   0.672   8.277 -0.3359 -1.2506  0.1871
   84CHL1   H25 8688   4.320   0.672   8.245 -0.8971 -0.0116 -1.8674
   84CHL1   C26 8689   4.177   0.753   8.407 -0.5534 -0.1772  0.2855
   84CHL1  H26A 8690   4.201   0.858   8.379 -0.3902 -0.6498 -1.4948
   84CHL1  H26B 8691   4.077   0.721   8.441 -0.1575 -1.3560  0.4020
   84CHL1  H26C 8692   4.251   0.727   8.486  0.4040 -2.2796 -1.1877
   84CHL1   C27 8693   4.177   0.529   8.307  0.7169  0.2080  0.2225
   84CHL1  H27A 8694   4.066   0.528   8.309  0.7061 -0.3377 -0.3344
   84CHL1  H27B 8695   4.216   0.452   8.236 -2.4104  0.2407 -1.7189
   84CHL1  H27C 8696   4.205   0.509   8.413  0.4338 -2.2114 -0.0998
   85CHL1    C3 8697   2.755   4.317   6.712  0.2636  0.6479 -0.9342
   85CHL1    H3 8698   2.669   4.386   6.699 -0.4338  0.0958  0.5167
   85CHL1    O3 8699   2.791   4.262   6.587 -0.1321  0.0698 -0.0953
   85CHL1   H3' 8700   2.883   4.238   6.601 -0.3027 -0.4133  0.2374
   85CHL1    C4 8701   2.874   4.394   6.768 -0.4281  0.1545  0.2960
   85CHL1   H4A 8702   2.959   4.326   6.784 -1.6409 -1.6293 -0.4815
   85CHL1   H4B 8703   2.913   4.471   6.698 -2.2500  2.0657  1.2437
   85CHL1    C5 8704   2.844   4.461   6.901  0.3692 -0.1141  0.2776
   85CHL1    C6 8705   2.849   4.595   6.907 -0.2785 -0.4448  0.2480
   85CHL1    H6 8706   2.879   4.659   6.823 -1.1698 -0.3894 -0.0335
   85CHL1    C7 8707   2.847   4.668   7.037  0.3911 -0.8871 -0.1392
   85CHL1   H7A 8708   2.936   4.733   7.056 -1.2017  1.4873 -0.4366
   85CHL1   H7B 8709   2.756   4.731   7.043 -0.7271 -2.5220  1.2819
   85CHL1    C8 8710   2.843   4.572   7.159  0.1680  0.5161  0.0315
   85CHL1    H8 8711   2.948   4.546   7.185  0.0230 -0.1056  0.0073
   85CHL1   C14 8712   2.776   4.645   7.270  0.7592  0.5385  0.3736
   85CHL1   H14 8713   2.667   4.653   7.249  0.7315 -1.5284 -0.5374
   85CHL1   C15 8714   2.828   4.788   7.307 -0.8990 -0.3151  0.2930
   85CHL1  H15A 8715   2.938   4.779   7.319 -0.4496 -1.0590 -3.2170
   85CHL1  H15B 8716   2.787   4.867   7.241 -1.4563 -0.4608  0.4653
   85CHL1   C16 8717   2.768   4.812   7.444 -0.1689  0.3311  0.7065
   85CHL1  H16A 8718   2.842   4.845   7.520 -0.0005 -0.7620  1.0351
   85CHL1  H16B 8719   2.682   4.879   7.422 -0.3216 -0.0369  0.1504
   85CHL1   C17 8720   2.697   4.680   7.488  0.8119 -0.0961 -0.5222
   85CHL1   H17 8721   2.587   4.682   7.468  0.1851 -1.3263  2.3246
   85CHL1   C13 8722   2.765   4.568   7.405 -0.2053 -1.1716 -0.3115
   85CHL1   C18 8723   2.909   4.548   7.457 -0.4384  0.1815  0.0445
   85CHL1  H18A 8724   2.971   4.638   7.475  0.2784 -0.7236  2.6115
   85CHL1  H18B 8725   2.920   4.494   7.554  3.7973 -0.2359 -0.4983
   85CHL1  H18C 8726   2.968   4.481   7.391  1.5925 -0.8392  2.7182
   85CHL1   C12 8727   2.686   4.434   7.382 -0.1579 -0.4595  0.4550
   85CHL1  H12A 8728   2.702   4.374   7.474  0.0698 -3.6390 -1.5172
   85CHL1  H12B 8729   2.576   4.444   7.372 -0.1991 -0.7922  0.5619
   85CHL1   C11 8730   2.741   4.351   7.261  0.0213 -0.7637 -0.0330
   85CHL1  H11A 8731   2.839   4.313   7.293  0.6861  1.9727  1.5440
   85CHL1  H11B 8732   2.680   4.262   7.237  0.7544 -0.3769 -4.0827
   85CHL1    C9 8733   2.761   4.439   7.130  0.9425 -0.0866 -0.9482
   85CHL1    H9 8734   2.659   4.475   7.106  0.5138  0.9823  1.9792
   85CHL1   C10 8735   2.814   4.360   7.013 -0.1423  0.7744 -0.1696
   85CHL1   C19 8736   2.943   4.284   7.055 -0.5979 -0.0672 -0.1853
   85CHL1  H19A 8737   3.007   4.355   7.111 -1.3131 -0.3415  1.0376
   85CHL1  H19B 8738   2.905   4.200   7.118 -1.1779  2.1799  2.6351
   85CHL1  H19C 8739   2.999   4.243   6.968  1.9122 -0.2384  1.4019
   85CHL1    C1 8740   2.693   4.273   6.950  0.0543  0.3811  0.3911
   85CHL1   H1A 8741   2.664   4.195   7.025  0.6431 -1.6785 -1.4134
   85CHL1   H1B 8742   2.605   4.336   6.926 -0.3537 -0.4068 -0.2464
   85CHL1    C2 8743   2.731   4.208   6.811  0.1002 -0.2151  0.0107
   85CHL1   H2A 8744   2.659   4.128   6.783  0.4024  0.1155 -1.8150
   85CHL1   H2B 8745   2.829   4.159   6.831 -0.0565  0.0543  1.6512
   85CHL1   C20 8746   2.693   4.666   7.641 -0.0106  0.3818 -0.0822
   85CHL1   H20 8747   2.800   4.668   7.669 -0.2005  2.6965  0.7247
   85CHL1   C21 8748   2.632   4.534   7.682 -0.2230  0.0878 -0.2354
   85CHL1  H21A 8749   2.621   4.534   7.793  2.5420 -0.0979  0.1057
   85CHL1  H21B 8750   2.710   4.454   7.680 -0.6500 -0.3415  0.0006
   85CHL1  H21C 8751   2.537   4.518   7.629 -0.3783  1.2204 -0.3289
   85CHL1   C22 8752   2.628   4.787   7.719 -0.5601  0.2894 -0.0026
   85CHL1  H22A 8753   2.666   4.882   7.676  1.5795 -1.6139 -2.6557
   85CHL1  H22B 8754   2.518   4.777   7.706 -0.7659  0.8110  1.2026
   85CHL1   C23 8755   2.653   4.793   7.869 -0.1771 -0.8675 -0.6066
   85CHL1  H23A 8756   2.622   4.697   7.916 -0.6534 -1.0689 -1.3138
   85CHL1  H23B 8757   2.762   4.809   7.887 -0.5944  1.0975  0.4219
   85CHL1   C24 8758   2.579   4.906   7.944 -0.2844 -0.1048  0.0872
   85CHL1  H24A 8759   2.609   5.010   7.921  0.1764 -0.1589  0.4225
   85CHL1  H24B 8760   2.478   4.887   7.900 -0.8511  1.4671  0.6445
   85CHL1   C25 8761   2.566   4.897   8.096  0.0806 -0.4691  0.4671
   85CHL1   H25 8762   2.531   4.795   8.124 -0.9525 -0.4886 -0.7518
   85CHL1   C26 8763   2.701   4.915   8.170  0.5241 -0.8312 -0.1997
   85CHL1  H26A 8764   2.753   5.010   8.144 -0.1909  0.0681  1.5000
   85CHL1  H26B 8765   2.689   4.921   8.280  4.2218  1.1418  0.2430
   85CHL1  H26C 8766   2.763   4.824   8.153 -0.6346 -1.7304  0.2167
   85CHL1   C27 8767   2.461   4.994   8.147  0.6923 -0.2124 -0.4555
   85CHL1  H27A 8768   2.481   5.098   8.115  0.7107  0.2591  1.0300
   85CHL1  H27B 8769   2.363   4.968   8.099  0.9003  0.7071 -1.4110
   85CHL1  H27C 8770   2.443   4.996   8.256 -1.5374 -0.5099 -0.7663
   86CHL1    C3 8771   4.877   3.210   6.730  0.2968  0.9374 -0.4336
   86CHL1    H3 8772   4.810   3.122   6.721  3.0116 -1.6181  2.2891
   86CHL1    O3 8773   4.914   3.255   6.597  0.3115  0.2625 -0.1743
   86CHL1   H3' 8774   4.970   3.183   6.567  1.0004  0.7717 -0.1438
   86CHL1    C4 8775   4.807   3.331   6.801 -0.2919  1.1943  0.2383
   86CHL1   H4A 8776   4.837   3.434   6.774 -0.8584  0.8462 -1.8847
   86CHL1   H4B 8777   4.703   3.329   6.760 -0.2265  3.5479 -0.1668
   86CHL1    C5 8778   4.803   3.314   6.953 -0.2333  0.4087 -0.2870
   86CHL1    C6 8779   4.690   3.317   7.022  0.5015 -0.6101  0.2277
   86CHL1    H6 8780   4.600   3.339   6.962  1.4022 -0.0938 -0.9864
   86CHL1    C7 8781   4.679   3.294   7.172  1.1570 -0.0814  0.3418
   86CHL1   H7A 8782   4.601   3.366   7.206  0.7636 -0.1976 -0.2884
   86CHL1   H7B 8783   4.653   3.189   7.194 -1.4963  0.5669  0.6708
   86CHL1    C8 8784   4.813   3.319   7.241 -0.2949  0.9806  0.5554
   86CHL1    H8 8785   4.842   3.426   7.236 -0.3073  0.9507 -0.2880
   86CHL1   C14 8786   4.810   3.271   7.389 -0.3827 -0.3445 -0.3668
   86CHL1   H14 8787   4.812   3.160   7.384 -0.5712 -0.5279  2.2757
   86CHL1   C15 8788   4.686   3.309   7.467 -0.1554  0.3278  0.1115
   86CHL1  H15A 8789   4.648   3.412   7.454  0.2549  0.3896 -0.6651
   86CHL1  H15B 8790   4.597   3.245   7.449 -0.3276  0.7506 -0.5611
   86CHL1   C16 8791   4.740   3.289   7.615 -0.1121  0.1930  0.2040
   86CHL1  H16A 8792   4.717   3.382   7.672 -2.1291 -0.7584  1.0499
   86CHL1  H16B 8793   4.684   3.209   7.667 -2.2270  1.2313 -0.3568
   86CHL1   C17 8794   4.895   3.265   7.610 -0.5495 -0.5298  0.4116
   86CHL1   H17 8795   4.898   3.154   7.603 -0.9857 -0.4509 -1.7314
   86CHL1   C13 8796   4.934   3.319   7.467  0.2829  0.5814 -0.2504
   86CHL1   C18 8797   4.944   3.473   7.484 -0.6860  0.3352  0.1074
   86CHL1  H18A 8798   5.043   3.509   7.519 -1.1274  1.8573 -0.1271
   86CHL1  H18B 8799   4.930   3.532   7.391 -0.7691  0.1958  0.0309
   86CHL1  H18C 8800   4.865   3.514   7.552  1.0575  1.6253  1.4342
   86CHL1   C12 8801   5.056   3.256   7.394  0.7086  0.0941  0.1729
   86CHL1  H12A 8802   5.150   3.283   7.446 -0.2367 -1.2378  2.6939
   86CHL1  H12B 8803   5.050   3.146   7.403 -0.5732  0.2209  1.0858
   86CHL1   C11 8804   5.058   3.290   7.246  0.2226 -0.1825 -0.2896
   86CHL1  H11A 8805   5.058   3.400   7.257  0.8134 -0.3146  1.2429
   86CHL1  H11B 8806   5.156   3.267   7.199  0.2517 -0.2936 -0.1739
   86CHL1    C9 8807   4.929   3.251   7.165  0.0408  0.2575 -0.2712
   86CHL1    H9 8808   4.904   3.143   7.163 -0.6876  0.3991  0.4173
   86CHL1   C10 8809   4.939   3.287   7.022 -0.0373  0.2826  0.8989
   86CHL1   C19 8810   5.034   3.408   6.993 -0.8397 -0.1977 -0.2595
   86CHL1  H19A 8811   5.021   3.488   7.070  0.7047 -0.5598  0.4125
   86CHL1  H19B 8812   5.140   3.373   6.992 -0.5216  0.6692 -2.9003
   86CHL1  H19C 8813   5.024   3.455   6.893  0.8260  0.0206 -0.3624
   86CHL1    C1 8814   4.996   3.160   6.948  0.0955 -0.2074 -0.3827
   86CHL1   H1A 8815   5.096   3.137   6.991  1.4190  1.0181 -2.5840
   86CHL1   H1B 8816   4.944   3.065   6.971  1.0602 -0.8741 -0.8719
   86CHL1    C2 8817   5.009   3.169   6.794  0.7427 -0.0341 -0.2906
   86CHL1   H2A 8818   5.039   3.069   6.757 -0.9400 -0.0917 -1.6138
   86CHL1   H2B 8819   5.096   3.236   6.776  0.5978  0.3070  0.2237
   86CHL1   C20 8820   4.978   3.304   7.736  0.3389  0.7894  0.2007
   86CHL1   H20 8821   5.022   3.405   7.720  1.6836 -0.0947 -2.3739
   86CHL1   C21 8822   5.093   3.201   7.741  0.5017 -0.7413  0.2199
   86CHL1  H21A 8823   5.174   3.221   7.667  0.0597 -0.0134 -0.0750
   86CHL1  H21B 8824   5.051   3.099   7.730 -1.7537  0.1493  0.1357
   86CHL1  H21C 8825   5.131   3.200   7.846 -1.0487  0.2659  0.8383
   86CHL1   C22 8826   4.900   3.316   7.872  0.8364 -0.5181  0.3394
   86CHL1  H22A 8827   4.792   3.336   7.856  0.7806 -1.9666 -1.3846
   86CHL1  H22B 8828   4.894   3.216   7.920 -0.5523 -1.2011 -1.1759
   86CHL1   C23 8829   4.973   3.401   7.977  0.8348  0.6616 -0.2810
   86CHL1  H23A 8830   5.055   3.338   8.019  0.8945  2.1356  1.9995
   86CHL1  H23B 8831   5.008   3.496   7.931  0.1285  0.9218 -0.2957
   86CHL1   C24 8832   4.872   3.429   8.092  0.9695  0.1822  0.5093
   86CHL1  H24A 8833   4.782   3.468   8.042  1.4729  0.2046 -0.3945
   86CHL1  H24B 8834   4.844   3.336   8.146  1.5610 -0.4002 -0.1733
   86CHL1   C25 8835   4.905   3.538   8.190  0.1466 -0.0662  0.5753
   86CHL1   H25 8836   4.903   3.631   8.130  0.9906  0.4460  1.3082
   86CHL1   C26 8837   4.818   3.547   8.316 -0.4872 -0.0368  0.7393
   86CHL1  H26A 8838   4.818   3.446   8.362  0.6898 -0.4441 -0.1034
   86CHL1  H26B 8839   4.846   3.636   8.376 -0.8415  0.5213  0.0932
   86CHL1  H26C 8840   4.709   3.555   8.297 -0.4475  0.0879  0.5639
   86CHL1   C27 8841   5.051   3.519   8.237 -0.1635 -0.1617 -0.0120
   86CHL1  H27A 8842   5.089   3.605   8.296 -0.3728  1.2955 -1.9126
   86CHL1  H27B 8843   5.056   3.436   8.311 -1.6093 -2.0365 -1.8796
   86CHL1  H27C 8844   5.118   3.494   8.151  0.3015 -0.2408  0.3688
   87CHL1    C3 8845   4.983   1.520   6.916 -0.1962 -0.5064  0.6202
   87CHL1    H3 8846   5.055   1.597   6.952 -0.3926 -1.0232  2.2187
   87CHL1    O3 8847   4.990   1.499   6.777  0.0542 -0.3221 -0.2349
   87CHL1   H3' 8848   5.061   1.434   6.771 -1.3287 -2.0142  0.7117
   87CHL1    C4 8849   5.014   1.387   6.993  0.0435  0.3027 -0.0355
   87CHL1   H4A 8850   4.935   1.317   6.957  0.5899 -0.1699 -0.3328
   87CHL1   H4B 8851   5.115   1.347   6.971  0.2333  0.6690  0.1609
   87CHL1    C5 8852   5.003   1.407   7.141 -0.1203  0.2770 -0.2368
   87CHL1    C6 8853   5.107   1.380   7.220  0.2733 -0.8208  0.1469
   87CHL1    H6 8854   5.199   1.342   7.174 -0.7104  0.9598 -3.7180
   87CHL1    C7 8855   5.109   1.407   7.369 -0.1212 -0.8658 -0.6759
   87CHL1   H7A 8856   5.174   1.335   7.422  0.2606 -0.0383  0.0005
   87CHL1   H7B 8857   5.143   1.512   7.384 -0.3626 -0.9207  0.2699
   87CHL1    C8 8858   4.962   1.410   7.423  0.3793 -0.0752 -0.5463
   87CHL1    H8 8859   4.920   1.307   7.411  0.6915  0.0675 -3.3571
   87CHL1   C14 8860   4.959   1.448   7.569  0.2737  0.1341 -0.1120
   87CHL1   H14 8861   4.989   1.554   7.561  2.1210 -0.4289 -1.2650
   87CHL1   C15 8862   5.059   1.384   7.665 -0.0813  0.2935 -0.8960
   87CHL1  H15A 8863   5.085   1.276   7.661  1.8448  0.7368 -2.0060
   87CHL1  H15B 8864   5.156   1.434   7.643 -0.2923  0.4913 -1.3837
   87CHL1   C16 8865   4.993   1.411   7.806 -0.4098  0.2852  0.2304
   87CHL1  H16A 8866   4.965   1.313   7.851 -1.3400 -0.6273 -2.1308
   87CHL1  H16B 8867   5.063   1.464   7.874  1.8103  0.0635 -1.7570
   87CHL1   C17 8868   4.859   1.487   7.782 -0.3158 -0.4976 -0.0760
   87CHL1   H17 8869   4.883   1.595   7.772  2.7860 -1.1505 -0.8095
   87CHL1   C13 8870   4.815   1.453   7.639 -0.2773  0.4689 -0.4021
   87CHL1   C18 8871   4.747   1.303   7.642  0.4717 -0.8887  0.6938
   87CHL1  H18A 8872   4.664   1.316   7.714  0.3493  3.7904  0.0326
   87CHL1  H18B 8873   4.719   1.270   7.539  0.8487 -0.4990  0.4628
   87CHL1  H18C 8874   4.818   1.228   7.684  1.4949 -1.5420 -1.9650
   87CHL1   C12 8875   4.739   1.559   7.556  0.3118  0.6125 -0.0614
   87CHL1  H12A 8876   4.633   1.564   7.587 -0.2989  0.7129 -2.0290
   87CHL1  H12B 8877   4.782   1.660   7.573  0.4704  0.8022 -1.4868
   87CHL1   C11 8878   4.732   1.526   7.406  0.7884 -0.0010 -0.2574
   87CHL1  H11A 8879   4.665   1.437   7.408 -1.9021  1.9053  1.4185
   87CHL1  H11B 8880   4.670   1.596   7.347 -1.8462 -0.8358  1.3477
   87CHL1    C9 8881   4.872   1.505   7.341  0.1746  0.6969 -0.7093
   87CHL1    H9 8882   4.933   1.597   7.355 -1.5160  1.5945  1.2541
   87CHL1   C10 8883   4.867   1.463   7.193 -0.4521 -1.0768  0.1564
   87CHL1   C19 8884   4.759   1.358   7.171  0.3288  0.3191  0.8352
   87CHL1  H19A 8885   4.780   1.272   7.239 -0.7679 -0.8145 -0.2038
   87CHL1  H19B 8886   4.662   1.401   7.203 -0.3202  0.1919 -0.8795
   87CHL1  H19C 8887   4.741   1.323   7.067 -2.4901  0.0342  1.3351
   87CHL1    C1 8888   4.834   1.585   7.110 -0.1028 -0.4281 -0.0147
   87CHL1   H1A 8889   4.733   1.619   7.140  0.1956  0.4852  0.0126
   87CHL1   H1B 8890   4.902   1.666   7.147 -0.8462  0.1607  0.0830
   87CHL1    C2 8891   4.843   1.565   6.958  0.2312 -0.2594 -0.5845
   87CHL1   H2A 8892   4.808   1.657   6.907  0.5160  1.4398  2.0998
   87CHL1   H2B 8893   4.774   1.482   6.931 -2.0801  0.7204  1.8733
   87CHL1   C20 8894   4.762   1.471   7.899 -0.1321  0.8125  0.4533
   87CHL1   H20 8895   4.713   1.371   7.896 -1.4505  1.4609 -0.5323
   87CHL1   C21 8896   4.658   1.577   7.880  0.0827 -0.0544  0.2222
   87CHL1  H21A 8897   4.689   1.682   7.862 -0.3296 -0.0678 -0.6539
   87CHL1  H21B 8898   4.581   1.587   7.959 -1.3037  0.2612 -1.1129
   87CHL1  H21C 8899   4.605   1.532   7.793  2.1216  0.2823 -1.2835
   87CHL1   C22 8900   4.835   1.489   8.031 -0.0679  0.2809 -0.3715
   87CHL1  H22A 8901   4.930   1.437   8.054 -0.2715  0.2308  0.4063
   87CHL1  H22B 8902   4.863   1.596   8.036 -0.0574  0.2143  1.6825
   87CHL1   C23 8903   4.744   1.461   8.152  0.5885 -0.2702 -0.8135
   87CHL1  H23A 8904   4.648   1.513   8.134  1.4588  0.6903 -3.1584
   87CHL1  H23B 8905   4.732   1.351   8.153  0.8162 -0.3124 -1.7386
   87CHL1   C24 8906   4.811   1.509   8.286  0.5679 -0.3465 -1.6068
   87CHL1  H24A 8907   4.905   1.452   8.299 -0.0402 -1.3396 -1.4358
   87CHL1  H24B 8908   4.841   1.615   8.268  1.0567 -0.0677  0.5945
   87CHL1   C25 8909   4.722   1.495   8.414 -0.5150  0.5710  0.7874
   87CHL1   H25 8910   4.685   1.390   8.426 -0.3205  0.3878 -0.1458
   87CHL1   C26 8911   4.820   1.523   8.529  0.9734  0.0647  0.3395
   87CHL1  H26A 8912   4.880   1.429   8.529  0.6730 -0.1349  1.0509
   87CHL1  H26B 8913   4.871   1.621   8.514  0.6343  0.5236  1.9126
   87CHL1  H26C 8914   4.750   1.529   8.616  2.0604  0.0592  1.2448
   87CHL1   C27 8915   4.615   1.599   8.414  1.0814 -0.8190  0.0632
   87CHL1  H27A 8916   4.538   1.584   8.335  0.4260  0.8558  0.3612
   87CHL1  H27B 8917   4.549   1.600   8.503 -0.0525 -1.7005 -0.7405
   87CHL1  H27C 8918   4.658   1.700   8.400  0.4852 -0.8109 -2.0090
   88CHL1    C3 8919   2.841   6.775   6.933 -0.1995 -0.0841 -0.6055
   88CHL1    H3 8920   2.774   6.859   6.963  0.7160  0.5096 -0.1891
   88CHL1    O3 8921   2.856   6.760   6.791  0.4373 -0.5046 -0.4340
   88CHL1   H3' 8922   2.921   6.823   6.758  1.3819 -1.4269 -0.3824
   88CHL1    C4 8923   2.977   6.797   6.985 -0.3892 -0.7837 -0.4859
   88CHL1   H4A 8924   3.036   6.713   6.943  0.0360 -1.2242  0.9627
   88CHL1   H4B 8925   3.014   6.890   6.935 -2.0707 -0.1862 -0.6967
   88CHL1    C5 8926   2.990   6.803   7.134  0.0092 -0.4984 -0.0374
   88CHL1    C6 8927   3.046   6.907   7.194  0.9272  0.0839 -0.9794
   88CHL1    H6 8928   3.085   6.994   7.140 -0.8841  2.4290  1.2447
   88CHL1    C7 8929   3.053   6.913   7.350 -0.0061 -0.1351 -0.3989
   88CHL1   H7A 8930   3.155   6.944   7.382  1.5441 -3.4032 -1.6334
   88CHL1   H7B 8931   2.986   6.994   7.383 -1.9403 -0.6451 -2.7699
   88CHL1    C8 8932   3.033   6.777   7.410  0.1936 -0.2423  0.2401
   88CHL1    H8 8933   3.124   6.716   7.386  0.6190  0.8381 -1.0329
   88CHL1   C14 8934   3.030   6.781   7.565  0.3662 -0.6035  0.2442
   88CHL1   H14 8935   2.946   6.852   7.582  1.5812  1.3385 -1.4656
   88CHL1   C15 8936   3.145   6.833   7.650 -0.2065 -0.0822  0.1240
   88CHL1  H15A 8937   3.233   6.778   7.612 -0.3825  0.2255 -0.7551
   88CHL1  H15B 8938   3.161   6.940   7.624 -0.4875 -0.6752 -2.8413
   88CHL1   C16 8939   3.101   6.795   7.788 -0.0310  0.3299 -0.2307
   88CHL1  H16A 8940   3.192   6.773   7.848 -0.7651 -1.0439  0.4103
   88CHL1  H16B 8941   3.050   6.887   7.825 -0.7425  0.5936 -1.7980
   88CHL1   C17 8942   2.997   6.680   7.777 -0.1409 -0.8767 -0.4145
   88CHL1   H17 8943   2.902   6.732   7.800  0.2538  0.7247 -2.1615
   88CHL1   C13 8944   2.996   6.644   7.627  0.5740  0.2188  0.5923
   88CHL1   C18 8945   3.112   6.537   7.601  0.4026 -0.1509 -0.5398
   88CHL1  H18A 8946   3.082   6.436   7.637 -1.3129 -0.0749 -1.6407
   88CHL1  H18B 8947   3.136   6.548   7.493 -0.7386  2.9667 -0.5768
   88CHL1  H18C 8948   3.205   6.568   7.653  0.2519  0.7008 -0.7567
   88CHL1   C12 8949   2.858   6.598   7.578 -0.2435  0.6285  0.1738
   88CHL1  H12A 8950   2.829   6.497   7.616  0.3783  0.0916 -0.7287
   88CHL1  H12B 8951   2.781   6.673   7.604  0.7040  1.1633  1.5815
   88CHL1   C11 8952   2.867   6.576   7.426 -0.0294 -0.1207 -0.7871
   88CHL1  H11A 8953   2.927   6.484   7.408  1.3664  0.7332 -0.6882
   88CHL1  H11B 8954   2.765   6.549   7.391  0.2388  0.6188 -2.2166
   88CHL1    C9 8955   2.913   6.705   7.350 -0.0739  0.4228  0.4751
   88CHL1    H9 8956   2.825   6.772   7.360  0.3395  0.8640  1.2880
   88CHL1   C10 8957   2.926   6.681   7.200  0.5008  0.0939 -0.4115
   88CHL1   C19 8958   3.033   6.569   7.177 -0.3443  0.3734  0.4607
   88CHL1  H19A 8959   3.128   6.574   7.233  0.5817  0.0710 -1.0285
   88CHL1  H19B 8960   2.978   6.476   7.205 -0.9817  0.6247  0.0837
   88CHL1  H19C 8961   3.060   6.559   7.070  1.5156  0.6250  0.8714
   88CHL1    C1 8962   2.779   6.640   7.141  0.1077 -0.8627  1.0103
   88CHL1   H1A 8963   2.767   6.537   7.179 -0.1605 -1.0632  0.4057
   88CHL1   H1B 8964   2.708   6.709   7.191 -0.7611 -0.5903 -0.5270
   88CHL1    C2 8965   2.782   6.644   6.984 -0.4259  0.4592 -0.1009
   88CHL1   H2A 8966   2.675   6.634   6.956 -0.3994  0.7334 -0.3075
   88CHL1   H2B 8967   2.844   6.556   6.959  1.1989  0.5264  3.0886
   88CHL1   C20 8968   3.010   6.565   7.881  0.2680  0.2933  0.2374
   88CHL1   H20 8969   3.105   6.516   7.852 -0.2793 -0.7233  0.1228
   88CHL1   C21 8970   2.891   6.465   7.865 -0.2219  0.2113 -0.3388
   88CHL1  H21A 8971   2.898   6.380   7.794 -2.3168 -0.3595  0.0503
   88CHL1  H21B 8972   2.800   6.525   7.842  0.3670  0.2967 -2.6985
   88CHL1  H21C 8973   2.879   6.405   7.958 -1.0577  0.4787 -0.2611
   88CHL1   C22 8974   3.024   6.615   8.032 -0.0424 -0.7492 -0.3322
   88CHL1  H22A 8975   3.037   6.526   8.096  0.6110  1.3177  2.6277
   88CHL1  H22B 8976   3.116   6.677   8.031  0.3632 -1.1957 -3.7944
   88CHL1   C23 8977   2.907   6.698   8.082 -0.1287  0.2136 -0.1791
   88CHL1  H23A 8978   2.875   6.772   8.005  0.9608  1.1735  0.2557
   88CHL1  H23B 8979   2.820   6.630   8.095 -1.2703  1.7765  0.8110
   88CHL1   C24 8980   2.946   6.765   8.219 -0.1313 -0.7060 -0.9937
   88CHL1  H24A 8981   2.977   6.677   8.280  1.4317  0.9490  0.7203
   88CHL1  H24B 8982   3.037   6.828   8.207  0.4779 -0.9517  1.6958
   88CHL1   C25 8983   2.845   6.859   8.282  0.4158  0.3969 -0.1669
   88CHL1   H25 8984   2.815   6.924   8.197  0.9684 -0.4342 -1.0186
   88CHL1   C26 8985   2.724   6.783   8.333  0.3408  0.2094  0.0973
   88CHL1  H26A 8986   2.661   6.754   8.246 -1.6610  0.7875  1.2941
   88CHL1  H26B 8987   2.756   6.694   8.390 -3.0344 -1.3827 -0.2326
   88CHL1  H26C 8988   2.666   6.856   8.394 -0.8154 -0.7362  0.1595
   88CHL1   C27 8989   2.899   6.948   8.397  0.5878  0.4742 -0.0212
   88CHL1  H27A 8990   2.995   7.000   8.379  0.6998  0.4816  0.5788
   88CHL1  H27B 8991   2.828   7.033   8.399  1.1121  0.9293 -0.3781
   88CHL1  H27C 8992   2.916   6.890   8.490  2.4215 -0.4466 -0.8765
   89CHL1    C3 8993   5.366   1.139   6.961 -0.6728 -0.7700 -0.3791
   89CHL1    H3 8994   5.292   1.221   6.969  1.7352  1.4539  0.5614
   89CHL1    O3 8995   5.369   1.097   6.824  0.6775 -0.3617  0.0488
   89CHL1   H3' 8996   5.456   1.056   6.819  0.5761 -0.3739 -2.3977
   89CHL1    C4 8997   5.505   1.195   6.994 -0.7848 -0.7150  0.1485
   89CHL1   H4A 8998   5.579   1.113   6.989  1.3106  1.0518  0.8297
   89CHL1   H4B 8999   5.530   1.278   6.924  0.0793 -0.8023  0.3458
   89CHL1    C5 9000   5.503   1.248   7.145 -0.5035 -0.1192  0.3045
   89CHL1    C6 9001   5.531   1.369   7.188  0.4198 -0.0659 -0.0501
   89CHL1    H6 9002   5.570   1.434   7.109  2.7092 -0.0074  1.0325
   89CHL1    C7 9003   5.527   1.419   7.327 -0.0110  0.3703 -0.3971
   89CHL1   H7A 9004   5.611   1.490   7.342 -0.3475  0.1953  3.3114
   89CHL1   H7B 9005   5.440   1.484   7.347 -0.7332 -0.4468 -0.8042
   89CHL1    C8 9006   5.524   1.306   7.434  0.3059  0.0161  0.2502
   89CHL1    H8 9007   5.629   1.270   7.437  0.1714 -0.3600  0.5040
   89CHL1   C14 9008   5.487   1.356   7.569  0.5648 -0.0479 -0.2979
   89CHL1   H14 9009   5.378   1.369   7.556  0.4154 -1.5142 -0.6995
   89CHL1   C15 9010   5.546   1.488   7.624  0.7217 -0.0331 -0.2002
   89CHL1  H15A 9011   5.657   1.486   7.622  0.8533  2.0707  1.1837
   89CHL1  H15B 9012   5.503   1.575   7.569 -1.3148 -1.6627 -1.3083
   89CHL1   C16 9013   5.494   1.482   7.766  0.2264  0.0368 -0.2642
   89CHL1  H16A 9014   5.563   1.508   7.849 -0.5950 -1.0621  0.7957
   89CHL1  H16B 9015   5.407   1.551   7.760  0.4031  0.3649  0.8150
   89CHL1   C17 9016   5.437   1.338   7.798 -0.1522  0.1775 -0.0860
   89CHL1   H17 9017   5.330   1.355   7.775  0.3618  1.1326 -1.9496
   89CHL1   C13 9018   5.490   1.252   7.677  0.0543 -0.0113  0.0157
   89CHL1   C18 9019   5.642   1.211   7.703 -0.1623 -0.2846  0.3370
   89CHL1  H18A 9020   5.650   1.146   7.793 -0.3569  0.5383  0.9614
   89CHL1  H18B 9021   5.681   1.155   7.615  0.3576 -1.9593  1.5947
   89CHL1  H18C 9022   5.709   1.299   7.715  3.1807 -2.7757  1.4252
   89CHL1   C12 9023   5.398   1.139   7.633 -0.1529  0.2828  0.1724
   89CHL1  H12A 9024   5.390   1.058   7.708  4.1017  1.3923  2.1942
   89CHL1  H12B 9025   5.292   1.168   7.621 -0.5225 -1.0161  0.2194
   89CHL1   C11 9026   5.443   1.077   7.499  0.1348  0.0843  0.5472
   89CHL1  H11A 9027   5.542   1.027   7.507 -1.1503 -2.9233 -0.7282
   89CHL1  H11B 9028   5.385   0.993   7.455 -0.4976  0.7448  0.0879
   89CHL1    C9 9029   5.444   1.188   7.386  0.1504 -0.3391  0.0329
   89CHL1    H9 9030   5.340   1.226   7.382  0.5853  0.8043 -1.0429
   89CHL1   C10 9031   5.468   1.138   7.242 -0.6400  0.4079  0.3604
   89CHL1   C19 9032   5.590   1.045   7.252 -0.1998 -0.0224 -0.2497
   89CHL1  H19A 9033   5.577   0.967   7.330 -1.1492  0.9486  0.5896
   89CHL1  H19B 9034   5.590   0.988   7.156 -3.5519  0.0409 -0.4030
   89CHL1  H19C 9035   5.682   1.104   7.271 -1.3831  2.0672 -0.6868
   89CHL1    C1 9036   5.343   1.044   7.199 -0.4201  0.2925  0.3148
   89CHL1   H1A 9037   5.344   0.947   7.252  0.8706  0.1584  0.0654
   89CHL1   H1B 9038   5.251   1.092   7.240  0.4977  2.7273 -0.2897
   89CHL1    C2 9039   5.333   1.021   7.046 -0.3716 -0.2428 -1.3312
   89CHL1   H2A 9040   5.240   0.969   7.016 -0.5499 -0.0564 -1.1102
   89CHL1   H2B 9041   5.410   0.943   7.028 -1.4030 -1.1867 -1.8031
   89CHL1   C20 9042   5.455   1.292   7.945  0.2682  0.3737  0.3984
   89CHL1   H20 9043   5.564   1.297   7.964  0.0681  0.8856  1.5329
   89CHL1   C21 9044   5.410   1.143   7.958  0.0763  0.4617  0.0296
   89CHL1  H21A 9045   5.318   1.119   7.900 -0.5404  1.1908  0.6921
   89CHL1  H21B 9046   5.392   1.110   8.063  1.8537 -1.8659 -0.3073
   89CHL1  H21C 9047   5.490   1.077   7.919 -0.7518 -1.0665  0.8054
   89CHL1   C22 9048   5.384   1.394   8.041  0.2773  0.5833 -0.6058
   89CHL1  H22A 9049   5.445   1.487   8.038  0.5295  0.3952 -1.8092
   89CHL1  H22B 9050   5.287   1.424   7.996  0.8607 -1.1847 -3.3047
   89CHL1   C23 9051   5.366   1.350   8.189 -0.3225  0.4419  0.1146
   89CHL1  H23A 9052   5.279   1.281   8.198  1.1274 -1.6680 -1.1448
   89CHL1  H23B 9053   5.458   1.302   8.231 -0.7650  0.3577  1.0298
   89CHL1   C24 9054   5.327   1.471   8.277  0.0281  1.1386 -0.3291
   89CHL1  H24A 9055   5.412   1.542   8.285  1.6060 -0.6865 -0.0346
   89CHL1  H24B 9056   5.247   1.523   8.220 -1.2342 -1.1795 -0.8051
   89CHL1   C25 9057   5.271   1.428   8.411  0.5985 -0.9150 -1.0253
   89CHL1   H25 9058   5.196   1.346   8.402  1.1116 -1.1940 -3.4052
   89CHL1   C26 9059   5.393   1.402   8.501  0.1835  0.2102 -1.0537
   89CHL1  H26A 9060   5.444   1.308   8.470 -1.0916 -1.2651  1.0708
   89CHL1  H26B 9061   5.460   1.489   8.514 -0.6406  0.8336 -0.9272
   89CHL1  H26C 9062   5.365   1.384   8.607 -0.3849 -0.1498 -1.2584
   89CHL1   C27 9063   5.183   1.538   8.478 -0.5961  0.5721  1.1633
   89CHL1  H27A 9064   5.259   1.600   8.532  0.4354  2.0131 -1.7215
   89CHL1  H27B 9065   5.128   1.592   8.398 -0.6840 -2.7074 -1.1739
   89CHL1  H27C 9066   5.108   1.484   8.540 -2.2948  1.4974 -0.0146
   90CHL1    C3 9067   6.599   3.790   7.075  0.0503 -0.9235 -0.8035
   90CHL1    H3 9068   6.495   3.759   7.098 -0.5409  0.0090 -2.0734
   90CHL1    O3 9069   6.595   3.803   6.938 -0.3478 -0.0571 -0.7128
   90CHL1   H3' 9070   6.680   3.840   6.917 -0.3485  1.5577  1.7369
   90CHL1    C4 9071   6.608   3.928   7.146  0.0851  0.2021 -0.4479
   90CHL1   H4A 9072   6.691   3.982   7.095  1.4155 -1.7546 -0.4731
   90CHL1   H4B 9073   6.510   3.972   7.118 -0.9129 -1.1293  0.8042
   90CHL1    C5 9074   6.626   3.916   7.298  0.1999 -0.5575 -0.1783
   90CHL1    C6 9075   6.536   3.985   7.376 -0.2846 -0.1961  0.1275
   90CHL1    H6 9076   6.465   4.051   7.324  2.9596  2.4545 -1.3464
   90CHL1    C7 9077   6.556   3.990   7.523  0.6955 -0.5039 -0.8708
   90CHL1   H7A 9078   6.532   4.096   7.548 -2.0092 -1.1327 -0.5176
   90CHL1   H7B 9079   6.482   3.928   7.579  1.6074 -0.4392  0.4668
   90CHL1    C8 9080   6.694   3.929   7.578 -0.1679 -0.7334  0.6836
   90CHL1    H8 9081   6.773   4.004   7.554 -0.9179 -0.7661 -2.1690
   90CHL1   C14 9082   6.673   3.896   7.726 -1.4918  0.2664 -0.3582
   90CHL1   H14 9083   6.590   3.822   7.725 -1.3509  0.1044 -0.2378
   90CHL1   C15 9084   6.628   4.009   7.829 -0.7163  0.2595  0.1602
   90CHL1  H15A 9085   6.669   4.108   7.799  2.6092 -1.1248 -0.3317
   90CHL1  H15B 9086   6.518   4.018   7.824 -0.6087  1.6323 -0.1247
   90CHL1   C16 9087   6.694   3.962   7.962 -0.2026 -0.4940 -0.1461
   90CHL1  H16A 9088   6.779   4.029   7.983  1.7324 -2.3327 -1.5723
   90CHL1  H16B 9089   6.618   3.978   8.040 -0.1937  1.8733 -0.5675
   90CHL1   C17 9090   6.742   3.818   7.940 -0.2359  0.3045  0.2969
   90CHL1   H17 9091   6.652   3.753   7.938 -0.9655  1.3037 -0.0167
   90CHL1   C13 9092   6.795   3.818   7.793  0.0070 -0.8754  0.1676
   90CHL1   C18 9093   6.918   3.910   7.795 -0.5227 -0.3446 -0.0142
   90CHL1  H18A 9094   6.947   3.938   7.691  2.3054 -1.0712  0.5081
   90CHL1  H18B 9095   6.907   4.008   7.845 -0.2227  0.6800 -1.8671
   90CHL1  H18C 9096   7.004   3.858   7.842  0.7256  0.4527 -1.3442
   90CHL1   C12 9097   6.822   3.684   7.723 -0.2681 -0.2022 -0.0359
   90CHL1  H12A 9098   6.921   3.647   7.757 -0.5705  0.9441  2.3649
   90CHL1  H12B 9099   6.736   3.618   7.746  0.1654 -0.3129  1.3640
   90CHL1   C11 9100   6.844   3.719   7.570  0.0578 -0.2475 -0.8565
   90CHL1  H11A 9101   6.945   3.762   7.554  0.8827 -2.2358 -1.2367
   90CHL1  H11B 9102   6.858   3.623   7.516  2.5475  0.7711 -2.1646
   90CHL1    C9 9103   6.732   3.803   7.504 -0.2925 -0.9018 -0.2637
   90CHL1    H9 9104   6.642   3.740   7.518 -0.4126 -0.8136 -0.6446
   90CHL1   C10 9105   6.740   3.821   7.343  0.4447  0.0443  0.3440
   90CHL1   C19 9106   6.871   3.892   7.308  0.1823  0.3619  0.0369
   90CHL1  H19A 9107   6.883   3.906   7.198  1.8536  0.9939  0.2592
   90CHL1  H19B 9108   6.858   3.990   7.358 -2.5543 -1.6732  3.8212
   90CHL1  H19C 9109   6.964   3.843   7.343 -1.1279 -1.7088  0.7770
   90CHL1    C1 9110   6.726   3.687   7.269  0.2510  0.1620 -0.3617
   90CHL1   H1A 9111   6.822   3.634   7.290  0.9488  0.5951 -2.2390
   90CHL1   H1B 9112   6.637   3.627   7.298  0.4496 -0.3219 -0.7358
   90CHL1    C2 9113   6.710   3.696   7.115 -0.2229 -0.0890 -0.7058
   90CHL1   H2A 9114   6.691   3.594   7.077  1.8095 -0.1813 -1.6335
   90CHL1   H2B 9115   6.812   3.732   7.089  0.3804  0.3960  2.0006
   90CHL1   C20 9116   6.826   3.772   8.058 -0.0447 -0.6496  0.1080
   90CHL1   H20 9117   6.927   3.817   8.054 -0.3001  0.0600  1.2141
   90CHL1   C21 9118   6.855   3.620   8.049 -0.1634 -0.8089 -0.2556
   90CHL1  H21A 9119   6.932   3.593   7.973 -0.6126 -2.0316 -0.3071
   90CHL1  H21B 9120   6.757   3.572   8.030 -0.8866  0.0147  1.2485
   90CHL1  H21C 9121   6.902   3.587   8.144  1.0180  3.2789  0.7477
   90CHL1   C22 9122   6.765   3.793   8.204 -0.1721  0.0642  0.0905
   90CHL1  H22A 9123   6.850   3.770   8.271 -0.0240 -0.2443 -0.1961
   90CHL1  H22B 9124   6.750   3.902   8.212 -1.9059 -0.0270 -1.2714
   90CHL1   C23 9125   6.640   3.704   8.237 -0.0174  0.3313 -0.0282
   90CHL1  H23A 9126   6.556   3.725   8.167 -1.5485 -0.5564  1.4688
   90CHL1  H23B 9127   6.671   3.597   8.237  0.6333  0.4939  1.6765
   90CHL1   C24 9128   6.577   3.729   8.374 -0.0129  0.1715  0.3383
   90CHL1  H24A 9129   6.658   3.727   8.450  0.7875 -1.5176 -0.5096
   90CHL1  H24B 9130   6.539   3.833   8.359 -0.8727  0.0369  1.4768
   90CHL1   C25 9131   6.452   3.638   8.394  0.2926  0.2552 -0.1631
   90CHL1   H25 9132   6.387   3.654   8.305  0.3335 -3.3153 -0.9777
   90CHL1   C26 9133   6.492   3.488   8.394  0.6047  0.4460  0.0977
   90CHL1  H26A 9134   6.571   3.488   8.472  0.1700 -1.4514  0.5932
   90CHL1  H26B 9135   6.411   3.417   8.420  0.0610 -0.8528 -4.2676
   90CHL1  H26C 9136   6.529   3.456   8.294 -2.0532 -1.4442 -0.3946
   90CHL1   C27 9137   6.375   3.657   8.523  0.1691  0.4417 -0.3341
   90CHL1  H27A 9138   6.292   3.583   8.529 -0.7269  1.4576  0.2925
   90CHL1  H27B 9139   6.437   3.642   8.613  2.2142 -1.1787 -1.9134
   90CHL1  H27C 9140   6.331   3.758   8.539 -1.2099 -0.1805 -0.0397
   91CHL1    C3 9141   1.405   5.308   7.156 -0.5885  0.2770  0.0118
   91CHL1    H3 9142   1.318   5.373   7.179 -1.5633 -0.0859 -2.3148
   91CHL1    O3 9143   1.425   5.292   7.013 -0.0564 -0.1497 -0.7582
   91CHL1   H3' 9144   1.377   5.214   6.984 -2.0399 -0.1370  2.1404
   91CHL1    C4 9145   1.532   5.368   7.228 -0.3275 -0.2146  0.2883
   91CHL1   H4A 9146   1.623   5.310   7.202  0.6066  0.1544  2.5197
   91CHL1   H4B 9147   1.528   5.467   7.178 -1.7362 -0.1886  0.4176
   91CHL1    C5 9148   1.510   5.360   7.379 -0.2767  0.1000  0.1824
   91CHL1    C6 9149   1.533   5.476   7.452 -0.2949 -0.2343  0.4152
   91CHL1    H6 9150   1.552   5.574   7.405  1.2952 -0.7939 -0.1879
   91CHL1    C7 9151   1.546   5.480   7.600 -0.2647  0.3410 -0.0507
   91CHL1   H7A 9152   1.641   5.520   7.639  0.2022 -0.5951 -0.1992
   91CHL1   H7B 9153   1.463   5.541   7.641  0.8163  2.1173 -0.4127
   91CHL1    C8 9154   1.537   5.335   7.672  0.3926 -0.2007 -0.4234
   91CHL1    H8 9155   1.639   5.291   7.673  0.6486  0.3706  0.6480
   91CHL1   C14 9156   1.478   5.354   7.811  1.2422  0.2499 -1.2715
   91CHL1   H14 9157   1.370   5.382   7.808  1.0886  0.0426  0.6361
   91CHL1   C15 9158   1.546   5.459   7.898 -0.8507 -0.3584  0.6089
   91CHL1  H15A 9159   1.656   5.468   7.887 -0.5724  0.4180  3.2820
   91CHL1  H15B 9160   1.495   5.557   7.890  0.1385  0.1366  0.1386
   91CHL1   C16 9161   1.516   5.409   8.044 -0.8715  0.2142  0.6256
   91CHL1  H16A 9162   1.611   5.398   8.100 -0.4834  1.4824  0.2545
   91CHL1  H16B 9163   1.462   5.484   8.106 -0.0975  1.4025 -0.0948
   91CHL1   C17 9164   1.447   5.268   8.032 -0.5509 -0.2664  0.0181
   91CHL1   H17 9165   1.340   5.297   8.023 -0.3305  1.6291  2.4892
   91CHL1   C13 9166   1.485   5.219   7.890 -0.2644  0.3385 -0.2710
   91CHL1   C18 9167   1.629   5.168   7.890 -0.2501 -0.0740 -0.2159
   91CHL1  H18A 9168   1.687   5.233   7.959  0.3279  0.2947 -1.0453
   91CHL1  H18B 9169   1.630   5.069   7.940  0.7175 -0.3354 -0.7311
   91CHL1  H18C 9170   1.689   5.167   7.797 -0.5722  2.7484 -0.5359
   91CHL1   C12 9171   1.391   5.118   7.814 -0.2097 -0.4506  0.0217
   91CHL1  H12A 9172   1.390   5.021   7.868  0.6095 -0.3470  0.2364
   91CHL1  H12B 9173   1.289   5.162   7.812  0.2881  0.7206 -1.1029
   91CHL1   C11 9174   1.439   5.105   7.671  0.0787 -0.1003  0.2221
   91CHL1  H11A 9175   1.529   5.040   7.681 -0.4710 -0.6187  2.2504
   91CHL1  H11B 9176   1.360   5.043   7.624 -1.4055  2.1991 -0.4588
   91CHL1    C9 9177   1.446   5.239   7.594 -0.4372 -1.0419 -0.3101
   91CHL1    H9 9178   1.343   5.281   7.598  0.5346  1.3909  1.6791
   91CHL1   C10 9179   1.484   5.229   7.442  0.2392  0.6180 -0.5169
   91CHL1   C19 9180   1.606   5.128   7.422  0.0626 -0.4466 -0.2268
   91CHL1  H19A 9181   1.644   5.133   7.318 -1.0869  0.5973 -0.6214
   91CHL1  H19B 9182   1.689   5.164   7.486  0.7379  0.2975 -1.4760
   91CHL1  H19C 9183   1.567   5.027   7.450 -0.9067  0.2327  0.9666
   91CHL1    C1 9184   1.356   5.179   7.365 -0.6749  0.3217 -0.1608
   91CHL1   H1A 9185   1.323   5.080   7.403  1.5318  0.7749  3.4277
   91CHL1   H1B 9186   1.272   5.250   7.379 -0.2574  0.6780  0.6141
   91CHL1    C2 9187   1.374   5.170   7.207 -0.3070  0.2126 -0.0772
   91CHL1   H2A 9188   1.280   5.128   7.165  0.5396  1.7289 -3.8604
   91CHL1   H2B 9189   1.461   5.108   7.174  0.5680  0.8124  1.0318
   91CHL1   C20 9190   1.458   5.177   8.154  0.1054 -0.0665  0.1839
   91CHL1   H20 9191   1.553   5.120   8.158  0.0789 -0.1529 -0.3179
   91CHL1   C21 9192   1.361   5.053   8.150 -0.8851  0.8485  0.3325
   91CHL1  H21A 9193   1.368   5.003   8.249  2.9135  0.3073 -0.0655
   91CHL1  H21B 9194   1.382   4.974   8.075 -2.5547 -0.8038  1.4975
   91CHL1  H21C 9195   1.257   5.091   8.140 -0.3903  1.7883 -1.4365
   91CHL1   C22 9196   1.449   5.255   8.284 -0.4313  0.2082 -0.2090
   91CHL1  H22A 9197   1.470   5.201   8.379 -0.1975 -0.5856 -0.7054
   91CHL1  H22B 9198   1.532   5.328   8.277 -0.7289  0.6787  0.8475
   91CHL1   C23 9199   1.325   5.336   8.307 -0.2161  0.2217  0.3179
   91CHL1  H23A 9200   1.304   5.410   8.226  1.2054 -2.1543 -2.3938
   91CHL1  H23B 9201   1.234   5.277   8.329  1.1591 -1.5495  1.5174
   91CHL1   C24 9202   1.339   5.419   8.435 -0.4471  0.4759 -0.1245
   91CHL1  H24A 9203   1.236   5.453   8.460 -0.4241 -1.5745  3.4692
   91CHL1  H24B 9204   1.363   5.352   8.520 -0.7820  0.8630  0.2821
   91CHL1   C25 9205   1.431   5.539   8.423 -0.0469  0.2614 -0.5222
   91CHL1   H25 9206   1.529   5.517   8.375  0.2949 -0.6024  0.5393
   91CHL1   C26 9207   1.365   5.654   8.349  0.3475 -0.1715 -0.0511
   91CHL1  H26A 9208   1.396   5.752   8.392 -1.6924 -0.6424  2.8382
   91CHL1  H26B 9209   1.369   5.644   8.239  0.0894 -0.4893 -0.0331
   91CHL1  H26C 9210   1.254   5.665   8.356  0.4760  1.2138  0.1208
   91CHL1   C27 9211   1.458   5.603   8.561  0.5675  0.5680 -0.2929
   91CHL1  H27A 9212   1.518   5.696   8.551  2.2500 -0.4613 -0.1868
   91CHL1  H27B 9213   1.360   5.627   8.607  1.4071  0.3139  1.7624
   91CHL1  H27C 9214   1.507   5.547   8.644 -0.3570  1.9604  1.2788
   92CHL1    C3 9215   4.643   0.047   6.649 -0.3275 -0.6565 -0.2887
   92CHL1    H3 9216   4.707  -0.044   6.655  0.9633  0.1146 -1.8046
   92CHL1    O3 9217   4.667   0.085   6.516  0.2077  0.1207 -0.4560
   92CHL1   H3' 9218   4.661   0.181   6.513  1.3746  0.1959 -1.0205
   92CHL1    C4 9219   4.490   0.014   6.674  0.0693  0.3870  0.2414
   92CHL1   H4A 9220   4.439   0.110   6.651 -1.3803 -0.5130 -0.4680
   92CHL1   H4B 9221   4.459  -0.068   6.606  1.1347  0.0884  0.1000
   92CHL1    C5 9222   4.481  -0.038   6.819  0.1793  0.7267 -0.3211
   92CHL1    C6 9223   4.425  -0.161   6.843 -0.0327  0.1760 -0.0909
   92CHL1    H6 9224   4.384  -0.217   6.757 -0.7262 -0.4766  0.6388
   92CHL1    C7 9225   4.416  -0.217   6.981 -0.7888 -0.0359  0.0532
   92CHL1   H7A 9226   4.316  -0.260   7.003 -0.7460 -0.1466  0.0304
   92CHL1   H7B 9227   4.491  -0.298   6.991  2.1220  2.0351 -2.7667
   92CHL1    C8 9228   4.430  -0.105   7.094 -0.5273  0.0939  0.6073
   92CHL1    H8 9229   4.334  -0.050   7.079  0.3999  1.6051  0.0240
   92CHL1   C14 9230   4.443  -0.169   7.225 -0.3476  0.0789 -0.2260
   92CHL1   H14 9231   4.537  -0.229   7.225  0.4550  1.2749  1.0493
   92CHL1   C15 9232   4.326  -0.260   7.279  0.4709 -0.6735  0.2106
   92CHL1  H15A 9233   4.226  -0.231   7.241 -0.0385 -2.7601 -0.1504
   92CHL1  H15B 9234   4.343  -0.360   7.232 -0.8361 -1.2593  0.9216
   92CHL1   C16 9235   4.335  -0.256   7.432 -0.5348 -0.7538 -0.0267
   92CHL1  H16A 9236   4.242  -0.211   7.473 -2.2007  0.3754 -4.4456
   92CHL1  H16B 9237   4.357  -0.355   7.476 -0.4784 -0.9785 -0.5576
   92CHL1   C17 9238   4.450  -0.164   7.470  0.0724 -0.4873  0.3000
   92CHL1   H17 9239   4.536  -0.234   7.474 -1.5633 -2.5512  2.1421
   92CHL1   C13 9240   4.470  -0.074   7.348  1.0036 -0.0818  0.1115
   92CHL1   C18 9241   4.349   0.034   7.365 -0.4800  0.2851 -0.4427
   92CHL1  H18A 9242   4.375   0.098   7.452 -0.1861  0.3140 -0.5504
   92CHL1  H18B 9243   4.331   0.105   7.281 -0.7949  2.7886  1.6174
   92CHL1  H18C 9244   4.246  -0.005   7.382 -0.8692  2.2084  2.1815
   92CHL1   C12 9245   4.596   0.011   7.325 -1.0005 -0.4839 -0.2386
   92CHL1  H12A 9246   4.611   0.099   7.391  1.5481 -0.9350 -0.1080
   92CHL1  H12B 9247   4.689  -0.048   7.339 -1.5363 -2.2771 -3.2704
   92CHL1   C11 9248   4.593   0.083   7.188  0.0015 -0.3856  0.5359
   92CHL1  H11A 9249   4.515   0.160   7.205 -0.3078 -0.8324  1.1743
   92CHL1  H11B 9250   4.692   0.123   7.156 -1.4005  1.5015 -1.7672
   92CHL1    C9 9251   4.551  -0.015   7.063  0.2731 -0.5100 -0.5717
   92CHL1    H9 9252   4.635  -0.086   7.045 -0.5790 -1.9263  0.7293
   92CHL1   C10 9253   4.539   0.056   6.928  0.2706  0.5280 -0.0150
   92CHL1   C19 9254   4.436   0.170   6.935 -0.2367  0.1436 -0.4161
   92CHL1  H19A 9255   4.412   0.209   6.834  0.8722 -1.1274 -1.2128
   92CHL1  H19B 9256   4.338   0.135   6.974 -0.3527 -0.6519 -1.3849
   92CHL1  H19C 9257   4.461   0.252   7.006 -1.0470  1.4857 -1.6423
   92CHL1    C1 9258   4.677   0.104   6.884  0.3454  0.2515  0.1133
   92CHL1   H1A 9259   4.715   0.174   6.961  2.3677  1.7361 -2.0761
   92CHL1   H1B 9260   4.735   0.009   6.879 -0.0785 -0.0087  0.0904
   92CHL1    C2 9261   4.697   0.159   6.743  1.2726 -0.2945 -0.0345
   92CHL1   H2A 9262   4.804   0.164   6.715  1.1455 -2.2476 -1.0375
   92CHL1   H2B 9263   4.632   0.249   6.730  0.6766 -0.8350 -0.9796
   92CHL1   C20 9264   4.446  -0.101   7.613 -0.4037 -0.1182 -0.5403
   92CHL1   H20 9265   4.358  -0.036   7.632  0.7803  0.8151  2.2259
   92CHL1   C21 9266   4.569  -0.006   7.634 -0.1632  0.3510 -0.2788
   92CHL1  H21A 9267   4.558   0.092   7.582  1.8133 -1.2309 -4.0871
   92CHL1  H21B 9268   4.667  -0.052   7.609 -1.4587 -1.7383 -1.8647
   92CHL1  H21C 9269   4.575   0.027   7.740  1.0770  0.8966 -0.5059
   92CHL1   C22 9270   4.439  -0.210   7.722 -0.6314  0.0360  0.0880
   92CHL1  H22A 9271   4.353  -0.273   7.689 -1.3715  1.2797 -0.4248
   92CHL1  H22B 9272   4.526  -0.279   7.720 -0.6796 -0.0187 -0.3420
   92CHL1   C23 9273   4.426  -0.149   7.860  0.2409 -0.0872 -0.5288
   92CHL1  H23A 9274   4.520  -0.093   7.880 -0.3172  1.3585 -1.7757
   92CHL1  H23B 9275   4.340  -0.078   7.858  0.2610 -0.0750 -1.1508
   92CHL1   C24 9276   4.414  -0.253   7.973  0.3100 -0.1792 -0.0158
   92CHL1  H24A 9277   4.314  -0.293   7.948  0.3893 -0.9522  0.8470
   92CHL1  H24B 9278   4.490  -0.334   7.968  0.1323 -0.3269 -0.3686
   92CHL1   C25 9279   4.382  -0.195   8.117 -0.5531  0.7676 -0.1075
   92CHL1   H25 9280   4.308  -0.115   8.096  0.0536  1.0943 -1.0945
   92CHL1   C26 9281   4.311  -0.302   8.204  0.0504  0.1065  0.0629
   92CHL1  H26A 9282   4.252  -0.256   8.286  0.1106 -1.9747  1.3289
   92CHL1  H26B 9283   4.255  -0.376   8.143  0.6829 -0.4985  0.2068
   92CHL1  H26C 9284   4.385  -0.374   8.245  0.1515  0.0973 -0.1300
   92CHL1   C27 9285   4.503  -0.118   8.176 -0.6024  0.7712 -0.2589
   92CHL1  H27A 9286   4.547  -0.046   8.103  2.6326 -0.7897 -0.0266
   92CHL1  H27B 9287   4.462  -0.057   8.259 -0.4355  0.1374  0.2995
   92CHL1  H27C 9288   4.576  -0.192   8.216  0.9479  1.9814 -0.7399
   93CHL1    C3 9289   2.353   4.734   6.948  0.4529 -0.0362  0.8766
   93CHL1    H3 9290   2.274   4.658   6.928 -0.5717  0.7650  1.7708
   93CHL1    O3 9291   2.431   4.757   6.835  0.3181 -0.3401 -0.0266
   93CHL1   H3' 9292   2.378   4.796   6.766  1.6692 -1.4848 -1.8188
   93CHL1    C4 9293   2.280   4.859   6.979 -0.4750  0.3818 -0.1734
   93CHL1   H4A 9294   2.345   4.949   6.973 -0.8711  0.7038  0.2712
   93CHL1   H4B 9295   2.208   4.883   6.898  0.8605  2.1190 -0.9132
   93CHL1    C5 9296   2.222   4.857   7.120 -0.1473  0.3951  0.6596
   93CHL1    C6 9297   2.095   4.893   7.136  0.2463 -0.0411 -0.2053
   93CHL1    H6 9298   2.036   4.920   7.047  1.6145 -0.0022 -1.1237
   93CHL1    C7 9299   2.030   4.912   7.273  0.0009 -0.1912 -0.0872
   93CHL1   H7A 9300   1.968   5.004   7.281  0.2727  0.2395 -2.2616
   93CHL1   H7B 9301   1.952   4.836   7.293 -0.1674 -0.4780 -1.6985
   93CHL1    C8 9302   2.131   4.908   7.389 -0.4996 -0.4699 -0.2304
   93CHL1    H8 9303   2.197   4.996   7.407  0.6179 -1.4115  0.4482
   93CHL1   C14 9304   2.057   4.879   7.520 -0.0725  0.1463  0.6988
   93CHL1   H14 9305   2.004   4.782   7.516 -0.4085  0.3725 -0.9386
   93CHL1   C15 9306   1.945   4.989   7.553 -0.4632  1.1738 -0.2801
   93CHL1  H15A 9307   1.987   5.092   7.548 -0.2626  1.0345 -2.3232
   93CHL1  H15B 9308   1.864   4.984   7.477  2.1640  3.7857 -3.6220
   93CHL1   C16 9309   1.913   4.958   7.694 -0.1480  0.3730 -0.0975
   93CHL1  H16A 9310   1.918   5.055   7.747 -0.0868  0.8708 -0.9985
   93CHL1  H16B 9311   1.806   4.929   7.705  0.3431 -1.8651 -0.7731
   93CHL1   C17 9312   2.021   4.869   7.751 -0.1534  0.1798 -0.5546
   93CHL1   H17 9313   1.992   4.762   7.751 -5.3112  1.3077 -0.2838
   93CHL1   C13 9314   2.142   4.872   7.650 -0.3575 -0.0186  0.1970
   93CHL1   C18 9315   2.226   5.003   7.686  0.6487 -0.6118  0.4451
   93CHL1  H18A 9316   2.160   5.089   7.713  1.2515 -0.2425  0.7570
   93CHL1  H18B 9317   2.308   4.989   7.759  2.0774  3.3110 -0.1737
   93CHL1  H18C 9318   2.274   5.033   7.590 -0.2358 -1.7556 -0.3933
   93CHL1   C12 9319   2.230   4.746   7.634  0.3752 -0.2770 -1.0608
   93CHL1  H12A 9320   2.301   4.723   7.716 -1.0715 -2.0209 -0.2311
   93CHL1  H12B 9321   2.151   4.671   7.614 -1.0004  1.0607 -0.8797
   93CHL1   C11 9322   2.309   4.756   7.500 -0.2609  1.0679 -0.4913
   93CHL1  H11A 9323   2.389   4.833   7.506 -0.7545  1.5142  0.8262
   93CHL1  H11B 9324   2.369   4.664   7.486  1.2735  1.8003  0.8617
   93CHL1    C9 9325   2.230   4.790   7.365  0.1508  0.0596 -0.3893
   93CHL1    H9 9326   2.168   4.699   7.350 -0.6520  0.7408 -1.3546
   93CHL1   C10 9327   2.309   4.806   7.230 -0.1275  0.0672 -0.3172
   93CHL1   C19 9328   2.416   4.905   7.250  0.1141  0.0550  0.4279
   93CHL1  H19A 9329   2.370   5.001   7.284 -0.0105  0.3541 -0.5767
   93CHL1  H19B 9330   2.487   4.884   7.333  0.3291  0.6323  0.3929
   93CHL1  H19C 9331   2.479   4.928   7.162  2.5647 -0.5441  1.9333
   93CHL1    C1 9332   2.375   4.665   7.190  0.0926 -0.6429 -1.1841
   93CHL1   H1A 9333   2.451   4.636   7.266  0.4502  0.0742 -1.2526
   93CHL1   H1B 9334   2.301   4.584   7.174 -0.9746  0.4114 -1.7832
   93CHL1    C2 9335   2.445   4.683   7.054  0.1977  0.0299 -0.5483
   93CHL1   H2A 9336   2.484   4.581   7.032 -2.4467 -0.8096 -1.7247
   93CHL1   H2B 9337   2.533   4.750   7.067  1.1285 -1.1289 -0.6869
   93CHL1   C20 9338   2.052   4.900   7.898  0.2772 -0.6055  0.1722
   93CHL1   H20 9339   2.079   5.007   7.914 -0.6577 -0.0528 -1.7200
   93CHL1   C21 9340   2.165   4.811   7.953 -0.2522  0.0282  0.4097
   93CHL1  H21A 9341   2.261   4.858   7.926  0.0920  0.0183  1.5819
   93CHL1  H21B 9342   2.168   4.710   7.905  0.5028  0.2203  0.0479
   93CHL1  H21C 9343   2.152   4.805   8.063 -1.4341 -0.9795  0.2470
   93CHL1   C22 9344   1.916   4.860   7.965  0.0547 -0.5979 -0.3272
   93CHL1  H22A 9345   1.830   4.922   7.932  1.2621  2.5850  2.0035
   93CHL1  H22B 9346   1.888   4.754   7.949 -2.0047 -0.1843  0.3226
   93CHL1   C23 9347   1.915   4.875   8.123 -0.1364 -0.3349  0.8886
   93CHL1  H23A 9348   1.960   4.780   8.159 -1.4231 -0.9137  1.0448
   93CHL1  H23B 9349   1.983   4.959   8.147  1.5416 -1.1763 -0.7132
   93CHL1   C24 9350   1.767   4.875   8.164 -0.2500 -0.2732 -0.2951
   93CHL1  H24A 9351   1.718   4.961   8.112 -0.6809 -1.1265 -1.3335
   93CHL1  H24B 9352   1.723   4.783   8.121  1.3207 -1.8701  1.3749
   93CHL1   C25 9353   1.738   4.868   8.313  0.0159  0.1042 -0.5719
   93CHL1   H25 9354   1.634   4.903   8.325  0.6877  2.1452 -0.3574
   93CHL1   C26 9355   1.751   4.727   8.362 -0.4889  0.4754  0.3779
   93CHL1  H26A 9356   1.857   4.694   8.357 -0.4725  0.5854 -0.0377
   93CHL1  H26B 9357   1.721   4.718   8.468 -1.2639  2.5291  0.3818
   93CHL1  H26C 9358   1.685   4.655   8.310 -0.5164 -0.4518  1.6640
   93CHL1   C27 9359   1.812   4.963   8.400  0.6015 -0.2661 -0.1079
   93CHL1  H27A 9360   1.797   5.069   8.372  2.0674  0.5349  1.9098
   93CHL1  H27B 9361   1.779   4.951   8.506  2.0348 -3.6245  0.0742
   93CHL1  H27C 9362   1.922   4.957   8.412  0.4356 -2.8122  0.8710
   94CHL1    C3 9363   4.852   0.723   6.857 -0.0446  0.0857  0.3254
   94CHL1    H3 9364   4.747   0.758   6.872  0.3892  1.5335  0.1874
   94CHL1    O3 9365   4.869   0.705   6.715  0.0209 -0.0381  0.0865
   94CHL1   H3' 9366   4.854   0.610   6.716 -2.4270  0.2805  0.8039
   94CHL1    C4 9367   4.946   0.835   6.908  0.1063 -0.7880 -0.5055
   94CHL1   H4A 9368   5.044   0.822   6.859  0.5074  0.3476 -0.0161
   94CHL1   H4B 9369   4.902   0.929   6.869 -2.5495 -0.9474  1.7478
   94CHL1    C5 9370   4.955   0.845   7.054 -0.5406 -0.4588  0.1155
   94CHL1    C6 9371   4.938   0.959   7.123  0.7741 -0.0290 -1.1301
   94CHL1    H6 9372   4.918   1.057   7.078  0.2891  1.1551  1.4902
   94CHL1    C7 9373   4.961   0.982   7.266  0.0024  0.8183  0.2876
   94CHL1   H7A 9374   5.033   1.067   7.267  0.7353  0.2159  0.0413
   94CHL1   H7B 9375   4.859   1.007   7.302 -1.0659  1.0049 -2.5676
   94CHL1    C8 9376   5.031   0.869   7.343 -0.3902  0.2775  0.2023
   94CHL1    H8 9377   5.140   0.868   7.320 -0.5511 -0.4374 -0.5533
   94CHL1   C14 9378   4.998   0.879   7.491  0.2011 -0.0971 -0.6736
   94CHL1   H14 9379   4.895   0.842   7.509  0.1070  0.8430  0.9425
   94CHL1   C15 9380   5.008   1.017   7.554 -0.1971 -0.4710 -0.4102
   94CHL1  H15A 9381   5.111   1.054   7.534  0.4304 -1.9819 -0.0615
   94CHL1  H15B 9382   4.937   1.095   7.517  1.4401  1.5503  0.5332
   94CHL1   C16 9383   4.997   0.982   7.699  0.6820  0.4647 -0.5068
   94CHL1  H16A 9384   5.066   1.046   7.758  1.1630  0.4564 -1.0657
   94CHL1  H16B 9385   4.894   1.000   7.739  0.6703  0.2881 -0.4581
   94CHL1   C17 9386   5.027   0.826   7.722  0.3704  0.2977 -0.0053
   94CHL1   H17 9387   4.927   0.780   7.741  0.8461 -1.4346 -1.4428
   94CHL1   C13 9388   5.071   0.780   7.580  0.3422 -0.0583  0.1557
   94CHL1   C18 9389   5.227   0.797   7.566  0.7625 -0.0355  0.4478
   94CHL1  H18A 9390   5.262   0.766   7.465 -0.4846 -2.5066  0.7025
   94CHL1  H18B 9391   5.257   0.901   7.593  0.7481  0.1172 -0.1102
   94CHL1  H18C 9392   5.281   0.720   7.625  1.1922 -2.5519 -2.9366
   94CHL1   C12 9393   5.029   0.637   7.536 -0.1366 -0.3818 -0.2645
   94CHL1  H12A 9394   5.082   0.553   7.585 -1.4342 -0.8274  0.4240
   94CHL1  H12B 9395   4.923   0.627   7.569 -0.0950  1.1201  0.4472
   94CHL1   C11 9396   5.041   0.619   7.384 -0.0945 -0.6139  0.7875
   94CHL1  H11A 9397   5.149   0.618   7.355  0.3073  0.4957  2.0985
   94CHL1  H11B 9398   4.996   0.525   7.347 -1.1229  0.9614 -2.3352
   94CHL1    C9 9399   4.981   0.733   7.291 -0.6868 -0.6082  0.1719
   94CHL1    H9 9400   4.871   0.727   7.307 -0.6145 -0.2574  0.8142
   94CHL1   C10 9401   4.995   0.709   7.134  0.2814 -0.3812  0.3275
   94CHL1   C19 9402   5.140   0.670   7.090  1.1334 -0.1943 -0.1565
   94CHL1  H19A 9403   5.146   0.648   6.981  1.3290  3.8812 -1.1221
   94CHL1  H19B 9404   5.208   0.758   7.102  0.0784  0.6941 -0.5310
   94CHL1  H19C 9405   5.154   0.585   7.160  2.4461  0.6422  0.6302
   94CHL1    C1 9406   4.888   0.603   7.080  0.0742 -0.3783  0.2153
   94CHL1   H1A 9407   4.921   0.504   7.119 -2.5295 -1.2682  0.3231
   94CHL1   H1B 9408   4.799   0.626   7.143 -0.6363  1.1845 -1.2897
   94CHL1    C2 9409   4.868   0.586   6.928  0.1872 -0.1902  0.3879
   94CHL1   H2A 9410   4.782   0.518   6.912  0.7362 -0.8713  0.2742
   94CHL1   H2B 9411   4.961   0.543   6.883 -0.7163 -0.6443 -1.1285
   94CHL1   C20 9412   5.109   0.791   7.848  0.4248  0.3471  0.1233
   94CHL1   H20 9413   5.215   0.824   7.843  0.4895  0.3277  1.2967
   94CHL1   C21 9414   5.117   0.638   7.853  0.4933 -0.1414 -0.0152
   94CHL1  H21A 9415   5.023   0.595   7.812  1.3340 -1.1641 -0.9277
   94CHL1  H21B 9416   5.132   0.609   7.960 -1.9597  0.7091  0.6192
   94CHL1  H21C 9417   5.211   0.608   7.802  0.8652  1.6973 -0.4842
   94CHL1   C22 9418   5.046   0.843   7.975  1.1456 -0.2132  0.7376
   94CHL1  H22A 9419   5.002   0.943   7.957 -0.4066 -0.9827  0.1017
   94CHL1  H22B 9420   4.958   0.779   7.995  0.5537 -0.1672 -1.4536
   94CHL1   C23 9421   5.151   0.856   8.090  0.1505 -0.0588  0.3707
   94CHL1  H23A 9422   5.223   0.772   8.082  0.4350  0.1587  0.6413
   94CHL1  H23B 9423   5.218   0.942   8.073  1.6753 -0.5744  3.1820
   94CHL1   C24 9424   5.084   0.868   8.227  0.2885 -0.5726  0.0584
   94CHL1  H24A 9425   5.022   0.960   8.221  0.1514 -0.6438  0.3997
   94CHL1  H24B 9426   5.011   0.788   8.249 -1.9031  0.8876 -1.5055
   94CHL1   C25 9427   5.186   0.893   8.339  0.7310 -0.5473  0.1077
   94CHL1   H25 9428   5.289   0.863   8.309  0.9600  0.5197 -0.2317
   94CHL1   C26 9429   5.192   1.044   8.376  0.3910  0.2467  0.0156
   94CHL1  H26A 9430   5.229   1.101   8.288 -1.4643  1.4572 -0.0364
   94CHL1  H26B 9431   5.091   1.079   8.405 -0.2960 -0.8962 -0.9328
   94CHL1  H26C 9432   5.265   1.069   8.456 -0.2438 -1.5418  1.1979
   94CHL1   C27 9433   5.157   0.808   8.461 -0.9765  0.0348 -0.4966
   94CHL1  H27A 9434   5.060   0.848   8.498 -0.8648  0.0600 -0.2307
   94CHL1  H27B 9435   5.162   0.699   8.438  3.6890  0.1745 -1.0326
   94CHL1  H27C 9436   5.231   0.845   8.535  0.5904  1.2317 -2.5264
   95CHL1    C3 9437   5.113   6.081   6.847 -0.2197 -0.4916 -0.2949
   95CHL1    H3 9438   5.074   6.184   6.862 -3.2325 -1.6246  0.4731
   95CHL1    O3 9439   5.124   6.053   6.709 -0.3098  0.4407 -0.1940
   95CHL1   H3' 9440   5.135   5.958   6.701  0.8278  0.5751 -0.3599
   95CHL1    C4 9441   5.257   6.054   6.902 -0.4722 -0.5669 -0.4940
   95CHL1   H4A 9442   5.263   5.945   6.883 -0.0707 -0.6460  0.0563
   95CHL1   H4B 9443   5.337   6.110   6.849  1.0545 -0.5676  1.6514
   95CHL1    C5 9444   5.242   6.075   7.050  0.8049  0.2633 -0.0074
   95CHL1    C6 9445   5.303   6.174   7.112  0.0631  0.1976  0.5240
   95CHL1    H6 9446   5.371   6.243   7.059 -1.8038  1.8439  0.1650
   95CHL1    C7 9447   5.296   6.210   7.256  0.3265 -0.3886 -0.2402
   95CHL1   H7A 9448   5.395   6.243   7.293  1.6021 -1.0163 -2.8728
   95CHL1   H7B 9449   5.224   6.292   7.276 -3.1417 -2.9402 -1.2946
   95CHL1    C8 9450   5.257   6.084   7.335 -0.7788  0.2010 -0.5322
   95CHL1    H8 9451   5.340   6.011   7.321  1.4048  2.4275  0.0626
   95CHL1   C14 9452   5.239   6.105   7.481  0.4535  0.2936 -0.4304
   95CHL1   H14 9453   5.158   6.180   7.498  1.8071  2.1531 -1.7139
   95CHL1   C15 9454   5.361   6.164   7.559 -0.3188 -0.2020  0.2936
   95CHL1  H15A 9455   5.450   6.111   7.521  0.0979  0.0844  0.8693
   95CHL1  H15B 9456   5.374   6.270   7.527 -2.7598 -0.4889 -2.0679
   95CHL1   C16 9457   5.352   6.137   7.705  0.0584  0.6318 -0.3765
   95CHL1  H16A 9458   5.445   6.083   7.733 -1.5690 -0.9399  2.4507
   95CHL1  H16B 9459   5.337   6.226   7.770  1.0319 -0.2269  1.0609
   95CHL1   C17 9460   5.230   6.034   7.719 -0.7000 -0.5749  0.1777
   95CHL1   H17 9461   5.149   6.103   7.750 -0.2680  0.6011 -1.2026
   95CHL1   C13 9462   5.203   5.981   7.568 -0.3259  0.1823 -0.3556
   95CHL1   C18 9463   5.307   5.866   7.543 -0.2575 -0.3811 -0.5438
   95CHL1  H18A 9464   5.412   5.888   7.572 -1.0682  0.9507  1.6073
   95CHL1  H18B 9465   5.269   5.774   7.594  0.9822  0.9220  3.0518
   95CHL1  H18C 9466   5.313   5.841   7.435  1.8631  0.6651 -0.7127
   95CHL1   C12 9467   5.061   5.938   7.530  0.0980  0.0349  0.2759
   95CHL1  H12A 9468   5.032   5.848   7.588 -1.0914  1.3912  1.8947
   95CHL1  H12B 9469   5.001   6.025   7.563 -0.0912  0.6430 -1.5564
   95CHL1   C11 9470   5.054   5.918   7.374 -0.3133  0.4434  0.0567
   95CHL1  H11A 9471   5.105   5.820   7.362 -1.6290 -0.3019  0.3877
   95CHL1  H11B 9472   4.948   5.897   7.347 -0.5032 -1.5109  2.0272
   95CHL1    C9 9473   5.129   6.020   7.278 -0.4587  0.0064 -0.0005
   95CHL1    H9 9474   5.060   6.106   7.289  0.7127  0.9027  0.7479
   95CHL1   C10 9475   5.139   5.985   7.131  0.4766 -0.2101 -0.0686
   95CHL1   C19 9476   5.189   5.834   7.120  0.6733 -0.0654 -0.0429
   95CHL1  H19A 9477   5.102   5.765   7.110 -0.5364  1.5482 -1.1975
   95CHL1  H19B 9478   5.248   5.803   7.031  1.0495 -0.3917  0.3194
   95CHL1  H19C 9479   5.249   5.811   7.210 -0.5108  0.8533  1.0175
   95CHL1    C1 9480   5.005   5.990   7.061  0.0106 -0.5181  0.2096
   95CHL1   H1A 9481   4.941   5.909   7.102  0.2730 -0.8756 -0.0864
   95CHL1   H1B 9482   4.951   6.086   7.078 -1.0666 -0.6172 -2.2556
   95CHL1    C2 9483   5.009   5.982   6.905 -0.3795 -0.1681 -0.4536
   95CHL1   H2A 9484   4.911   5.997   6.855  0.3393  0.4606 -1.7249
   95CHL1   H2B 9485   5.038   5.883   6.866 -0.5924 -0.2627 -0.3728
   95CHL1   C20 9486   5.254   5.932   7.822  0.5880 -0.1673 -0.0423
   95CHL1   H20 9487   5.347   5.876   7.799 -0.4799 -1.9689 -0.1964
   95CHL1   C21 9488   5.136   5.839   7.845 -0.0959 -1.3393  0.4419
   95CHL1  H21A 9489   5.156   5.781   7.938  1.8986 -1.0501  0.2329
   95CHL1  H21B 9490   5.129   5.772   7.757 -0.5890  0.4696 -0.9420
   95CHL1  H21C 9491   5.036   5.888   7.847  0.6571  0.2321  0.9071
   95CHL1   C22 9492   5.292   5.988   7.967  0.0172 -0.6465 -0.4223
   95CHL1  H22A 9493   5.309   5.908   8.041 -2.1571  1.4305  2.5803
   95CHL1  H22B 9494   5.385   6.046   7.946 -0.3169 -0.0983 -0.4197
   95CHL1   C23 9495   5.194   6.087   8.037  0.0583 -0.4407  0.2243
   95CHL1  H23A 9496   5.178   6.182   7.981  0.5540 -0.0079  0.8129
   95CHL1  H23B 9497   5.093   6.043   8.051 -0.7374  0.7282 -1.5473
   95CHL1   C24 9498   5.263   6.143   8.160  0.0240 -0.2927  0.2119
   95CHL1  H24A 9499   5.294   6.056   8.222 -0.2081 -1.5109 -1.3420
   95CHL1  H24B 9500   5.362   6.179   8.126  0.6041 -0.3627  1.7357
   95CHL1   C25 9501   5.194   6.253   8.252  0.1085 -0.8093  0.5891
   95CHL1   H25 9502   5.192   6.342   8.185 -0.6921 -1.4917 -0.3321
   95CHL1   C26 9503   5.048   6.221   8.295  0.4614 -0.5688 -0.3864
   95CHL1  H26A 9504   5.004   6.298   8.362 -0.7151 -1.4787 -0.0782
   95CHL1  H26B 9505   4.977   6.232   8.211  0.3228  0.4787 -0.1468
   95CHL1  H26C 9506   5.034   6.119   8.338  1.4476 -0.0044  1.3841
   95CHL1   C27 9507   5.285   6.290   8.368 -0.2190 -0.4099  0.0270
   95CHL1  H27A 9508   5.307   6.196   8.423 -0.7239  0.3652  1.6418
   95CHL1  H27B 9509   5.373   6.344   8.329 -2.3276  1.7771 -2.0609
   95CHL1  H27C 9510   5.237   6.360   8.440  3.4005  3.9627 -1.3423
   96CHL1    C3 9511   3.519   5.913   6.917 -0.8570  0.7158 -0.1718
   96CHL1    H3 9512   3.513   5.804   6.898  1.6576  0.3032  0.9736
   96CHL1    O3 9513   3.496   5.973   6.790  0.6695 -0.3949  0.7694
   96CHL1   H3' 9514   3.576   5.954   6.741  0.2631  0.9818 -0.4852
   96CHL1    C4 9515   3.407   5.964   7.014 -0.1843  0.1001 -0.0586
   96CHL1   H4A 9516   3.402   6.074   7.005  3.6626  0.6077  1.8811
   96CHL1   H4B 9517   3.318   5.921   6.964  1.1929 -1.6650 -1.1425
   96CHL1    C5 9518   3.418   5.921   7.157  0.6138 -0.2622 -0.2300
   96CHL1    C6 9519   3.318   5.858   7.221 -0.2850  0.2385 -0.0038
   96CHL1    H6 9520   3.229   5.828   7.165  0.4265 -1.2956 -0.3494
   96CHL1    C7 9521   3.325   5.823   7.367  0.7413 -0.4832 -0.3407
   96CHL1   H7A 9522   3.232   5.861   7.414  0.6432  0.8874 -1.5694
   96CHL1   H7B 9523   3.317   5.712   7.367  0.9701 -0.5108 -1.4529
   96CHL1    C8 9524   3.442   5.882   7.443 -0.3234 -0.5755 -0.1232
   96CHL1    H8 9525   3.422   5.988   7.470 -0.3749 -0.3213 -1.1219
   96CHL1   C14 9526   3.467   5.805   7.572  0.6828  0.1410 -0.4566
   96CHL1   H14 9527   3.496   5.705   7.533  1.1072  0.9860 -2.3900
   96CHL1   C15 9528   3.347   5.780   7.662  0.4425  0.0461 -0.7012
   96CHL1  H15A 9529   3.289   5.873   7.679  0.0855 -0.2290 -0.4186
   96CHL1  H15B 9530   3.280   5.698   7.630  0.7168 -0.2518 -0.5230
   96CHL1   C16 9531   3.416   5.746   7.795  0.8572 -0.2066  0.1772
   96CHL1  H16A 9532   3.383   5.819   7.872 -1.0451  0.6764 -1.3866
   96CHL1  H16B 9533   3.391   5.642   7.825  1.2423 -1.3892 -3.2549
   96CHL1   C17 9534   3.572   5.747   7.769  0.7019  0.7536 -0.8560
   96CHL1   H17 9535   3.599   5.647   7.730  2.9312  1.2013 -0.6168
   96CHL1   C13 9536   3.588   5.848   7.652  0.2512 -0.4655 -0.4083
   96CHL1   C18 9537   3.590   5.994   7.706 -0.0616 -0.0697  0.2895
   96CHL1  H18A 9538   3.688   6.005   7.757  1.7497 -1.1447 -2.7115
   96CHL1  H18B 9539   3.591   6.066   7.621 -0.1420 -0.5876 -0.1503
   96CHL1  H18C 9540   3.502   6.012   7.773 -1.6472 -0.4310 -1.5922
   96CHL1   C12 9541   3.710   5.826   7.563  0.3855  0.6654 -0.8386
   96CHL1  H12A 9542   3.809   5.850   7.608 -0.7917 -0.6646  2.8091
   96CHL1  H12B 9543   3.726   5.722   7.528 -1.0645 -1.3269  3.7114
   96CHL1   C11 9544   3.698   5.914   7.432 -0.2831 -0.4647 -0.5300
   96CHL1  H11A 9545   3.696   6.023   7.456  0.4001 -0.9003  1.7850
   96CHL1  H11B 9546   3.788   5.899   7.368  0.3931 -2.1611  0.7458
   96CHL1    C9 9547   3.566   5.887   7.352  0.2768  0.5714  0.4412
   96CHL1    H9 9548   3.584   5.779   7.333 -0.2665  0.3623  1.0901
   96CHL1   C10 9549   3.554   5.952   7.219 -0.0026  0.3704  0.2696
   96CHL1   C19 9550   3.559   6.109   7.233 -0.2665 -0.2584  0.2376
   96CHL1  H19A 9551   3.474   6.152   7.290  0.3664  1.9287 -0.3538
   96CHL1  H19B 9552   3.663   6.135   7.261 -0.6801  0.7315  0.9449
   96CHL1  H19C 9553   3.545   6.147   7.129  2.4054 -0.3273 -0.2030
   96CHL1    C1 9554   3.667   5.907   7.120  0.1868 -0.1075 -0.3966
   96CHL1   H1A 9555   3.756   5.959   7.161 -0.3871  0.2362  0.4438
   96CHL1   H1B 9556   3.673   5.796   7.126  0.8030 -0.0361  0.5276
   96CHL1    C2 9557   3.654   5.952   6.974 -0.5050 -0.0480  0.4641
   96CHL1   H2A 9558   3.741   5.908   6.921 -0.9648 -0.6944  0.2330
   96CHL1   H2B 9559   3.661   6.062   6.962  3.5201 -0.2238  0.0482
   96CHL1   C20 9560   3.661   5.771   7.902  0.2785 -0.4504  0.6752
   96CHL1   H20 9561   3.655   5.880   7.925  1.8677 -0.2944  0.4446
   96CHL1   C21 9562   3.810   5.748   7.877 -0.6878 -0.5395 -0.3042
   96CHL1  H21A 9563   3.828   5.646   7.836  0.0502 -1.3773  1.9343
   96CHL1  H21B 9564   3.868   5.754   7.971  0.4765 -0.4670 -1.0024
   96CHL1  H21C 9565   3.855   5.828   7.815  1.5335 -0.0997  1.7424
   96CHL1   C22 9566   3.600   5.695   8.024 -0.5182 -0.2879 -0.0850
   96CHL1  H22A 9567   3.493   5.724   8.031 -1.1830 -1.7478 -2.7327
   96CHL1  H22B 9568   3.612   5.585   8.007 -1.4114 -0.4556  0.3293
   96CHL1   C23 9569   3.661   5.734   8.167  0.2431 -0.4087 -0.2370
   96CHL1  H23A 9570   3.588   5.692   8.240 -4.3599  5.0694 -1.0048
   96CHL1  H23B 9571   3.763   5.689   8.167 -0.4242 -2.0482 -1.6727
   96CHL1   C24 9572   3.653   5.882   8.197 -0.1636  0.6574 -0.3309
   96CHL1  H24A 9573   3.710   5.940   8.122 -1.1680  2.8899  0.5428
   96CHL1  H24B 9574   3.550   5.913   8.169 -0.4734 -0.8012 -0.9412
   96CHL1   C25 9575   3.701   5.927   8.336 -0.4133  0.7258 -0.6500
   96CHL1   H25 9576   3.626   5.894   8.411  0.2336  1.3690  0.3112
   96CHL1   C26 9577   3.828   5.852   8.373  0.4637  0.9069 -0.4880
   96CHL1  H26A 9578   3.800   5.748   8.400  2.0700  1.0298  2.0339
   96CHL1  H26B 9579   3.889   5.842   8.280 -0.8011 -1.1884 -1.1442
   96CHL1  H26C 9580   3.883   5.901   8.457  0.1518  0.2618  0.0965
   96CHL1   C27 9581   3.730   6.077   8.342  0.5950  0.2620  0.0788
   96CHL1  H27A 9582   3.645   6.141   8.310 -0.0456  0.8474  2.6483
   96CHL1  H27B 9583   3.748   6.108   8.447  0.9964  1.1041 -0.2345
   96CHL1  H27C 9584   3.819   6.113   8.288  1.6041  2.8527  3.1607
   97OSM      N 9585   2.865   2.235  10.837 -0.0823  0.3936  0.4749
   97OSM    C15 9586   2.747   2.316  10.884 -0.2141 -0.3228  0.3216
   97OSM   H15A 9587   2.785   2.416  10.899  0.4711 -0.2441 -1.7379
   97OSM   H15B 9588   2.712   2.284  10.981  0.5868  0.4412  0.8812
   97OSM   H15C 9589   2.663   2.325  10.817 -0.5062  2.5343  0.9179
   97OSM    C14 9590   2.809   2.105  10.783 -0.4816 -0.2731  0.9641
   97OSM   H14A 9591   2.720   2.122  10.724 -1.4011  0.2342  2.4304
   97OSM   H14B 9592   2.778   2.040  10.864 -0.5528 -1.4697  0.0067
   97OSM   H14C 9593   2.881   2.043  10.732 -0.6224 -0.5846  1.1415
   97OSM    C13 9594   2.926   2.309  10.717 -0.2997  0.5903 -0.4047
   97OSM   H13A 9595   2.854   2.306  10.636 -0.6905 -1.5218 -0.0272
   97OSM   H13B 9596   3.013   2.256  10.683  0.7054  0.5893  1.9956
   97OSM   H13C 9597   2.957   2.408  10.746  0.6143 -0.1891  1.4685
   97OSM    C12 9598   2.970   2.208  10.943 -0.7357  0.2595  0.4538
   97OSM   H12A 9599   3.007   2.301  10.986  0.8968  0.1301 -0.5892
   97OSM   H12B 9600   3.060   2.157  10.912 -0.7864  0.2060  0.3969
   97OSM    C11 9601   2.941   2.121  11.064 -0.2483 -1.0859 -0.6005
   97OSM   H11A 9602   2.849   2.163  11.111  0.9597  1.3732 -0.2986
   97OSM   H11B 9603   3.020   2.134  11.141  0.1243  1.6991 -1.3669
   97OSM      P 9604   3.036   1.878  11.017  0.0389  0.0628 -0.2713
   97OSM    O13 9605   3.105   1.868  11.148  0.0302 -0.1543 -0.2941
   97OSM    O14 9606   2.974   1.756  10.960  0.4492  0.1713  0.7585
   97OSM    O11 9607   3.140   1.949  10.914  0.5226 -1.1053  0.3651
   97OSM    O12 9608   2.914   1.982  11.037 -0.0444 -0.7175  1.2526
   97OSM    C1S 9609   3.150   1.915  10.778 -0.3633  0.2207 -0.4132
   97OSM    H1S 9610   3.061   1.933  10.714  1.1877  2.4861 -2.1222
   97OSM    H1T 9611   3.170   1.806  10.771 -0.3968 -0.0181  2.2358
   97OSM     NF 9612   3.251   1.984  10.565  0.2341 -0.3182  0.2698
   97OSM    HNF 9613   3.299   1.910  10.519 -0.3056 -0.7283  0.3545
   97OSM    C2S 9614   3.261   1.993  10.707  0.6328 -0.3176 -0.2188
   97OSM    H2S 9615   3.249   2.101  10.730 -1.6251 -0.2982 -1.2079
   97OSM    C3S 9616   3.396   1.941  10.758 -0.3865 -0.0226  0.5709
   97OSM    H3S 9617   3.412   1.832  10.740  2.1299  0.5565 -1.2804
   97OSM     O3 9618   3.411   1.933  10.901 -0.2559 -0.7230  0.0365
   97OSM    HO3 9619   3.325   1.961  10.932 -0.7786 -2.1138 -0.1272
   97OSM    C4S 9620   3.514   2.014  10.698  0.0397 -0.1794  0.6637
   97OSM    H4S 9621   3.516   2.124  10.705  0.8159 -0.1765  0.4842
   97OSM    C5S 9622   3.623   1.952  10.644 -0.6356  0.4660  0.5425
   97OSM    H5S 9623   3.627   1.844  10.627 -0.9126  0.6065 -0.4833
   97OSM    C6S 9624   3.747   2.020  10.584 -0.0443  0.5003  0.1327
   97OSM    H6S 9625   3.829   1.958  10.541  1.3779  2.5047 -0.1773
   97OSM    H6T 9626   3.788   2.090  10.659 -2.7513  0.7319  1.5067
   97OSM    C7S 9627   3.715   2.097  10.455 -0.4750  0.1786  0.7098
   97OSM    H7S 9628   3.811   2.124  10.407 -1.3704 -0.2665 -1.4290
   97OSM    H7T 9629   3.652   2.184  10.482 -1.1076 -0.8099  2.6622
   97OSM    C8S 9630   3.662   2.011  10.342  0.3434  0.0825  0.2900
   97OSM    H8S 9631   3.581   1.947  10.382  1.1135  0.1920  2.0779
   97OSM    H8T 9632   3.742   1.941  10.309 -0.9638 -1.8452  1.0104
   97OSM    C9S 9633   3.621   2.100  10.222 -1.0668 -0.5033  0.3001
   97OSM    H9S 9634   3.708   2.154  10.179 -1.3059 -0.8742 -0.6859
   97OSM    H9T 9635   3.541   2.166  10.261 -0.7238  0.3892 -0.4793
   97OSM   C10S 9636   3.556   2.023  10.102  1.0996 -0.1931  0.3439
   97OSM   H10S 9637   3.463   1.968  10.129  1.1785 -1.2353 -1.3782
   97OSM   H10T 9638   3.628   1.955  10.053  0.8099  1.1636 -2.1112
   97OSM   C11S 9639   3.527   2.135   9.990 -0.0500 -0.0339  0.7173
   97OSM   H11S 9640   3.596   2.219  10.013  0.1247  0.1477 -0.4428
   97OSM   H11T 9641   3.422   2.171   9.999 -0.4555 -0.7690 -0.7450
   97OSM   C12S 9642   3.546   2.088   9.845 -0.5195 -0.7871  0.3932
   97OSM   H12S 9643   3.483   1.997   9.837 -0.2352 -0.8269 -2.9015
   97OSM   H12T 9644   3.657   2.082   9.846 -0.0743  3.8112 -0.3036
   97OSM   C13S 9645   3.496   2.182   9.733  0.0457  0.1385  0.4750
   97OSM   H13S 9646   3.534   2.286   9.744  1.4113 -0.0934 -1.5763
   97OSM   H13T 9647   3.385   2.182   9.729  0.0715  0.7235 -1.2448
   97OSM   C14S 9648   3.549   2.140   9.591 -0.3561  0.3866  0.5685
   97OSM   H14S 9649   3.557   2.029   9.586  0.7870  0.4741  0.0768
   97OSM   H14T 9650   3.653   2.174   9.573 -0.2994 -0.4504 -0.8373
   97OSM   C15S 9651   3.448   2.184   9.488  0.2455 -0.0542  0.1019
   97OSM   H15S 9652   3.469   2.292   9.478  1.4220 -0.2471  0.2895
   97OSM   H15T 9653   3.342   2.167   9.517  0.1088 -0.5961 -0.6964
   97OSM   C16S 9654   3.467   2.109   9.359  0.2157 -0.0083  0.1245
   97OSM   H16S 9655   3.449   2.000   9.370 -0.8431 -0.2582 -3.0857
   97OSM   H16T 9656   3.575   2.123   9.334  0.2006 -0.8744 -0.4698
   97OSM   C17S 9657   3.370   2.164   9.250  0.3882  0.3035  0.6317
   97OSM   H17S 9658   3.391   2.272   9.234  0.0297  0.1326 -1.1929
   97OSM   H17T 9659   3.265   2.158   9.286  0.4413  0.2960  0.7854
   97OSM   C18S 9660   3.383   2.087   9.118 -0.4807  0.3830 -0.2486
   97OSM   H18S 9661   3.328   2.139   9.037 -0.8063  0.1475 -0.1814
   97OSM   H18T 9662   3.348   1.982   9.130 -0.2821  0.0975 -1.9302
   97OSM   H18U 9663   3.488   2.082   9.081 -0.3771  0.5200  0.0246
   97OSM    C1F 9664   3.153   2.041  10.499 -0.7263  0.0172  0.4469
   97OSM     OF 9665   3.097   2.135  10.551  0.5146  1.1165 -0.0480
   97OSM    C2F 9666   3.102   1.998  10.363  0.4359  0.7694 -0.6395
   97OSM    H2F 9667   3.003   2.040  10.335  0.3299  1.2928  0.4534
   97OSM    H2G 9668   3.092   1.888  10.356  0.7637  0.7417 -0.6944
   97OSM    C3F 9669   3.211   2.042  10.259 -0.0758  0.0042  0.4824
   97OSM    H3F 9670   3.300   1.981  10.285 -1.0251 -0.8488  1.8064
   97OSM    H3G 9671   3.237   2.150  10.261 -0.9035  0.1956  2.2090
   97OSM    C4F 9672   3.173   2.017  10.104 -0.0102  0.2577 -0.0004
   97OSM    H4F 9673   3.150   1.911  10.081 -2.2451  0.5488  0.6060
   97OSM    H4G 9674   3.241   2.049  10.023 -0.0054  0.4345  0.0718
   97OSM    C5F 9675   3.040   2.082  10.062  0.3777 -0.0371 -0.3427
   97OSM    H5F 9676   3.034   2.181  10.112 -1.4015  0.2555 -1.0288
   97OSM    H5G 9677   2.950   2.036  10.108  0.2910 -0.1560 -0.6267
   97OSM    C6F 9678   3.022   2.116   9.916 -0.8094  0.4051  0.2736
   97OSM    H6F 9679   3.067   2.217   9.905 -0.5772  0.3217  0.4523
   97OSM    H6G 9680   2.920   2.150   9.890 -0.3499  1.1556 -0.6451
   97OSM    C7F 9681   3.080   2.016   9.816 -0.3733 -0.1687  0.6955
   97OSM    H7F 9682   3.035   1.916   9.833 -0.0501 -0.7534 -1.4557
   97OSM    H7G 9683   3.190   2.001   9.829 -0.2809 -1.6362 -1.2863
   97OSM    C8F 9684   3.062   2.046   9.661 -0.1175  0.3744 -0.7746
   97OSM    H8F 9685   3.101   1.953   9.614  0.4987  0.4173 -0.3595
   97OSM    H8G 9686   3.138   2.123   9.640  3.0131 -2.5091 -0.9339
   97OSM    C9F 9687   2.930   2.092   9.609  0.8051 -0.3602 -0.1204
   97OSM    H9F 9688   2.856   2.126   9.683  1.5070  1.8554 -0.3586
   97OSM   C10F 9689   2.886   2.072   9.488  0.1140  0.7721  0.0755
   97OSM   H10F 9690   2.795   2.118   9.448 -1.4579 -3.8317 -2.4014
   97OSM   C11F 9691   2.960   2.017   9.370 -0.5466  0.2952  0.1582
   97OSM   H11F 9692   3.066   2.012   9.403 -0.2794 -0.9038 -0.8136
   97OSM   H11G 9693   2.967   2.089   9.285  2.2822 -0.1439 -0.0688
   97OSM   C12F 9694   2.924   1.878   9.317  0.4492 -0.0159  0.3585
   97OSM   H12F 9695   2.822   1.889   9.276  0.1301  1.7583  1.5106
   97OSM   H12G 9696   2.917   1.812   9.406  0.6981 -1.5060 -0.6996
   97OSM   C13F 9697   3.031   1.818   9.225  0.1414  0.1285  0.5231
   97OSM   H13F 9698   3.008   1.710   9.220 -1.0897  0.3447  1.0402
   97OSM   H13G 9699   3.130   1.813   9.276  0.5739 -0.4623 -0.3580
   97OSM   C14F 9700   3.046   1.883   9.085  0.2108 -0.5760  0.0246
   97OSM   H14F 9701   3.108   1.975   9.097  1.0948 -1.4964  3.3834
   97OSM   H14G 9702   2.948   1.918   9.046  0.1565 -0.9592 -0.1820
   97OSM   C15F 9703   3.117   1.815   8.968  0.0472 -0.8005 -0.3679
   97OSM   H15F 9704   3.088   1.709   8.954  1.6461 -1.0343 -2.6026
   97OSM   H15G 9705   3.225   1.810   8.997  0.9261 -0.2053 -3.2124
   97OSM   C16F 9706   3.100   1.891   8.839  0.1721 -0.0316  0.1552
   97OSM   H16F 9707   3.162   1.851   8.756 -2.3145 -1.6683 -1.0423
   97OSM   H16G 9708   3.136   1.994   8.856  3.3104 -0.9208 -0.4717
   97OSM   C17F 9709   2.952   1.901   8.796  0.5415  0.4700 -0.4967
   97OSM   H17F 9710   2.892   1.965   8.864  2.1984  1.7055 -0.1267
   97OSM   H17G 9711   2.915   1.797   8.785 -4.9461  2.2267 -1.6908
   97OSM   C18F 9712   2.928   1.959   8.658 -0.0163 -0.7202 -0.6384
   97OSM   H18F 9713   2.999   1.903   8.593  2.4129 -0.1825  1.3779
   97OSM   H18G 9714   2.934   2.070   8.654 -1.0333 -0.6885 -1.4382
   97OSM   H18H 9715   2.825   1.938   8.624 -0.6694 -0.0387  0.8026
   98OSM      N 9716   3.018   0.711  11.203  0.0194 -0.2986 -0.0593
   98OSM    C15 9717   3.007   0.707  11.352  0.5743 -0.2151 -0.1689
   98OSM   H15A 9718   3.098   0.674  11.402 -0.2705 -1.6120  0.5235
   98OSM   H15B 9719   2.930   0.636  11.380  1.7686 -1.6915 -0.4759
   98OSM   H15C 9720   2.978   0.803  11.391  1.7199  0.7570 -1.6277
   98OSM    C14 9721   2.888   0.741  11.142  0.3323 -0.5805  0.7929
   98OSM   H14A 9722   2.881   0.849  11.143  1.0278 -0.5195  2.8125
   98OSM   H14B 9723   2.805   0.700  11.197 -1.0267  2.5483  1.2845
   98OSM   H14C 9724   2.882   0.690  11.047  0.6226 -0.7901  0.8875
   98OSM    C13 9725   3.111   0.824  11.172  0.8766  0.2110 -0.4553
   98OSM   H13A 9726   3.135   0.829  11.066  0.5445  1.5386 -0.4777
   98OSM   H13B 9727   3.199   0.812  11.233  0.6796 -0.6526 -0.3204
   98OSM   H13C 9728   3.053   0.911  11.200 -0.7912 -0.9047 -0.2801
   98OSM    C12 9729   3.067   0.581  11.149 -0.4092  0.3556  0.3536
   98OSM   H12A 9730   2.999   0.500  11.174 -0.8223  1.0936  1.7216
   98OSM   H12B 9731   3.165   0.554  11.184 -0.5738  0.0124  0.5584
   98OSM    C11 9732   3.089   0.570  10.992  0.0397  0.5794  0.4787
   98OSM   H11A 9733   3.151   0.481  10.967 -2.2106 -1.1350  0.6314
   98OSM   H11B 9734   3.145   0.659  10.955  0.3029 -0.4299 -1.7134
   98OSM      P 9735   2.891   0.418  10.910 -0.2913 -0.0589  0.1877
   98OSM    O13 9736   2.917   0.344  11.033 -0.2869  0.1975 -0.1771
   98OSM    O14 9737   2.754   0.453  10.874 -0.3540 -0.1752 -0.2775
   98OSM    O11 9738   2.963   0.347  10.793  0.7899 -0.5431 -0.2239
   98OSM    O12 9739   2.964   0.558  10.924  0.7456  0.3461 -0.2963
   98OSM    C1S 9740   2.962   0.411  10.665  0.2472  0.3744 -0.1598
   98OSM    H1S 9741   2.887   0.493  10.658 -0.9663 -0.7068 -0.2835
   98OSM    H1T 9742   2.927   0.337  10.590  0.1696  0.3491 -0.0997
   98OSM     NF 9743   3.102   0.523  10.496 -0.1887  0.0953  0.2500
   98OSM    HNF 9744   3.135   0.475  10.415  2.5648  1.1691  0.6257
   98OSM    C2S 9745   3.105   0.459  10.628 -0.0184 -0.7845  0.6223
   98OSM    H2S 9746   3.153   0.518  10.709 -0.4482 -1.4229  1.3619
   98OSM    C3S 9747   3.197   0.334  10.631  0.1855  0.2433  0.1268
   98OSM    H3S 9748   3.164   0.255  10.559  2.2138 -0.0010 -0.5872
   98OSM     O3 9749   3.213   0.276  10.760  0.4083 -0.3374  0.7662
   98OSM    HO3 9750   3.138   0.309  10.810 -0.2129  0.3775 -0.5736
   98OSM    C4S 9751   3.335   0.370  10.576 -0.4127  0.3211  0.5244
   98OSM    H4S 9752   3.345   0.355  10.467  1.1097 -2.1491  0.9182
   98OSM    C5S 9753   3.443   0.408  10.652 -0.7979  0.6440  0.0262
   98OSM    H5S 9754   3.433   0.432  10.759  0.3630  0.5714  0.1569
   98OSM    C6S 9755   3.578   0.437  10.607 -0.5072 -0.6720  0.0785
   98OSM    H6S 9756   3.656   0.372  10.650  2.8200  1.4738 -2.2650
   98OSM    H6T 9757   3.598   0.539  10.647 -1.1252 -1.1102  1.5468
   98OSM    C7S 9758   3.596   0.445  10.451 -0.5041  0.0869  0.0241
   98OSM    H7S 9759   3.514   0.499  10.400 -2.7365 -3.0405 -0.0146
   98OSM    H7T 9760   3.583   0.336  10.430  0.0333 -0.1213  0.7375
   98OSM    C8S 9761   3.732   0.507  10.412 -0.1856  0.4433  0.5345
   98OSM    H8S 9762   3.808   0.448  10.466  1.0996  1.8481  0.3225
   98OSM    H8T 9763   3.735   0.609  10.456  2.7059  0.8809 -0.4713
   98OSM    C9S 9764   3.748   0.490  10.261 -0.6319 -0.3547  0.1830
   98OSM    H9S 9765   3.671   0.558  10.218  1.5088  3.2885  1.6123
   98OSM    H9T 9766   3.724   0.390  10.221 -1.6785  0.2700 -0.8200
   98OSM   C10S 9767   3.881   0.544  10.214  0.0893  0.2853 -0.1351
   98OSM   H10S 9768   3.956   0.474  10.256 -1.9295 -2.5219 -0.9924
   98OSM   H10T 9769   3.904   0.632  10.278 -0.9346 -0.3495  1.1420
   98OSM   C11S 9770   3.909   0.573  10.067 -0.1065 -0.1163  0.2314
   98OSM   H11S 9771   3.923   0.483  10.004 -0.2291  0.4838 -0.6676
   98OSM   H11T 9772   4.006   0.629  10.064 -1.0250  1.4958 -0.8691
   98OSM   C12S 9773   3.803   0.669  10.006 -0.7812  0.2746 -0.3784
   98OSM   H12S 9774   3.816   0.768  10.054  1.6895 -1.2617  2.5139
   98OSM   H12T 9775   3.704   0.621  10.021  0.2769 -2.2983 -0.9700
   98OSM   C13S 9776   3.830   0.699   9.856 -0.0337  0.0827 -0.7967
   98OSM   H13S 9777   3.818   0.614   9.785 -0.5914 -0.3561 -0.1990
   98OSM   H13T 9778   3.937   0.728   9.847  0.0929  0.0396  0.4089
   98OSM   C14S 9779   3.747   0.818   9.806  0.0354  0.0677  0.6889
   98OSM   H14S 9780   3.769   0.907   9.869 -0.1160 -0.1694  1.0806
   98OSM   H14T 9781   3.638   0.802   9.819 -0.2169  1.5035  0.4434
   98OSM   C15S 9782   3.765   0.853   9.660 -0.1700 -0.3040 -0.1542
   98OSM   H15S 9783   3.719   0.784   9.586  0.4817  0.2428 -1.0874
   98OSM   H15T 9784   3.869   0.884   9.637  0.0233  2.2935  3.3959
   98OSM   C16S 9785   3.683   0.979   9.627 -0.4069 -0.0222 -0.8120
   98OSM   H16S 9786   3.714   1.061   9.695 -0.1449  0.7487 -1.8483
   98OSM   H16T 9787   3.580   0.960   9.665  0.0801 -0.1341  0.4995
   98OSM   C17S 9788   3.683   1.041   9.483  0.4370  0.3903 -0.3632
   98OSM   H17S 9789   3.769   1.104   9.452  2.3516 -1.5031  0.8288
   98OSM   H17T 9790   3.597   1.111   9.486 -0.1775 -0.3433 -0.4664
   98OSM   C18S 9791   3.676   0.921   9.383 -0.1020 -0.3429 -0.4309
   98OSM   H18S 9792   3.593   0.852   9.407 -1.3713  0.7970 -1.3557
   98OSM   H18T 9793   3.777   0.876   9.375  0.8233  1.7324 -1.3871
   98OSM   H18U 9794   3.649   0.961   9.283 -1.7885  0.5128  0.3196
   98OSM    C1F 9795   3.040   0.641  10.485 -0.4927  0.4669  0.4521
   98OSM     OF 9796   3.000   0.704  10.580 -0.2722 -0.3820  0.2775
   98OSM    C2F 9797   3.042   0.704  10.348  0.0032 -0.1091  0.0935
   98OSM    H2F 9798   3.119   0.645  10.295 -0.4017 -1.0894  0.5440
   98OSM    H2G 9799   3.090   0.802  10.363  0.6860 -0.7649  2.7730
   98OSM    C3F 9800   2.906   0.701  10.267  0.5907  0.5008  0.4508
   98OSM    H3F 9801   2.825   0.732  10.336  1.7454  0.6109  1.8293
   98OSM    H3G 9802   2.879   0.599  10.232  0.4301  0.6169  0.2355
   98OSM    C4F 9803   2.910   0.786  10.135  0.2830  0.9745 -0.0255
   98OSM    H4F 9804   3.001   0.759  10.077 -0.1827 -0.0611 -0.3098
   98OSM    H4G 9805   2.916   0.894  10.160  1.2300  0.6068  1.4932
   98OSM    C5F 9806   2.786   0.768  10.051  0.0832  0.7425  0.0551
   98OSM    H5F 9807   2.708   0.796  10.124 -1.2816 -0.5505 -0.8587
   98OSM    H5G 9808   2.780   0.660  10.027  1.9789  0.3877  1.0097
   98OSM    C6F 9809   2.777   0.860   9.922 -0.6889  0.0124  0.1366
   98OSM    H6F 9810   2.787   0.966   9.955  3.1906 -0.1386 -0.0935
   98OSM    H6G 9811   2.679   0.849   9.871 -0.5949 -0.2209  0.0012
   98OSM    C7F 9812   2.886   0.818   9.821 -0.4752  0.7228 -0.3823
   98OSM    H7F 9813   2.850   0.715   9.797 -1.6383  1.2438 -0.9190
   98OSM    H7G 9814   2.979   0.837   9.880 -0.7771  1.6787 -0.2065
   98OSM    C8F 9815   2.898   0.892   9.688 -0.4196  0.3080 -0.3817
   98OSM    H8F 9816   2.962   0.834   9.618  1.0299  0.6959  0.5735
   98OSM    H8G 9817   2.943   0.991   9.711  0.6136 -0.2916  0.2155
   98OSM    C9F 9818   2.766   0.927   9.622 -0.0536  0.6794  0.4338
   98OSM    H9F 9819   2.702   0.990   9.685 -0.7431  2.1115 -1.5959
   98OSM   C10F 9820   2.715   0.889   9.503  0.7126  0.2672 -0.7319
   98OSM   H10F 9821   2.621   0.931   9.465 -0.2904 -3.2295 -2.5992
   98OSM   C11F 9822   2.796   0.812   9.404 -0.0216 -0.4404 -0.4493
   98OSM   H11F 9823   2.828   0.720   9.457 -0.1911 -0.3982 -0.2744
   98OSM   H11G 9824   2.882   0.874   9.374 -1.3634  1.8708  0.2328
   98OSM   C12F 9825   2.729   0.750   9.282 -0.2425 -0.2236 -0.1910
   98OSM   H12F 9826   2.666   0.834   9.245  0.8177  1.5257  1.8014
   98OSM   H12G 9827   2.681   0.651   9.299  2.8657 -1.7825  0.1539
   98OSM   C13F 9828   2.838   0.722   9.173  0.0549  0.0513 -0.4261
   98OSM   H13F 9829   2.893   0.634   9.212  1.0649  1.1670  0.7710
   98OSM   H13G 9830   2.903   0.812   9.166  0.2433 -0.1041 -0.7023
   98OSM   C14F 9831   2.786   0.695   9.034 -0.1776 -0.6430  0.1876
   98OSM   H14F 9832   2.742   0.782   8.982 -0.0047 -1.3741 -1.2618
   98OSM   H14G 9833   2.711   0.613   9.041 -1.1311  0.1510 -0.3840
   98OSM   C15F 9834   2.904   0.642   8.947 -0.0086  0.1126  0.0955
   98OSM   H15F 9835   2.972   0.588   9.016 -0.4489 -0.5265  0.0360
   98OSM   H15G 9836   2.960   0.732   8.911 -0.4116 -0.2740 -1.5606
   98OSM   C16F 9837   2.865   0.538   8.838 -0.1041 -0.4335  0.1397
   98OSM   H16F 9838   2.834   0.593   8.747 -0.7293 -0.2477  0.4592
   98OSM   H16G 9839   2.779   0.480   8.877  0.4097  0.3042  2.5801
   98OSM   C17F 9840   2.975   0.430   8.793  0.6270 -0.6565 -0.7826
   98OSM   H17F 9841   3.004   0.361   8.876 -0.7288 -0.2325  0.0725
   98OSM   H17G 9842   3.073   0.478   8.773  2.4373 -3.5016  0.5947
   98OSM   C18F 9843   2.934   0.344   8.668  0.2841  0.0969 -0.4810
   98OSM   H18F 9844   3.023   0.288   8.633 -0.4838  0.2857 -2.8491
   98OSM   H18G 9845   2.902   0.415   8.589 -0.5206  1.7000  1.2024
   98OSM   H18H 9846   2.862   0.261   8.690  1.4687 -0.9496 -0.4277
   99OSM      N 9847   5.455   1.381  11.106  0.5968 -0.5159  0.7520
   99OSM    C15 9848   5.413   1.418  11.240  0.8851 -0.7825  0.4858
   99OSM   H15A 9849   5.465   1.363  11.317  0.9456  1.0932  1.8366
   99OSM   H15B 9850   5.306   1.416  11.258  0.6184  4.6282  1.1392
   99OSM   H15C 9851   5.429   1.523  11.253  0.7425 -0.5802 -0.8500
   99OSM    C14 9852   5.600   1.362  11.103 -1.2608  0.9273 -0.0586
   99OSM   H14A 9853   5.633   1.272  11.153  1.1727  0.3641 -2.4460
   99OSM   H14B 9854   5.650   1.445  11.151 -0.7513 -0.0396  1.1231
   99OSM   H14C 9855   5.635   1.359  11.001  0.9648 -0.3387  0.6757
   99OSM    C13 9856   5.384   1.255  11.058  0.5631  0.3807  0.2015
   99OSM   H13A 9857   5.278   1.270  11.066  0.7544  1.4565  1.0059
   99OSM   H13B 9858   5.417   1.166  11.110 -0.2165 -2.6316 -3.9951
   99OSM   H13C 9859   5.404   1.241  10.953  0.1578 -1.1271  0.2985
   99OSM    C12 9860   5.416   1.486  11.008 -0.1855  0.4654 -0.0544
   99OSM   H12A 9861   5.485   1.567  11.029  0.8767 -0.7685  1.3913
   99OSM   H12B 9862   5.314   1.515  11.032 -0.5377 -0.9838  0.2788
   99OSM    C11 9863   5.437   1.461  10.858 -0.5399  0.5014 -0.0992
   99OSM   H11A 9864   5.380   1.537  10.801 -1.3663 -0.1162 -0.1131
   99OSM   H11B 9865   5.395   1.361  10.833 -1.5054  0.2158  2.3731
   99OSM      P 9866   5.647   1.605  10.799 -0.0076  0.3974 -0.0295
   99OSM    O13 9867   5.599   1.697  10.904 -1.0847  0.4193 -0.6749
   99OSM    O14 9868   5.787   1.582  10.773 -0.0276 -0.0213  0.2852
   99OSM    O11 9869   5.573   1.646  10.665 -0.8840 -0.0886 -0.1387
   99OSM    O12 9870   5.577   1.466  10.824  0.4130 -0.0824  0.4474
   99OSM    C1S 9871   5.594   1.560  10.551  1.0700  0.0268 -0.1202
   99OSM    H1S 9872   5.530   1.470  10.558 -0.4580  0.7679 -3.0766
   99OSM    H1T 9873   5.699   1.526  10.540  1.3700  0.8719  0.0330
   99OSM     NF 9874   5.569   1.527  10.313  0.0225 -0.2990  0.2005
   99OSM    HNF 9875   5.646   1.526  10.250 -0.4977  1.7676 -0.5470
   99OSM    C2S 9876   5.559   1.628  10.416  0.5087  0.1536  0.2645
   99OSM    H2S 9877   5.451   1.652  10.425  0.3298 -0.7170  0.5680
   99OSM    C3S 9878   5.631   1.760  10.390 -0.0365  0.0707 -0.1673
   99OSM    H3S 9879   5.739   1.735  10.386 -0.2461 -1.0335  0.6310
   99OSM     O3 9880   5.632   1.860  10.497 -0.1083  0.4613  0.2001
   99OSM    HO3 9881   5.596   1.815  10.574 -0.3392  2.9745  1.6941
   99OSM    C4S 9882   5.598   1.810  10.248 -0.0716  1.1468  0.3019
   99OSM    H4S 9883   5.686   1.820  10.182 -0.0130 -1.4449 -0.1232
   99OSM    C5S 9884   5.478   1.860  10.221 -0.0427 -0.4020  0.2322
   99OSM    H5S 9885   5.402   1.868  10.300 -1.8478 -0.0950 -1.4580
   99OSM    C6S 9886   5.441   1.922  10.089  0.4017  0.5540  0.3332
   99OSM    H6S 9887   5.368   2.001  10.116 -2.7822 -2.9643  3.2538
   99OSM    H6T 9888   5.386   1.855  10.019  0.0787  1.4929 -0.3166
   99OSM    C7S 9889   5.564   1.992  10.014  1.2652  0.1993  0.0458
   99OSM    H7S 9890   5.618   1.899   9.985 -0.1585 -0.4899 -0.5110
   99OSM    H7T 9891   5.627   2.047  10.087  0.6492 -1.5630  1.9729
   99OSM    C8S 9892   5.537   2.082   9.898 -0.5115 -0.4476 -0.1127
   99OSM    H8S 9893   5.628   2.144   9.891 -0.2151 -0.8114  0.4722
   99OSM    H8T 9894   5.456   2.153   9.927 -1.0956 -1.0562 -0.2259
   99OSM    C9S 9895   5.503   2.012   9.774  0.3002  0.0579 -0.8209
   99OSM    H9S 9896   5.410   1.951   9.781 -0.2102  0.9217  0.2665
   99OSM    H9T 9897   5.591   1.951   9.745  0.5332 -0.1924  0.3412
   99OSM   C10S 9898   5.480   2.103   9.654  0.1479 -0.0726  0.1925
   99OSM   H10S 9899   5.570   2.167   9.653  2.7584 -3.4871  0.6122
   99OSM   H10T 9900   5.383   2.157   9.664 -0.1882 -0.7265  0.5560
   99OSM   C11S 9901   5.483   2.033   9.515  0.1477  0.0536  0.6672
   99OSM   H11S 9902   5.407   1.954   9.497 -0.2682  0.1888  1.7747
   99OSM   H11T 9903   5.589   2.001   9.503  1.2447  3.5049 -0.2031
   99OSM   C12S 9904   5.457   2.131   9.399 -0.0036 -0.1212 -0.0093
   99OSM   H12S 9905   5.348   2.136   9.378 -0.4739 -3.6519  0.8536
   99OSM   H12T 9906   5.506   2.230   9.409 -1.9116  1.0053 -1.1056
   99OSM   C13S 9907   5.509   2.075   9.267 -1.0061  0.5454  0.5475
   99OSM   H13S 9908   5.486   1.966   9.257 -0.7530  0.5440 -0.0803
   99OSM   H13T 9909   5.619   2.091   9.259 -1.2267  1.4343 -0.8325
   99OSM   C14S 9910   5.442   2.143   9.146  0.1848 -0.8767  0.6188
   99OSM   H14S 9911   5.450   2.252   9.167 -1.1186 -0.7414  0.5048
   99OSM   H14T 9912   5.332   2.127   9.153  0.3649 -1.6829  1.7487
   99OSM   C15S 9913   5.492   2.100   9.012 -0.0411  0.0304  0.0168
   99OSM   H15S 9914   5.497   1.989   9.014  0.3721  0.0488  0.2864
   99OSM   H15T 9915   5.594   2.145   9.009  0.3732 -0.5695  2.5554
   99OSM   C16S 9916   5.404   2.143   8.898  1.1236 -0.1404 -0.0072
   99OSM   H16S 9917   5.386   2.253   8.904 -2.8046 -0.6716  0.1589
   99OSM   H16T 9918   5.310   2.087   8.917  0.0281  1.1779 -1.3271
   99OSM   C17S 9919   5.452   2.098   8.754 -0.7755 -0.7862 -0.1439
   99OSM   H17S 9920   5.384   2.141   8.678  0.4142  3.2290  0.8231
   99OSM   H17T 9921   5.439   1.987   8.750 -0.7472 -0.7594 -1.1245
   99OSM   C18S 9922   5.593   2.131   8.699 -0.0290 -0.7945 -0.0396
   99OSM   H18S 9923   5.612   2.240   8.698  0.4726 -0.8800 -0.3016
   99OSM   H18T 9924   5.617   2.090   8.598  3.0383  0.8733 -0.1050
   99OSM   H18U 9925   5.667   2.086   8.768  1.3770  0.7965 -0.4335
   99OSM    C1F 9926   5.485   1.426  10.304  0.9040 -0.1518  0.7545
   99OSM     OF 9927   5.392   1.405  10.380  0.6246  0.4917 -0.2064
   99OSM    C2F 9928   5.510   1.326  10.190  0.0810 -0.4157 -0.0990
   99OSM    H2F 9929   5.598   1.266  10.222  0.6061  0.1450 -0.4718
   99OSM    H2G 9930   5.535   1.375  10.094 -1.4549  2.0643  0.6605
   99OSM    C3F 9931   5.394   1.236  10.162  0.1683 -0.2870  0.0178
   99OSM    H3F 9932   5.436   1.156  10.097  1.8274 -0.8298  1.6835
   99OSM    H3G 9933   5.363   1.181  10.253  3.8727 -1.7759  0.5665
   99OSM    C4F 9934   5.277   1.295  10.089  0.3196 -0.3861 -0.4267
   99OSM    H4F 9935   5.232   1.379  10.146  0.1864 -0.1318 -0.9054
   99OSM    H4G 9936   5.195   1.221  10.078  0.1754  0.0124 -2.4953
   99OSM    C5F 9937   5.313   1.340   9.946 -0.0999  0.0242 -0.8522
   99OSM    H5F 9938   5.356   1.256   9.888  2.7437  1.2019 -0.5896
   99OSM    H5G 9939   5.373   1.434   9.945 -0.2443  0.1151 -1.5191
   99OSM    C6F 9940   5.186   1.391   9.868 -0.2219 -0.5863 -0.2511
   99OSM    H6F 9941   5.140   1.464   9.938  0.9243 -1.3342  1.3692
   99OSM    H6G 9942   5.124   1.299   9.866 -1.1936  0.0556 -2.2240
   99OSM    C7F 9943   5.219   1.445   9.727  0.0465 -0.0553 -0.2034
   99OSM    H7F 9944   5.125   1.469   9.673  0.0970 -1.9248 -1.2218
   99OSM    H7G 9945   5.268   1.373   9.658 -1.7729 -0.2754 -1.3554
   99OSM    C8F 9946   5.310   1.566   9.717 -0.1598 -0.3450  0.3256
   99OSM    H8F 9947   5.333   1.606   9.616 -0.0810 -0.1033  0.4371
   99OSM    H8G 9948   5.408   1.545   9.765 -0.4606 -0.7846  0.7566
   99OSM    C9F 9949   5.251   1.684   9.792  0.0009  0.6755  0.2030
   99OSM    H9F 9950   5.252   1.670   9.901 -1.5611  0.6986  0.2396
   99OSM   C10F 9951   5.204   1.795   9.741 -0.1431 -0.8389  0.5099
   99OSM   H10F 9952   5.163   1.871   9.810  0.4315 -1.1443  1.1965
   99OSM   C11F 9953   5.189   1.830   9.596  0.2388  0.0647 -0.2345
   99OSM   H11F 9954   5.276   1.788   9.543  1.6187  0.0759  1.9231
   99OSM   H11G 9955   5.197   1.940   9.582  1.2082  0.0533  0.1821
   99OSM   C12F 9956   5.056   1.792   9.534  0.2393 -0.0541 -0.1936
   99OSM   H12F 9957   4.976   1.865   9.556  0.9993  0.6565  0.2574
   99OSM   H12G 9958   5.012   1.695   9.565  0.5974 -0.8650 -2.0662
   99OSM   C13F 9959   5.064   1.786   9.380 -0.0495  0.7029  1.0212
   99OSM   H13F 9960   4.971   1.750   9.332  0.5760  1.7455 -1.0795
   99OSM   H13G 9961   5.143   1.709   9.369 -0.4676 -0.0062  2.6197
   99OSM   C14F 9962   5.102   1.922   9.310 -0.5672 -0.2523  0.7380
   99OSM   H14F 9963   5.208   1.956   9.318 -1.4041  2.3234  2.3553
   99OSM   H14G 9964   5.050   2.009   9.357 -1.1562  0.0493 -0.4357
   99OSM   C15F 9965   5.068   1.920   9.156 -0.1814 -0.2948  0.1669
   99OSM   H15F 9966   5.091   2.018   9.109  4.4579 -1.0939  0.2585
   99OSM   H15G 9967   4.962   1.890   9.147 -0.3858  0.3642  0.2855
   99OSM   C16F 9968   5.153   1.814   9.087  0.0848 -0.0877  0.3687
   99OSM   H16F 9969   5.128   1.721   9.143 -1.7901  0.4983  0.5767
   99OSM   H16G 9970   5.261   1.842   9.094 -0.1228  0.9646 -0.5123
   99OSM   C17F 9971   5.121   1.815   8.933 -0.6344 -0.0757 -0.8167
   99OSM   H17F 9972   5.099   1.920   8.906 -0.4695  0.4930  1.0709
   99OSM   H17G 9973   5.032   1.750   8.921  0.1931 -1.6257  0.9414
   99OSM   C18F 9974   5.241   1.748   8.852 -0.1689 -0.8150 -0.0955
   99OSM   H18F 9975   5.323   1.821   8.834 -1.0150 -0.3476 -2.2908
   99OSM   H18G 9976   5.199   1.727   8.751 -0.7940  3.7025 -0.9619
   99OSM   H18H 9977   5.295   1.657   8.887 -0.4720 -0.7559  0.5349
  100OSM      N 9978   1.020   1.434  10.917  0.1246 -0.6171  0.1140
  100OSM    C15 9979   0.902   1.341  10.907 -0.0820 -0.6809  0.8126
  100OSM   H15A 9980   0.926   1.242  10.872 -0.4285 -0.6259  0.4084
  100OSM   H15B 9981   0.830   1.371  10.832 -0.3778 -2.3734  0.3840
  100OSM   H15C 9982   0.841   1.346  10.996 -1.8432 -1.9541 -0.2596
  100OSM    C14 9983   0.977   1.577  10.925  0.3825  0.0953 -0.4148
  100OSM   H14A 9984   0.909   1.599  10.844 -1.4534 -2.0726  0.4057
  100OSM   H14B 9985   1.058   1.647  10.930  0.3752  0.0205  1.6685
  100OSM   H14C 9986   0.911   1.601  11.007  0.8086  2.0557 -0.6077
  100OSM    C13 9987   1.087   1.399  11.045 -0.4597 -1.5769  0.2909
  100OSM   H13A 9988   1.098   1.293  11.064  0.6898 -1.8035 -1.4012
  100OSM   H13B 9989   1.034   1.430  11.133 -0.3053 -0.0422 -0.1262
  100OSM   H13C 9990   1.177   1.458  11.046 -1.3883 -0.0230 -1.4417
  100OSM    C12 9991   1.121   1.421  10.800  0.2342 -0.7434  0.0814
  100OSM   H12A 9992   1.074   1.441  10.705  2.0995 -3.4540 -1.5618
  100OSM   H12B 9993   1.156   1.319  10.790  0.9979 -0.6829  1.7762
  100OSM    C11 9994   1.255   1.500  10.814 -0.2197 -0.1706 -0.6388
  100OSM   H11A 9995   1.306   1.475  10.719  0.8465 -0.5979  0.0302
  100OSM   H11B 9996   1.307   1.477  10.909 -1.3735 -1.8828 -0.3814
  100OSM      P 9997   1.343   1.762  10.788  0.1221  0.0431  0.0683
  100OSM    O13 9998   1.285   1.893  10.771  0.9031 -0.2412 -0.1505
  100OSM    O14 9999   1.440   1.744  10.894 -0.2298  0.0941 -0.3555
  100OSM    O1110000   1.410   1.722  10.658 -0.1086  0.0260  0.5501
  100OSM    O1210001   1.233   1.643  10.809 -0.3461 -0.6073 -0.0080
  100OSM    C1S10002   1.337   1.689  10.535  0.4942 -0.3013 -0.1558
  100OSM    H1S10003   1.232   1.659  10.555  0.5536 -0.0628  0.5422
  100OSM    H1T10004   1.386   1.612  10.471  0.0607 -0.2949 -0.4994
  100OSM     NF10005   1.252   1.751  10.320  0.7015  0.5630  0.2716
  100OSM    HNF10006   1.299   1.735  10.234 -0.2716 -2.1604  0.1386
  100OSM    C2S10007   1.329   1.798  10.434  0.1132 -0.2848 -0.2493
  100OSM    H2S10008   1.285   1.885  10.486  0.9723  0.3340 -0.5224
  100OSM    C3S10009   1.476   1.834  10.395  0.3462  0.1405  0.1214
  100OSM    H3S10010   1.532   1.742  10.371  0.9990  0.5108  0.2049
  100OSM     O310011   1.563   1.885  10.491 -0.1083  0.6869  0.3743
  100OSM    HO310012   1.517   1.870  10.573  1.5270 -1.1521  1.0384
  100OSM    C4S10013   1.469   1.930  10.274  0.1786  0.1967 -0.4768
  100OSM    H4S10014   1.489   1.890  10.174  3.8141  1.8337 -0.5758
  100OSM    C5S10015   1.438   2.060  10.277 -0.7378 -0.1922 -0.4465
  100OSM    H5S10016   1.411   2.100  10.375  0.6986  0.4231 -0.2685
  100OSM    C6S10017   1.425   2.146  10.154  0.4465 -0.0360  0.5471
  100OSM    H6S10018   1.495   2.112  10.074 -0.9436 -0.5042 -0.5074
  100OSM    H6T10019   1.459   2.250  10.174 -0.1630  0.3835 -0.5373
  100OSM    C7S10020   1.285   2.149  10.097 -0.0834  0.3529 -0.1560
  100OSM    H7S10021   1.213   2.190  10.170 -0.8073 -1.3741  0.1427
  100OSM    H7T10022   1.262   2.042  10.075 -1.0277  0.8838 -1.9502
  100OSM    C8S10023   1.277   2.224   9.959  0.5998  0.0300  0.0001
  100OSM    H8S10024   1.345   2.167   9.892 -0.6827 -2.1247  0.4316
  100OSM    H8T10025   1.305   2.331   9.972  0.6332  0.1541 -1.0188
  100OSM    C9S10026   1.136   2.221   9.897  0.4926 -0.4642 -0.4329
  100OSM    H9S10027   1.062   2.267   9.966  1.8667  1.6520 -0.2769
  100OSM    H9T10028   1.091   2.120   9.883 -3.9873  1.0689  0.9300
  100OSM   C10S10029   1.129   2.299   9.767 -0.0013 -0.6728  0.0650
  100OSM   H10S10030   1.180   2.397   9.781  0.1088 -0.9258  1.6666
  100OSM   H10T10031   1.029   2.331   9.730  1.0599  2.9227 -0.0414
  100OSM   C11S10032   1.203   2.220   9.655  0.3210  0.5065 -0.1524
  100OSM   H11S10033   1.187   2.110   9.663 -0.6585  0.6861  0.4633
  100OSM   H11T10034   1.309   2.231   9.686  0.2736  1.0288 -0.1698
  100OSM   C12S10035   1.179   2.265   9.508  0.3199  0.1539 -0.6222
  100OSM   H12S10036   1.164   2.375   9.510 -1.8315 -0.0757 -1.2089
  100OSM   H12T10037   1.075   2.232   9.483  0.5079 -1.7736  0.9009
  100OSM   C13S10038   1.300   2.239   9.418 -0.7941  0.1876 -0.6137
  100OSM   H13S10039   1.323   2.131   9.427  1.8628  0.4719 -2.6739
  100OSM   H13T10040   1.378   2.302   9.465 -0.8780 -0.9014  1.0420
  100OSM   C14S10041   1.273   2.277   9.271  0.2918  0.2722 -0.4835
  100OSM   H14S10042   1.261   2.386   9.254  0.2112  0.1254 -1.4344
  100OSM   H14T10043   1.175   2.228   9.251 -1.1823  2.4771  1.0203
  100OSM   C15S10044   1.376   2.211   9.177 -0.0306  0.3866 -0.0127
  100OSM   H15S10045   1.394   2.103   9.199 -1.7658 -0.0149 -0.4733
  100OSM   H15T10046   1.471   2.263   9.204  0.0521  0.8006 -1.0693
  100OSM   C16S10047   1.349   2.217   9.023  0.1103 -0.3179 -0.1891
  100OSM   H16S10048   1.321   2.323   9.001 -1.2213 -0.7257 -0.5307
  100OSM   H16T10049   1.267   2.156   8.981  1.0854  0.3095 -3.2589
  100OSM   C17S10050   1.471   2.180   8.936  0.6014  0.2249  0.4629
  100OSM   H17S10051   1.499   2.072   8.937  0.4830  0.0248 -3.5887
  100OSM   H17T10052   1.558   2.241   8.968 -0.2402  1.9712 -0.4334
  100OSM   C18S10053   1.439   2.206   8.790 -0.1879  0.7674 -0.6293
  100OSM   H18S10054   1.419   2.311   8.759 -0.0999  0.8520 -0.4052
  100OSM   H18T10055   1.350   2.144   8.769 -0.8798  1.4436  0.1971
  100OSM   H18U10056   1.530   2.177   8.733 -1.1645 -1.6702 -1.0689
  100OSM    C1F10057   1.119   1.727  10.324 -0.1240  1.2638  0.4779
  100OSM     OF10058   1.057   1.731  10.428 -0.2757  0.3249 -0.2766
  100OSM    C2F10059   1.062   1.704  10.185 -0.0904  0.0088  0.6991
  100OSM    H2F10060   1.054   1.594  10.173 -0.2063  0.1772 -1.0844
  100OSM    H2G10061   1.130   1.753  10.111  0.9168  2.7547  3.2356
  100OSM    C3F10062   0.924   1.770  10.166  0.5441  0.4537 -0.5765
  100OSM    H3F10063   0.929   1.879  10.189 -3.6380  0.8525 -0.8572
  100OSM    H3G10064   0.849   1.739  10.242  0.9612  0.6600 -0.0674
  100OSM    C4F10065   0.855   1.745  10.033 -0.2174  0.3256 -0.6401
  100OSM    H4F10066   0.749   1.779  10.037 -0.3554 -0.1052 -0.5480
  100OSM    H4G10067   0.842   1.636  10.018 -0.9606  0.3709 -0.3684
  100OSM    C5F10068   0.923   1.818   9.920 -0.1390  0.7121 -0.5731
  100OSM    H5F10069   1.028   1.782   9.925 -0.0928  0.9916  2.2904
  100OSM    H5G10070   0.917   1.927   9.942  0.3119  0.7141 -0.4544
  100OSM    C6F10071   0.854   1.779   9.783 -0.4606  0.5322 -0.1574
  100OSM    H6F10072   0.744   1.789   9.796 -0.6596 -0.2142 -1.2059
  100OSM    H6G10073   0.874   1.673   9.757  0.0059  0.2774  1.1495
  100OSM    C7F10074   0.881   1.865   9.664 -0.1030 -0.3143  0.3695
  100OSM    H7F10075   0.990   1.886   9.657 -0.1765 -0.4357 -1.8606
  100OSM    H7G10076   0.832   1.963   9.681  3.1672  1.4790  0.2075
  100OSM    C8F10077   0.837   1.820   9.525 -0.2484 -0.6853 -0.0726
  100OSM    H8F10078   0.914   1.744   9.500 -0.5419 -0.6858 -1.0117
  100OSM    H8G10079   0.841   1.906   9.454 -0.1785  1.9659  2.8811
  100OSM    C9F10080   0.706   1.752   9.519  0.0026  0.5296 -0.2995
  100OSM    H9F10081   0.668   1.726   9.619  2.4326  1.9382  1.1001
  100OSM   C10F10082   0.648   1.698   9.409  0.4323 -0.2893  0.4426
  100OSM   H10F10083   0.554   1.641   9.417  0.4975 -0.3567  0.7453
  100OSM   C11F10084   0.708   1.698   9.270 -0.3392 -0.4877  0.5000
  100OSM   H11F10085   0.718   1.598   9.223 -1.0213  0.6229 -2.2417
  100OSM   H11G10086   0.812   1.738   9.269 -0.1244 -1.0453 -0.1487
  100OSM   C12F10087   0.634   1.788   9.169  0.4948  0.4373 -0.2440
  100OSM   H12F10088   0.692   1.787   9.075  0.3376 -0.1590 -0.3413
  100OSM   H12G10089   0.606   1.887   9.211  1.2943  0.6057 -0.0965
  100OSM   C13F10090   0.499   1.731   9.125  0.4541 -0.1625  0.3204
  100OSM   H13F10091   0.424   1.743   9.207  1.8641  1.9200  1.3886
  100OSM   H13G10092   0.506   1.623   9.100  0.4685 -0.3268  1.0120
  100OSM   C14F10093   0.436   1.799   9.001 -0.1057 -0.2602 -0.3128
  100OSM   H14F10094   0.337   1.751   8.984 -0.0886  0.8572 -4.6529
  100OSM   H14G10095   0.498   1.769   8.914  0.9055 -0.2987  0.4028
  100OSM   C15F10096   0.413   1.951   9.006 -0.7715  0.6536 -0.0707
  100OSM   H15F10097   0.510   2.000   9.030 -0.6233  0.6118 -0.5659
  100OSM   H15G10098   0.339   1.971   9.086  0.2120  1.5062  0.6528
  100OSM   C16F10099   0.373   2.010   8.867  0.2469 -0.1583 -0.0824
  100OSM   H16F10100   0.458   1.983   8.801 -0.7097 -1.6535 -0.7736
  100OSM   H16G10101   0.378   2.120   8.874  0.8958 -0.1889  0.0077
  100OSM   C17F10102   0.239   1.952   8.822  0.0168  0.6434  0.5482
  100OSM   H17F10103   0.241   1.841   8.828  1.4618  0.6219 -0.1418
  100OSM   H17G10104   0.222   1.981   8.716  0.3988 -0.1939  0.2549
  100OSM   C18F10105   0.129   2.026   8.901  0.4750 -0.1606 -0.0922
  100OSM   H18F10106   0.139   1.997   9.008 -1.0464  0.6962  0.3154
  100OSM   H18G10107   0.026   2.001   8.867 -0.6434 -0.3629  3.0981
  100OSM   H18H10108   0.140   2.135   8.889 -0.1964 -0.0990 -0.1513
  101OSM      N10109   4.547   2.560  11.098 -0.4493  0.1074 -0.3342
  101OSM    C1510110   4.520   2.685  11.176  0.2503 -0.1981 -0.4313
  101OSM   H15A10111   4.473   2.667  11.272 -0.3203  0.0707 -0.6528
  101OSM   H15B10112   4.462   2.757  11.118 -1.3295 -2.3203 -1.6251
  101OSM   H15C10113   4.613   2.733  11.204 -0.6213 -0.0850  2.6138
  101OSM    C1410114   4.628   2.459  11.169 -0.0351  0.0658 -0.3982
  101OSM   H14A10115   4.562   2.419  11.245  0.4897  1.6878  0.9622
  101OSM   H14B10116   4.710   2.505  11.222  0.5922 -1.2561 -0.1800
  101OSM   H14C10117   4.659   2.391  11.090 -1.2432 -0.3175 -0.5598
  101OSM    C1310118   4.419   2.494  11.072  0.4541  0.6539 -0.8699
  101OSM   H13A10119   4.381   2.448  11.162 -2.0586 -1.2877 -2.7688
  101OSM   H13B10120   4.430   2.411  11.004  0.7549  0.6077 -0.7680
  101OSM   H13C10121   4.344   2.555  11.025 -1.0522  0.2939  0.9575
  101OSM    C1210122   4.608   2.589  10.961  0.1967  0.2042  0.0420
  101OSM   H12A10123   4.693   2.656  10.967  0.3668 -0.1305  1.6637
  101OSM   H12B10124   4.539   2.648  10.903  0.2525  0.8535  0.6182
  101OSM    C1110125   4.635   2.475  10.868 -0.5419  0.3921  0.5808
  101OSM   H11A10126   4.615   2.513  10.766 -0.4190  0.0563  0.4298
  101OSM   H11B10127   4.551   2.403  10.872 -0.1174 -0.0630  2.5182
  101OSM      P10128   4.818   2.318  10.772 -0.1926 -0.0087  0.1574
  101OSM    O1310129   4.959   2.270  10.800 -0.1544 -0.2979 -0.6150
  101OSM    O1410130   4.716   2.218  10.752 -0.1529 -0.1336 -0.3767
  101OSM    O1110131   4.822   2.405  10.640  0.1676  0.3330 -0.7697
  101OSM    O1210132   4.767   2.415  10.883  0.5717  0.5485 -0.3773
  101OSM    C1S10133   4.830   2.345  10.516  0.0274  0.8673 -0.3700
  101OSM    H1S10134   4.766   2.255  10.509  0.8530  0.2985 -0.8689
  101OSM    H1T10135   4.936   2.311  10.511 -0.2614 -0.4978  1.5759
  101OSM     NF10136   4.779   2.381  10.274 -0.6231 -0.0795 -0.1967
  101OSM    HNF10137   4.821   2.438  10.204 -3.6039  1.9098 -0.5688
  101OSM    C2S10138   4.785   2.441  10.404 -0.7112 -0.8989 -0.3721
  101OSM    H2S10139   4.683   2.474  10.431 -0.3475  3.0278 -2.9208
  101OSM    C3S10140   4.884   2.567  10.406 -0.5435  0.0436 -0.6119
  101OSM    H3S10141   4.986   2.526  10.422 -0.5991 -0.5483 -1.7316
  101OSM     O310142   4.848   2.654  10.515 -0.1899 -0.3004  0.4717
  101OSM    HO310143   4.810   2.594  10.579 -0.0933 -1.4801 -0.5456
  101OSM    C4S10144   4.886   2.640  10.277  0.0500 -0.0598  0.2489
  101OSM    H4S10145   4.800   2.705  10.257  0.5940  0.7951  0.6440
  101OSM    C5S10146   4.989   2.634  10.192 -0.1510 -0.1580  0.1742
  101OSM    H5S10147   5.076   2.569  10.211  1.3751  1.6430 -0.2646
  101OSM    C6S10148   5.004   2.720  10.070 -0.0003 -0.4223 -0.7130
  101OSM    H6S10149   5.087   2.794  10.080  0.6969 -1.2008 -0.6296
  101OSM    H6T10150   4.914   2.778  10.042 -0.6416 -0.5920  0.8965
  101OSM    C7S10151   5.039   2.641   9.947  0.0518 -0.8167 -0.2558
  101OSM    H7S10152   4.953   2.576   9.917 -1.9468  1.8735 -0.6939
  101OSM    H7T10153   5.129   2.576   9.958 -1.2981 -2.4868  2.1264
  101OSM    C8S10154   5.054   2.727   9.819 -0.2040 -0.4147 -0.4499
  101OSM    H8S10155   5.097   2.827   9.840 -1.5115  0.6256 -2.3853
  101OSM    H8T10156   4.952   2.749   9.782 -0.5314  0.6810  1.0069
  101OSM    C9S10157   5.150   2.658   9.722  0.9542  0.7250 -0.2033
  101OSM    H9S10158   5.149   2.548   9.735  0.1415  0.5017 -1.9251
  101OSM    H9T10159   5.252   2.685   9.758 -0.1752  1.3893  2.8364
  101OSM   C10S10160   5.137   2.695   9.577  1.2358 -0.4867  0.3447
  101OSM   H10S10161   5.142   2.804   9.556 -0.2214 -0.0396  2.1090
  101OSM   H10T10162   5.036   2.666   9.539  0.3398  0.7662  1.6835
  101OSM   C11S10163   5.242   2.623   9.486 -0.6732 -0.5351 -0.1934
  101OSM   H11S10164   5.217   2.517   9.504 -1.1328 -0.1444  1.7996
  101OSM   H11T10165   5.346   2.645   9.518 -0.6432 -0.2566 -0.4771
  101OSM   C12S10166   5.212   2.636   9.334  0.2877 -0.0723 -0.4118
  101OSM   H12S10167   5.232   2.739   9.299 -2.2603  0.4139 -0.5621
  101OSM   H12T10168   5.104   2.615   9.320 -0.1505  1.4524  0.4853
  101OSM   C13S10169   5.289   2.530   9.252 -0.1140  0.6385  0.5235
  101OSM   H13S10170   5.268   2.424   9.276 -0.6878  0.1843 -1.8095
  101OSM   H13T10171   5.394   2.552   9.283  0.1577 -0.9598  0.7972
  101OSM   C14S10172   5.290   2.561   9.102 -0.0786  0.9320  1.1405
  101OSM   H14S10173   5.396   2.573   9.072 -0.3348 -1.0810 -0.8848
  101OSM   H14T10174   5.251   2.662   9.077 -0.1790  0.3497 -1.3773
  101OSM   C15S10175   5.213   2.454   9.019 -0.8890 -0.7823 -0.8195
  101OSM   H15S10176   5.114   2.430   9.062  0.1859 -2.0042  1.1101
  101OSM   H15T10177   5.273   2.361   9.031 -0.1546 -0.1732  0.4903
  101OSM   C16S10178   5.205   2.485   8.869  0.1835  0.7560 -0.0397
  101OSM   H16S10179   5.170   2.386   8.832 -0.9440 -0.1382  3.0750
  101OSM   H16T10180   5.308   2.507   8.836 -0.0110  1.4618 -0.2035
  101OSM   C17S10181   5.121   2.614   8.847  0.3946 -0.0423 -0.2208
  101OSM   H17S10182   5.192   2.694   8.880  0.2303 -0.8315  2.2456
  101OSM   H17T10183   5.033   2.607   8.914  1.4751 -1.9237  1.0827
  101OSM   C18S10184   5.075   2.615   8.702  0.9203 -0.0432 -0.1221
  101OSM   H18S10185   5.159   2.611   8.630  0.0794 -4.5765 -1.1985
  101OSM   H18T10186   5.015   2.708   8.692 -1.5759 -1.5697 -0.3274
  101OSM   H18U10187   5.011   2.527   8.678 -0.9978  0.4590  2.6932
  101OSM    C1F10188   4.700   2.275  10.238  0.1863  0.7894  0.6743
  101OSM     OF10189   4.656   2.196  10.321 -0.3848  0.3259 -0.5736
  101OSM    C2F10190   4.645   2.261  10.096  0.0358 -0.2488  0.1027
  101OSM    H2F10191   4.537   2.237  10.102  0.2003 -2.2210 -2.9007
  101OSM    H2G10192   4.694   2.168  10.059  0.7842 -0.5994  1.8647
  101OSM    C3F10193   4.677   2.379  10.008  0.4619 -0.2594 -0.1347
  101OSM    H3F10194   4.787   2.387   9.998  0.2192  2.0299 -1.7065
  101OSM    H3G10195   4.639   2.476  10.047  1.7072  1.8186 -3.6666
  101OSM    C4F10196   4.625   2.367   9.858 -0.7200 -0.4458  0.0077
  101OSM    H4F10197   4.515   2.354   9.856 -0.8543  0.4199 -2.6621
  101OSM    H4G10198   4.669   2.281   9.803  0.0293  0.5093 -0.9187
  101OSM    C5F10199   4.654   2.490   9.773  0.0678 -0.2530  0.0917
  101OSM    H5F10200   4.765   2.492   9.760  0.1565 -1.1394  0.6277
  101OSM    H5G10201   4.628   2.581   9.831  1.4300  1.4086 -1.7657
  101OSM    C6F10202   4.579   2.485   9.631  0.8712 -0.2819 -0.4617
  101OSM    H6F10203   4.634   2.568   9.581 -1.1857  2.1947  1.1491
  101OSM    H6G10204   4.598   2.386   9.585  0.9315  0.2208 -1.5636
  101OSM    C7F10205   4.427   2.516   9.626 -0.1554 -0.2525  0.6596
  101OSM    H7F10206   4.411   2.610   9.684 -1.8395  0.8683 -1.4766
  101OSM    H7G10207   4.368   2.433   9.669 -0.0004 -0.5866  0.2380
  101OSM    C8F10208   4.380   2.523   9.477 -0.8721 -0.4847 -0.1027
  101OSM    H8F10209   4.391   2.422   9.432  2.2869 -0.4994  0.4736
  101OSM    H8G10210   4.458   2.574   9.417 -1.9442 -0.9904 -2.0031
  101OSM    C9F10211   4.251   2.594   9.452 -0.2740 -0.2937  0.2916
  101OSM    H9F10212   4.178   2.570   9.531  1.8338 -0.0394  2.4354
  101OSM   C10F10213   4.218   2.680   9.355 -0.0681  0.3018 -0.0119
  101OSM   H10F10214   4.115   2.718   9.349  0.3800  1.4821 -0.5059
  101OSM   C11F10215   4.305   2.716   9.238  0.1942  0.0672 -0.2983
  101OSM   H11F10216   4.408   2.744   9.268  0.4373 -1.4532  0.3964
  101OSM   H11G10217   4.260   2.791   9.169  0.4326  0.1028 -0.4171
  101OSM   C12F10218   4.328   2.608   9.124  0.4424 -0.0566  0.9096
  101OSM   H12F10219   4.236   2.587   9.065  1.7270  0.4505 -1.4001
  101OSM   H12G10220   4.358   2.508   9.163  0.8469 -1.2566 -2.1942
  101OSM   C13F10221   4.439   2.661   9.029  0.3375  0.1381  0.2186
  101OSM   H13F10222   4.531   2.634   9.085 -0.8218  1.3804  2.9192
  101OSM   H13G10223   4.430   2.772   9.019  1.0235  0.0905 -1.1459
  101OSM   C14F10224   4.436   2.581   8.898  0.2572  0.4352 -0.7095
  101OSM   H14F10225   4.339   2.557   8.850  0.2973 -2.9513  0.6437
  101OSM   H14G10226   4.473   2.482   8.932  0.3857  0.3759 -1.0156
  101OSM   C15F10227   4.541   2.625   8.789 -0.9955  0.6163  0.0203
  101OSM   H15F10228   4.640   2.583   8.818 -1.7126 -0.3561  1.1674
  101OSM   H15G10229   4.548   2.736   8.782  2.5483  0.4255 -1.8110
  101OSM   C16F10230   4.513   2.557   8.653 -0.1773 -0.5820 -0.8610
  101OSM   H16F10231   4.413   2.597   8.625 -0.3582 -0.1847  0.3003
  101OSM   H16G10232   4.501   2.449   8.675  0.1767 -0.3799  0.3864
  101OSM   C17F10233   4.622   2.571   8.543  0.3307  0.6602 -0.0968
  101OSM   H17F10234   4.579   2.518   8.456 -0.3746 -0.5891  0.9763
  101OSM   H17G10235   4.717   2.521   8.569 -0.8264 -0.8163  1.5449
  101OSM   C18F10236   4.646   2.717   8.504 -0.1761 -0.9002  0.2919
  101OSM   H18F10237   4.738   2.728   8.443 -0.3369  0.3471  0.2519
  101OSM   H18G10238   4.663   2.776   8.596 -1.1385  0.7842 -0.5668
  101OSM   H18H10239   4.560   2.760   8.448  0.7293 -1.7103 -1.8051
  102OSM      N10240   1.113   3.673  10.618  0.2440 -0.1255  0.1716
  102OSM    C1510241   1.026   3.567  10.557  0.0847  0.5638 -0.2218
  102OSM   H15A10242   0.926   3.588  10.590  0.4021 -0.8010  1.8260
  102OSM   H15B10243   1.055   3.467  10.583 -0.7184  0.4795  0.3736
  102OSM   H15C10244   1.017   3.570  10.449 -1.3510  1.0283 -0.1062
  102OSM    C1410245   1.095   3.672  10.765 -0.4201  0.0475 -0.2686
  102OSM   H14A10246   1.165   3.737  10.815 -1.6427  0.4325  0.9898
  102OSM   H14B10247   1.095   3.569  10.798 -0.5509  0.0217 -0.3516
  102OSM   H14C10248   0.999   3.707  10.798 -0.7186 -1.7319  0.8987
  102OSM    C1310249   1.256   3.638  10.600 -0.4603  0.1297 -0.1835
  102OSM   H13A10250   1.324   3.718  10.624  0.4326 -0.1989 -1.5087
  102OSM   H13B10251   1.258   3.629  10.492 -2.2906  1.9504 -0.4329
  102OSM   H13C10252   1.289   3.548  10.650 -0.8032 -1.0421 -1.9704
  102OSM    C1210253   1.094   3.803  10.550  0.0046  0.6324  0.0804
  102OSM   H12A10254   1.134   3.805  10.450  0.0617 -2.6647 -0.0639
  102OSM   H12B10255   1.152   3.876  10.607 -0.0681  1.0369 -0.3617
  102OSM    C1110256   0.944   3.867  10.538  0.4443 -0.2145 -0.2071
  102OSM   H11A10257   0.900   3.819  10.449 -1.9651 -1.0630  1.3621
  102OSM   H11B10258   0.954   3.977  10.524 -2.6099  0.2623  0.6519
  102OSM      P10259   0.702   3.821  10.658 -0.3712 -0.1507  0.4638
  102OSM    O1310260   0.684   3.677  10.688  0.0860  0.0526 -0.1110
  102OSM    O1410261   0.638   3.915  10.759  0.3771  0.0103  0.2457
  102OSM    O1110262   0.656   3.852  10.513 -0.1151  0.3500  0.0137
  102OSM    O1210263   0.854   3.853  10.654 -0.0840 -0.5012  0.2215
  102OSM    C1S10264   0.634   3.981  10.469  0.9620 -0.0285 -0.5183
  102OSM    H1S10265   0.695   4.056  10.524  1.9358 -2.1741  1.5009
  102OSM    H1T10266   0.529   4.011  10.487  1.2666  0.5551  0.3926
  102OSM     NF10267   0.608   4.123  10.273  0.4123  0.1623  0.0066
  102OSM    HNF10268   0.540   4.129  10.200  1.4354  0.5621 -0.9340
  102OSM    C2S10269   0.654   3.994  10.316 -0.6574  0.8731  0.7823
  102OSM    H2S10270   0.765   3.994  10.306 -0.5313 -0.9772  1.6168
  102OSM    C3S10271   0.592   3.880  10.223 -0.2578 -0.2294  0.3477
  102OSM    H3S10272   0.482   3.876  10.235 -0.1879 -0.1534  1.0727
  102OSM     O310273   0.644   3.756  10.266 -0.5769 -0.3961  0.1987
  102OSM    HO310274   0.665   3.777  10.357 -0.5387  0.1866  0.0624
  102OSM    C4S10275   0.643   3.900  10.088 -0.3740 -0.7975  0.7361
  102OSM    H4S10276   0.748   3.873  10.074  0.2504  1.4944  0.4778
  102OSM    C5S10277   0.570   3.954   9.985 -0.0490  0.1393 -0.2783
  102OSM    H5S10278   0.465   3.986   9.999  0.5122  1.5349  1.0393
  102OSM    C6S10279   0.617   3.989   9.845  0.1463  0.0787 -0.2270
  102OSM    H6S10280   0.657   3.898   9.795 -1.7526 -0.9722  0.0847
  102OSM    H6T10281   0.692   4.070   9.834 -0.6385  0.5199 -3.0675
  102OSM    C7S10282   0.491   4.022   9.769 -0.2943  0.5765 -0.2935
  102OSM    H7S10283   0.439   4.106   9.820 -2.4458 -0.8877  0.0593
  102OSM    H7T10284   0.421   3.936   9.762  2.3851 -1.7739  0.0036
  102OSM    C8S10285   0.527   4.075   9.625  0.1060 -0.2951  0.0681
  102OSM    H8S10286   0.597   4.000   9.581  0.1617  0.0667 -0.4692
  102OSM    H8T10287   0.582   4.171   9.629  1.0300 -0.8418  1.2247
  102OSM    C9S10288   0.413   4.091   9.524 -0.3523  0.6700 -0.5156
  102OSM    H9S10289   0.351   3.999   9.531 -0.4743  0.8263  0.7940
  102OSM    H9T10290   0.448   4.110   9.421  0.3554 -0.0077 -0.4040
  102OSM   C10S10291   0.324   4.214   9.569 -0.0285  0.1342 -0.1081
  102OSM   H10S10292   0.396   4.299   9.567  0.5163 -0.1435  3.0853
  102OSM   H10T10293   0.277   4.210   9.669 -1.2729 -0.5196 -0.7054
  102OSM   C11S10294   0.221   4.259   9.465  0.3767  0.4010  0.0047
  102OSM   H11S10295   0.141   4.320   9.513  0.2663  1.3253 -1.2870
  102OSM   H11T10296   0.158   4.178   9.425  0.3004 -0.8451  2.4991
  102OSM   C12S10297   0.278   4.342   9.348 -1.1083  0.0137  0.1614
  102OSM   H12S10298   0.376   4.294   9.329 -1.9510 -2.3450  1.4026
  102OSM   H12T10299   0.290   4.445   9.390  1.1709  1.0194 -2.6536
  102OSM   C13S10300   0.179   4.347   9.227  0.1015 -0.4440  0.4893
  102OSM   H13S10301   0.188   4.443   9.173 -0.1450 -1.8038 -2.0900
  102OSM   H13T10302   0.080   4.344   9.277 -0.1019 -0.5147  0.0774
  102OSM   C14S10303   0.164   4.235   9.116 -0.3341 -0.3180 -0.2225
  102OSM   H14S10304   0.135   4.146   9.174  1.4501 -2.1670 -2.0107
  102OSM   H14T10305   0.266   4.216   9.075  1.0165  2.3488  1.5782
  102OSM   C15S10306   0.059   4.278   9.007  0.1803 -0.2166 -0.6225
  102OSM   H15S10307  -0.029   4.320   9.059  1.2176  0.4197  0.6785
  102OSM   H15T10308   0.019   4.190   8.952 -0.2345 -0.1599 -0.4146
  102OSM   C16S10309   0.112   4.390   8.925  0.3246  0.5912  0.7238
  102OSM   H16S10310   0.204   4.345   8.883  0.5720  0.4020  1.4541
  102OSM   H16T10311   0.149   4.481   8.977 -0.8684  2.3723 -1.3621
  102OSM   C17S10312   0.008   4.432   8.820  0.1122 -0.0166 -0.0112
  102OSM   H17S10313   0.074   4.494   8.756 -1.0089  0.2667 -0.9190
  102OSM   H17T10314  -0.072   4.492   8.869 -2.7383 -3.4206 -0.1419
  102OSM   C18S10315  -0.054   4.325   8.736  0.2133  0.5004 -0.3591
  102OSM   H18S10316  -0.106   4.371   8.649 -1.4101  2.0700  1.3529
  102OSM   H18T10317  -0.128   4.265   8.792  0.4557  0.1333 -0.4226
  102OSM   H18U10318   0.027   4.258   8.699  0.9836  0.8973  0.5629
  102OSM    C1F10319   0.652   4.243  10.315 -0.0171  1.0653 -0.3631
  102OSM     OF10320   0.754   4.257  10.380  0.3413 -0.2877  0.5279
  102OSM    C2F10321   0.579   4.360  10.254 -0.0390  0.0160 -0.2078
  102OSM    H2F10322   0.562   4.442  10.328 -0.1492  1.7113 -2.0496
  102OSM    H2G10323   0.476   4.331  10.226 -0.3240  0.1725  0.6517
  102OSM    C3F10324   0.660   4.426  10.143  0.4557 -0.2070 -0.3485
  102OSM    H3F10325   0.764   4.449  10.172 -0.7843  3.5000  1.7937
  102OSM    H3G10326   0.618   4.528  10.133  0.2076 -0.0441  1.9278
  102OSM    C4F10327   0.659   4.353  10.007  0.6125 -0.4693  0.3640
  102OSM    H4F10328   0.563   4.304   9.983  0.5601 -0.1377 -0.1113
  102OSM    H4G10329   0.735   4.273  10.018  0.5293 -0.8067 -1.2571
  102OSM    C5F10330   0.697   4.459   9.900 -0.0097  0.1046 -0.1629
  102OSM    H5F10331   0.792   4.496   9.943 -0.1041 -0.9616  1.0374
  102OSM    H5G10332   0.625   4.543   9.887  0.1833  0.0995 -1.3983
  102OSM    C6F10333   0.716   4.394   9.764  0.2860  0.4470  0.7216
  102OSM    H6F10334   0.633   4.323   9.746  0.9465  0.0283 -0.8595
  102OSM    H6G10335   0.808   4.331   9.769  1.8159  2.0937 -2.9413
  102OSM    C7F10336   0.725   4.492   9.652 -0.4966 -0.0994  0.0353
  102OSM    H7F10337   0.645   4.568   9.667  0.5608  0.8229  1.2307
  102OSM    H7G10338   0.696   4.440   9.558 -1.5488 -2.3911  1.5332
  102OSM    C8F10339   0.857   4.569   9.635  0.0317  0.3224  0.0301
  102OSM    H8F10340   0.880   4.633   9.722  1.5317 -1.1131  0.7562
  102OSM    H8G10341   0.847   4.640   9.550  0.9399  0.6215  0.1572
  102OSM    C9F10342   0.975   4.483   9.608 -1.2700 -0.1835 -0.4335
  102OSM    H9F10343   1.001   4.415   9.691 -2.1856 -0.8028 -0.6483
  102OSM   C10F10344   1.027   4.459   9.482  0.5891 -0.5618  0.1542
  102OSM   H10F10345   1.116   4.396   9.471  1.9648  1.1027  1.3195
  102OSM   C11F10346   0.977   4.523   9.354 -0.1784  0.0748  0.2171
  102OSM   H11F10347   0.951   4.631   9.364  1.2376  0.3319  1.5387
  102OSM   H11G10348   0.893   4.463   9.312  0.4618 -0.2953 -0.5590
  102OSM   C12F10349   1.093   4.509   9.248 -0.0068  0.7128  0.3019
  102OSM   H12F10350   1.134   4.406   9.252 -1.6455  0.0290  0.3839
  102OSM   H12G10351   1.174   4.578   9.279  1.3711 -0.2892 -0.9496
  102OSM   C13F10352   1.045   4.542   9.104 -0.0263 -0.2760  1.1137
  102OSM   H13F10353   0.988   4.636   9.111 -0.0194 -0.2898  1.3892
  102OSM   H13G10354   0.975   4.464   9.068 -0.3803  1.0500 -1.1838
  102OSM   C14F10355   1.167   4.568   9.007  0.0267 -0.0391 -0.0020
  102OSM   H14F10356   1.210   4.466   9.019 -0.8728 -0.1952  2.6559
  102OSM   H14G10357   1.233   4.647   9.048  2.0746 -1.9347  0.5775
  102OSM   C15F10358   1.125   4.605   8.864 -0.2762  0.9171 -0.2845
  102OSM   H15F10359   1.065   4.698   8.875 -3.5825 -0.8348 -1.8954
  102OSM   H15G10360   1.062   4.528   8.813 -0.8907  1.6937 -0.7137
  102OSM   C16F10361   1.241   4.627   8.771 -0.0360  0.0179 -0.3043
  102OSM   H16F10362   1.291   4.529   8.758  0.8309  0.1680  1.6259
  102OSM   H16G10363   1.321   4.687   8.820  0.3641  0.2841 -1.2615
  102OSM   C17F10364   1.214   4.672   8.626 -0.1208  0.0571 -0.3828
  102OSM   H17F10365   1.145   4.758   8.629  0.0815  0.3526 -2.4891
  102OSM   H17G10366   1.175   4.580   8.576  3.2513 -1.8694  0.2075
  102OSM   C18F10367   1.344   4.706   8.554 -0.0862  0.3095  0.0817
  102OSM   H18F10368   1.397   4.793   8.599  1.2989 -0.2596 -0.3987
  102OSM   H18G10369   1.333   4.724   8.444  3.1981  2.7437 -0.0216
  102OSM   H18H10370   1.409   4.616   8.559 -0.5978 -0.0531  0.1487
  103OSM      N10371   4.578   1.616  10.855 -0.3744  0.1761 -0.6758
  103OSM    C1510372   4.506   1.536  10.749  0.6377 -0.0988  0.1488
  103OSM   H15A10373   4.513   1.435  10.788 -2.1332 -0.2891  0.3732
  103OSM   H15B10374   4.551   1.549  10.652 -0.3673 -3.9816 -1.0466
  103OSM   H15C10375   4.406   1.576  10.742  0.9187  0.6573  0.3717
  103OSM    C1410376   4.574   1.757  10.805  0.0135  0.3777 -0.3028
  103OSM   H14A10377   4.475   1.796  10.825 -0.3234 -1.3544  1.7933
  103OSM   H14B10378   4.587   1.749  10.698 -2.1125 -0.2132 -0.5668
  103OSM   H14C10379   4.653   1.813  10.852  0.4944  0.1753 -0.8652
  103OSM    C1310380   4.504   1.602  10.990  0.2728  0.2903 -0.5231
  103OSM   H13A10381   4.412   1.657  10.974 -0.3419 -0.1480  1.3361
  103OSM   H13B10382   4.557   1.650  11.071 -1.0961 -1.2144  1.3234
  103OSM   H13C10383   4.474   1.503  11.022 -0.8296  0.1363 -1.9394
  103OSM    C1210384   4.714   1.560  10.879  0.4270 -0.6048  0.1099
  103OSM   H12A10385   4.695   1.460  10.914  0.6911 -0.4576  0.6840
  103OSM   H12B10386   4.754   1.621  10.959 -0.9646 -1.5568  1.5942
  103OSM    C1110387   4.803   1.550  10.753  0.3401  0.7914 -0.4516
  103OSM   H11A10388   4.810   1.640  10.688  2.3301  0.3529 -0.9052
  103OSM   H11B10389   4.773   1.472  10.679  2.4163  0.7156 -1.2805
  103OSM      P10390   5.043   1.644  10.832  0.5763  0.3400  0.1823
  103OSM    O1310391   4.969   1.771  10.844 -0.1840  0.4676 -0.4658
  103OSM    O1410392   5.127   1.605  10.947  0.0871  0.3994 -0.0580
  103OSM    O1110393   5.130   1.647  10.701  0.5759 -0.5345  0.4345
  103OSM    O1210394   4.933   1.523  10.800 -0.9119 -0.6785  0.1109
  103OSM    C1S10395   5.146   1.538  10.609 -0.0381  0.1086  0.2419
  103OSM    H1S10396   5.124   1.437  10.649 -1.3357 -0.7425 -2.3721
  103OSM    H1T10397   5.255   1.540  10.587 -0.0527  1.9518  0.1938
  103OSM     NF10398   5.081   1.426  10.410 -0.7811  0.0438 -0.2764
  103OSM    HNF10399   5.162   1.409  10.355 -0.3646 -0.6728  0.5366
  103OSM    C2S10400   5.067   1.557  10.483  0.1599  0.3025  1.0023
  103OSM    H2S10401   4.959   1.578  10.498 -0.2448  0.4529 -1.6349
  103OSM    C3S10402   5.124   1.685  10.394 -0.0316  0.6593  0.2625
  103OSM    H3S10403   5.225   1.653  10.361 -0.8295 -2.4023  0.5083
  103OSM     O310404   5.144   1.800  10.468 -0.5767 -0.0345 -0.0979
  103OSM    HO310405   5.132   1.772  10.559  1.7288  0.0137  0.2916
  103OSM    C4S10406   5.033   1.716  10.276 -0.7562  0.1548 -0.1285
  103OSM    H4S10407   4.946   1.778  10.304 -1.4960 -0.2589 -1.4148
  103OSM    C5S10408   5.054   1.709  10.141  0.6950 -0.2925  0.2180
  103OSM    H5S10409   5.146   1.662  10.104  1.2895  1.3176 -0.4280
  103OSM    C6S10410   4.953   1.748  10.035 -0.2365  0.7177  0.7813
  103OSM    H6S10411   4.940   1.662   9.966 -0.3344 -1.3587  3.2367
  103OSM    H6T10412   4.996   1.828   9.972  1.1370 -0.0721  0.6705
  103OSM    C7S10413   4.817   1.789  10.076  0.1414  0.4992 -0.1752
  103OSM    H7S10414   4.818   1.872  10.150 -1.9000 -0.5480  1.1135
  103OSM    H7T10415   4.760   1.706  10.122 -0.2982  0.2819 -1.0861
  103OSM    C8S10416   4.737   1.839   9.965  0.1291  0.1170  0.2253
  103OSM    H8S10417   4.740   1.778   9.873 -0.1663  1.1809 -0.5172
  103OSM    H8T10418   4.768   1.939   9.928 -0.2874  0.5004  0.8748
  103OSM    C9S10419   4.586   1.859  10.006 -0.4162 -0.3404  0.2057
  103OSM    H9S10420   4.588   1.935  10.087 -1.5103  0.3823 -0.4076
  103OSM    H9T10421   4.549   1.764  10.049 -0.7332 -0.7101 -0.8327
  103OSM   C10S10422   4.496   1.891   9.886  0.4937 -0.5259  0.3830
  103OSM   H10S10423   4.390   1.873   9.916 -0.1665 -0.7064 -1.8597
  103OSM   H10T10424   4.505   1.814   9.806 -1.4372 -0.8757  0.4437
  103OSM   C11S10425   4.510   2.030   9.839 -0.2391 -0.2039  0.1668
  103OSM   H11S10426   4.613   2.064   9.815  0.3105 -0.7040  1.7057
  103OSM   H11T10427   4.478   2.081   9.933 -1.0983  1.5230 -0.9962
  103OSM   C12S10428   4.419   2.065   9.720  0.0218  0.5935 -0.2436
  103OSM   H12S10429   4.421   2.176   9.705 -1.3730  0.7256  0.3909
  103OSM   H12T10430   4.320   2.026   9.752 -0.7927  1.8476 -1.1087
  103OSM   C13S10431   4.465   2.003   9.588 -0.4808 -0.0307  0.4688
  103OSM   H13S10432   4.443   1.894   9.581  2.9395 -0.8140  0.2980
  103OSM   H13T10433   4.576   2.001   9.591 -0.3291  1.6090 -1.5215
  103OSM   C14S10434   4.437   2.088   9.462 -0.3996  0.3066  0.4314
  103OSM   H14S10435   4.482   2.035   9.375  1.5547  2.3345  0.1217
  103OSM   H14T10436   4.471   2.194   9.466 -1.5034  0.7457 -1.2043
  103OSM   C15S10437   4.285   2.091   9.420  0.6820  0.8562  0.0702
  103OSM   H15S10438   4.229   2.137   9.505 -2.0581  2.1304 -2.2695
  103OSM   H15T10439   4.240   1.991   9.403 -1.0822  1.2107  2.1785
  103OSM   C16S10440   4.271   2.170   9.295 -0.0542  0.0551  0.2489
  103OSM   H16S10441   4.321   2.269   9.305 -0.3029  0.4272 -1.8316
  103OSM   H16T10442   4.162   2.183   9.279  0.1357 -0.1471 -1.3414
  103OSM   C17S10443   4.317   2.093   9.163 -0.4192  0.8894 -0.1786
  103OSM   H17S10444   4.272   1.991   9.157  1.7144 -0.2415  1.5521
  103OSM   H17T10445   4.428   2.081   9.168 -0.4687 -0.8767 -1.9444
  103OSM   C18S10446   4.292   2.176   9.038 -0.4618 -0.8069 -0.3640
  103OSM   H18S10447   4.347   2.272   9.030 -0.2854 -0.8922 -0.1692
  103OSM   H18T10448   4.181   2.186   9.037 -0.5954 -2.0507 -0.4406
  103OSM   H18U10449   4.327   2.110   8.955  1.3349 -1.3291  0.7733
  103OSM    C1F10450   4.998   1.322  10.449  0.2092  0.0330 -0.2141
  103OSM     OF10451   4.899   1.350  10.515 -0.9822 -0.4757 -0.5750
  103OSM    C2F10452   5.046   1.184  10.416  0.0333 -0.3249  0.5498
  103OSM    H2F10453   5.040   1.120  10.507 -1.0745  0.6198  1.1678
  103OSM    H2G10454   5.149   1.193  10.374 -0.1939  0.6187  0.1885
  103OSM    C3F10455   4.959   1.125  10.300  0.7574  0.2805 -0.9678
  103OSM    H3F10456   4.997   1.154  10.200 -0.7185  0.2040 -1.5731
  103OSM    H3G10457   4.856   1.165  10.314  0.9524  1.3413 -2.3431
  103OSM    C4F10458   4.961   0.974  10.307  0.7148  0.6204 -0.1034
  103OSM    H4F10459   4.865   0.936  10.265 -0.1433  2.2421  0.3081
  103OSM    H4G10460   4.963   0.945  10.414  1.9339  0.6851 -0.0912
  103OSM    C5F10461   5.085   0.907  10.242 -0.1265 -0.1540 -0.7286
  103OSM    H5F10462   5.094   0.805  10.287 -1.3562 -0.4944 -1.2235
  103OSM    H5G10463   5.182   0.952  10.272 -0.4233 -1.5729  2.9684
  103OSM    C6F10464   5.073   0.895  10.093  0.1644 -1.0299 -0.2506
  103OSM    H6F10465   5.055   0.992  10.042  0.5478 -1.8512 -2.0293
  103OSM    H6G10466   4.980   0.842  10.064  0.3867 -1.8443  0.4784
  103OSM    C7F10467   5.189   0.821  10.019 -0.2310 -0.2382  0.8836
  103OSM    H7F10468   5.197   0.714  10.048  0.0420  0.0904  2.0823
  103OSM    H7G10469   5.284   0.877  10.037 -1.2535  1.7403  0.3951
  103OSM    C8F10470   5.159   0.819   9.867 -0.2280  0.1241 -0.2526
  103OSM    H8F10471   5.076   0.749   9.841  0.3664  0.3827 -3.2097
  103OSM    H8G10472   5.247   0.770   9.821 -0.7100 -0.2290 -0.8093
  103OSM    C9F10473   5.150   0.959   9.811  0.4799 -0.3127  0.1369
  103OSM    H9F10474   5.186   1.035   9.882 -1.2804  2.7520 -2.0347
  103OSM   C10F10475   5.091   1.000   9.693 -0.0593  0.3093 -0.5136
  103OSM   H10F10476   5.077   1.108   9.674 -0.9992  0.4543  0.8074
  103OSM   C11F10477   5.018   0.921   9.581 -0.2355 -0.2196 -0.5816
  103OSM   H11F10478   4.911   0.950   9.571  0.5707  2.3896 -2.8928
  103OSM   H11G10479   5.017   0.810   9.592 -1.6667 -0.0763  1.2049
  103OSM   C12F10480   5.063   0.955   9.438 -0.2620 -0.1822  0.0179
  103OSM   H12F10481   5.010   0.892   9.363 -0.6226  0.3276 -0.1603
  103OSM   H12G10482   5.169   0.929   9.415  0.3405  1.7656  0.4297
  103OSM   C13F10483   5.041   1.093   9.387 -0.4732 -0.0493  0.7355
  103OSM   H13F10484   5.099   1.164   9.449  0.8931  1.8727 -2.5079
  103OSM   H13G10485   4.936   1.129   9.388 -1.3265 -1.7659 -3.5717
  103OSM   C14F10486   5.085   1.119   9.244  0.7180  0.4104  0.1025
  103OSM   H14F10487   5.040   1.045   9.174 -0.0080  1.0159 -0.0864
  103OSM   H14G10488   5.196   1.117   9.242  0.7656 -0.1338  1.5394
  103OSM   C15F10489   5.040   1.261   9.200 -0.9623  0.4365  0.1334
  103OSM   H15F10490   5.084   1.342   9.262 -1.0229  1.3925 -1.0408
  103OSM   H15G10491   4.929   1.263   9.204 -1.1699 -3.7670  2.4176
  103OSM   C16F10492   5.087   1.296   9.055 -0.0560 -0.2046 -0.3553
  103OSM   H16F10493   5.197   1.312   9.049  0.5726 -0.9123  4.6727
  103OSM   H16G10494   5.039   1.395   9.039  1.1359  0.1583 -1.9717
  103OSM   C17F10495   5.025   1.192   8.959 -0.1029 -0.2385 -0.2133
  103OSM   H17F10496   4.921   1.176   8.995 -0.4346 -0.9459 -1.4340
  103OSM   H17G10497   5.087   1.100   8.968  2.1103  1.3446  2.7063
  103OSM   C18F10498   5.012   1.248   8.817 -0.3758 -0.3978  0.4304
  103OSM   H18F10499   5.112   1.270   8.774  1.1692 -1.7281  3.1067
  103OSM   H18G10500   4.952   1.342   8.823  0.8610  0.4846 -0.3547
  103OSM   H18H10501   4.949   1.183   8.753 -0.3158  2.0894 -2.3852
  104OSM      N10502   6.682   6.118  10.820  0.3738  0.4167  0.0076
  104OSM    C1510503   6.732   6.039  10.938 -0.3102 -0.2075 -0.4544
  104OSM   H15A10504   6.661   5.960  10.959 -1.3243  0.9204  0.5206
  104OSM   H15B10505   6.730   6.099  11.027 -0.3055 -0.4151 -0.3142
  104OSM   H15C10506   6.835   6.006  10.932 -0.9485 -2.9100  1.4819
  104OSM    C1410507   6.678   6.020  10.702 -0.2523 -0.2348 -0.4019
  104OSM   H14A10508   6.779   5.991  10.676  0.7399  0.6417  2.1481
  104OSM   H14B10509   6.622   6.073  10.626 -1.5927 -0.4324  0.4216
  104OSM   H14C10510   6.615   5.938  10.732  1.0629 -0.7144  1.1788
  104OSM    C1310511   6.539   6.152  10.857 -0.4762 -0.6313 -0.5289
  104OSM   H13A10512   6.479   6.063  10.869 -1.5002 -0.3145 -2.7375
  104OSM   H13B10513   6.491   6.204  10.775 -0.9191 -0.6257 -0.2698
  104OSM   H13C10514   6.537   6.225  10.937 -1.3523 -0.9749 -0.2267
  104OSM    C1210515   6.776   6.231  10.786  0.0798 -0.6077  0.3141
  104OSM   H12A10516   6.876   6.193  10.793 -0.0075 -0.7451  0.8588
  104OSM   H12B10517   6.782   6.287  10.877 -0.3887  0.4916 -0.3112
  104OSM    C1110518   6.759   6.326  10.668  0.8809 -0.1898 -0.1573
  104OSM   H11A10519   6.749   6.267  10.574  0.0426  0.0243 -0.2166
  104OSM   H11B10520   6.842   6.399  10.659 -0.2891  1.0627 -1.3288
  104OSM      P10521   6.641   6.525  10.779 -0.4191 -0.0745 -0.2978
  104OSM    O1310522   6.503   6.576  10.801 -0.2190 -0.3256 -0.4076
  104OSM    O1410523   6.713   6.486  10.900  0.1572 -0.1799  0.0778
  104OSM    O1110524   6.730   6.627  10.705 -0.4559  0.3683 -0.7013
  104OSM    O1210525   6.638   6.404  10.677 -0.0450 -0.1983  0.2708
  104OSM    C1S10526   6.695   6.666  10.573 -0.2222  0.4311 -0.2867
  104OSM    H1S10527   6.622   6.750  10.579 -2.4543 -1.4418  0.4260
  104OSM    H1T10528   6.655   6.579  10.517  1.9106 -1.7617  1.3598
  104OSM     NF10529   6.780   6.755  10.355 -0.4022  0.4786 -0.0616
  104OSM    HNF10530   6.794   6.678  10.293  0.1901 -0.5622  1.3081
  104OSM    C2S10531   6.814   6.726  10.495  0.5933 -0.1440 -0.0737
  104OSM    H2S10532   6.841   6.823  10.541  0.9419  0.4026 -1.3687
  104OSM    C3S10533   6.937   6.630  10.516 -0.1312 -0.7155 -0.8180
  104OSM    H3S10534   6.913   6.528  10.477 -0.8181 -1.2820  0.9966
  104OSM     O310535   6.980   6.614  10.650 -0.0893 -0.2053 -0.2973
  104OSM    HO310536   6.902   6.639  10.701  1.6617 -0.0564  2.5601
  104OSM    C4S10537   7.048   6.685  10.428 -0.1663  0.1211 -0.2637
  104OSM    H4S10538   7.059   6.644  10.326  0.6373 -1.4808  0.4306
  104OSM    C5S10539   7.132   6.781  10.458  0.8193  0.4727 -0.1883
  104OSM    H5S10540   7.133   6.816  10.562  0.3357 -1.4135  0.4880
  104OSM    C6S10541   7.246   6.843  10.376  0.8154 -0.2155 -0.5443
  104OSM    H6S10542   7.339   6.783  10.376  0.0920 -1.3981  0.6425
  104OSM    H6T10543   7.270   6.947  10.406 -2.2384  1.1718 -2.4052
  104OSM    C7S10544   7.213   6.855  10.221  0.6234 -0.1899 -0.6482
  104OSM    H7S10545   7.116   6.907  10.208  0.0310 -0.8104  1.0110
  104OSM    H7T10546   7.201   6.753  10.178  0.8852  0.1713 -1.5875
  104OSM    C8S10547   7.324   6.927  10.143 -0.2199  0.2305  0.6757
  104OSM    H8S10548   7.425   6.889  10.169  1.2801  2.7143 -1.0741
  104OSM    H8T10549   7.334   7.033  10.174  1.5536  0.7477 -1.4542
  104OSM    C9S10550   7.313   6.908   9.989 -0.1893 -0.1607  0.3247
  104OSM    H9S10551   7.215   6.951   9.960 -1.2354 -1.6739  1.4722
  104OSM    H9T10552   7.310   6.798   9.976  1.9419 -0.6738  3.1401
  104OSM   C10S10553   7.427   6.958   9.905  0.2231  0.1407  0.1214
  104OSM   H10S10554   7.513   6.890   9.925  0.9866  1.7990  3.1755
  104OSM   H10T10555   7.448   7.067   9.912 -2.8369  0.7963  0.5023
  104OSM   C11S10556   7.391   6.928   9.755  0.1107 -0.3663  0.0819
  104OSM   H11S10557   7.344   6.827   9.752  1.7060 -1.1472  0.1568
  104OSM   H11T10558   7.480   6.916   9.689 -0.6305  0.6053 -1.1408
  104OSM   C12S10559   7.303   7.029   9.684  0.9382  0.0393 -0.5371
  104OSM   H12S10560   7.342   7.133   9.693  0.4988  0.1475  0.2658
  104OSM   H12T10561   7.202   7.036   9.729 -0.1572 -0.0411 -2.8759
  104OSM   C13S10562   7.292   6.989   9.534 -0.0040  0.4339  0.0065
  104OSM   H13S10563   7.224   6.901   9.532 -2.3589  2.1147 -2.4226
  104OSM   H13T10564   7.392   6.972   9.488 -0.3418 -2.1589  0.0527
  104OSM   C14S10565   7.244   7.109   9.446  0.0848  0.4427  0.1169
  104OSM   H14S10566   7.311   7.196   9.462  0.4594  0.3254 -0.7408
  104OSM   H14T10567   7.147   7.142   9.488 -1.7832 -3.4445 -0.7493
  104OSM   C15S10568   7.248   7.051   9.306  0.1149 -0.6157 -0.3413
  104OSM   H15S10569   7.213   6.947   9.292 -0.7264 -0.4265  0.2354
  104OSM   H15T10570   7.356   7.053   9.283  0.5710 -1.2218  1.5371
  104OSM   C16S10571   7.184   7.150   9.204  0.3565 -0.0146  0.2009
  104OSM   H16S10572   7.241   7.246   9.206 -1.7893  1.3568 -0.1199
  104OSM   H16T10573   7.076   7.155   9.229  0.0441 -0.2007 -1.0365
  104OSM   C17S10574   7.185   7.108   9.059  0.8977  0.4232  0.2801
  104OSM   H17S10575   7.124   7.015   9.061  2.5640 -0.7352 -0.5147
  104OSM   H17T10576   7.287   7.079   9.025  1.1025 -0.0352  1.2312
  104OSM   C18S10577   7.115   7.210   8.968  0.1590  0.0523 -0.3421
  104OSM   H18S10578   7.163   7.310   8.977  1.5959 -0.3680 -2.5601
  104OSM   H18T10579   7.006   7.217   8.989  0.6418 -0.2688  2.6482
  104OSM   H18U10580   7.128   7.183   8.861 -1.2541  0.6432 -0.6866
  104OSM    C1F10581   6.690   6.841  10.316 -0.1543  0.1940 -0.7165
  104OSM     OF10582   6.664   6.946  10.373 -0.3608 -0.1426 -0.2426
  104OSM    C2F10583   6.626   6.803  10.185 -0.8334 -0.4290 -0.4769
  104OSM    H2F10584   6.577   6.705  10.204 -0.9695 -0.3179 -0.2519
  104OSM    H2G10585   6.708   6.785  10.111 -1.0649  2.0744 -1.4402
  104OSM    C3F10586   6.536   6.914  10.128  0.1683 -0.8574 -0.7554
  104OSM    H3F10587   6.597   6.998  10.089  0.2429 -1.1644 -1.3227
  104OSM    H3G10588   6.465   6.945  10.207 -2.2955 -0.8675 -2.8084
  104OSM    C4F10589   6.463   6.869  10.007  0.5262  0.6423  0.4118
  104OSM    H4F10590   6.371   6.932  10.003  1.0947  1.5799  1.8233
  104OSM    H4G10591   6.422   6.767  10.027 -0.7671  1.1473  0.4539
  104OSM    C5F10592   6.535   6.888   9.868 -0.0589 -0.1908 -0.1237
  104OSM    H5F10593   6.614   6.811   9.872  1.6025  1.4972  1.9654
  104OSM    H5G10594   6.583   6.988   9.860 -0.2644 -0.1485 -1.0133
  104OSM    C6F10595   6.447   6.852   9.748  0.2545 -1.4995  0.1302
  104OSM    H6F10596   6.353   6.911   9.745 -0.1840 -2.0697  1.5652
  104OSM    H6G10597   6.405   6.749   9.758 -2.2648 -1.1223 -4.1099
  104OSM    C7F10598   6.524   6.870   9.615 -0.2507  0.4308 -0.3223
  104OSM    H7F10599   6.618   6.810   9.615  0.7987  2.0265  0.0043
  104OSM    H7G10600   6.566   6.972   9.617 -2.1305  1.2170  0.7671
  104OSM    C8F10601   6.448   6.859   9.484 -0.0425 -1.0808  0.4394
  104OSM    H8F10602   6.512   6.898   9.402  0.4510 -0.9587  0.8756
  104OSM    H8G10603   6.362   6.929   9.483  1.3852  0.9066 -3.2462
  104OSM    C9F10604   6.391   6.725   9.453  0.5908  0.5756  0.4950
  104OSM    H9F10605   6.348   6.675   9.541 -3.0366  2.8460  0.2100
  104OSM   C10F10606   6.391   6.657   9.332 -0.0268 -0.8873 -0.9261
  104OSM   H10F10607   6.340   6.559   9.338 -3.1866  0.7054  0.8925
  104OSM   C11F10608   6.444   6.704   9.202  0.5344  0.4485 -0.0289
  104OSM   H11F10609   6.466   6.610   9.147  1.1678 -0.1139  1.1275
  104OSM   H11G10610   6.540   6.760   9.210  1.2416 -0.7742  0.2770
  104OSM   C12F10611   6.344   6.793   9.120  0.3017 -0.7830  0.5906
  104OSM   H12F10612   6.343   6.885   9.181  0.5262 -1.4225  1.5813
  104OSM   H12G10613   6.240   6.753   9.117 -0.1715  0.4111  0.5682
  104OSM   C13F10614   6.389   6.825   8.976  0.7458 -0.2767  0.2146
  104OSM   H13F10615   6.376   6.736   8.911  0.9666  0.5285 -0.9489
  104OSM   H13G10616   6.497   6.847   8.974  0.5028  1.6006  2.5459
  104OSM   C14F10617   6.322   6.950   8.923 -0.1499 -0.2079  0.4442
  104OSM   H14F10618   6.344   7.043   8.979  1.5774 -0.1969 -0.2041
  104OSM   H14G10619   6.212   6.940   8.933 -0.4222  0.4972 -1.4614
  104OSM   C15F10620   6.379   6.969   8.778  0.1376 -0.3133 -0.1341
  104OSM   H15F10621   6.345   6.884   8.716 -1.8414  1.1133 -1.1215
  104OSM   H15G10622   6.489   6.983   8.783 -0.1611  2.9925 -0.6732
  104OSM   C16F10623   6.326   7.097   8.707  0.5705  0.4604 -0.0170
  104OSM   H16F10624   6.379   7.093   8.610 -0.7170  0.1814 -0.7210
  104OSM   H16G10625   6.349   7.188   8.768  0.5870 -0.5876  1.6061
  104OSM   C17F10626   6.172   7.088   8.671 -0.1604 -0.1693  0.2401
  104OSM   H17F10627   6.105   7.111   8.756  1.8941  0.1940  1.8271
  104OSM   H17G10628   6.153   6.980   8.650  0.8507  0.0306 -1.9520
  104OSM   C18F10629   6.114   7.173   8.557 -1.2255  0.2470 -0.3685
  104OSM   H18F10630   6.005   7.151   8.554 -1.2238  0.0943  0.4659
  104OSM   H18G10631   6.166   7.134   8.467  1.1365 -0.2349  1.1299
  104OSM   H18H10632   6.133   7.282   8.572 -1.0180  0.1313  0.2198
  105OSM      N10633   2.883   4.582  11.045  0.3734 -0.0633 -0.0516
  105OSM    C1510634   2.936   4.650  10.919 -0.1205 -0.5571 -0.4713
  105OSM   H15A10635   2.891   4.748  10.916 -0.4099 -0.7053 -2.9483
  105OSM   H15B10636   2.912   4.606  10.824  0.2503  1.7791 -1.7153
  105OSM   H15C10637   3.044   4.653  10.925 -0.0864 -0.6774 -0.9919
  105OSM    C1410638   2.923   4.657  11.169  0.0490 -0.3944  0.2496
  105OSM   H14A10639   2.881   4.609  11.256 -1.4334 -0.9679 -0.7295
  105OSM   H14B10640   2.891   4.759  11.182 -3.5991 -1.4193  0.5364
  105OSM   H14C10641   3.031   4.655  11.176  0.0040 -1.4067  0.8690
  105OSM    C1310642   2.732   4.572  11.045  0.5552  0.4841 -0.0159
  105OSM   H13A10643   2.688   4.666  11.014 -0.2073  1.0136  2.3871
  105OSM   H13B10644   2.690   4.548  11.142 -1.4225  1.3485 -0.6078
  105OSM   H13C10645   2.690   4.498  10.979 -2.7195  1.7258  0.4845
  105OSM    C1210646   2.963   4.450  11.042  0.8853 -0.3427  0.7382
  105OSM   H12A10647   2.921   4.393  11.124 -0.6912  0.4521  0.5268
  105OSM   H12B10648   3.064   4.481  11.062  0.0187  1.7453  2.2940
  105OSM    C1110649   2.963   4.360  10.916  0.4956  0.3866 -0.4347
  105OSM   H11A10650   3.026   4.269  10.929 -1.9173 -1.0576  2.1700
  105OSM   H11B10651   3.014   4.405  10.828 -2.2416  0.4077 -2.0996
  105OSM      P10652   2.791   4.170  10.925  0.3308  0.4158 -0.4573
  105OSM    O1310653   2.860   4.132  11.047  0.4779  0.5607 -0.0410
  105OSM    O1410654   2.644   4.159  10.925 -0.1347  0.3370 -0.3876
  105OSM    O1110655   2.850   4.079  10.809  0.1166  0.0277 -0.6489
  105OSM    O1210656   2.830   4.317  10.887  0.5764  0.0900  0.2154
  105OSM    C1S10657   2.817   4.121  10.672  0.7971 -0.3385 -0.2393
  105OSM    H1S10658   2.814   4.231  10.662 -1.3548 -0.5170 -2.5823
  105OSM    H1T10659   2.718   4.079  10.644  1.9487 -5.0068  1.7398
  105OSM     NF10660   2.888   4.105  10.423 -0.8240 -0.2102  0.0165
  105OSM    HNF10661   2.850   4.039  10.360  1.1837  0.4734 -2.0326
  105OSM    C2S10662   2.909   4.059  10.560 -0.3148 -0.2166  0.0383
  105OSM    H2S10663   3.011   4.098  10.584 -0.5909  0.2116  0.5319
  105OSM    C3S10664   2.902   3.903  10.573  0.4446  0.2858 -0.4107
  105OSM    H3S10665   2.799   3.861  10.569  1.5026 -2.6034  0.3234
  105OSM     O310666   2.937   3.842  10.701  0.7240 -0.2944  0.8772
  105OSM    HO310667   2.922   3.915  10.762 -0.3355  0.4222 -0.1984
  105OSM    C4S10668   2.974   3.836  10.463 -0.3514 -0.4492 -0.4528
  105OSM    H4S10669   2.899   3.824  10.383  0.0821 -0.6351 -0.8355
  105OSM    C5S10670   3.101   3.789  10.454 -0.2919  0.5788  0.5843
  105OSM    H5S10671   3.163   3.788  10.545 -0.0599 -0.4070  0.4202
  105OSM    C6S10672   3.132   3.711  10.322  0.0307  0.0263  0.3069
  105OSM    H6S10673   3.193   3.622  10.350 -0.5681 -1.1819 -1.9815
  105OSM    H6T10674   3.198   3.785  10.271 -1.1709  0.9031 -0.0105
  105OSM    C7S10675   3.027   3.663  10.220 -0.0808  0.2817 -0.3401
  105OSM    H7S10676   3.078   3.617  10.132  1.7139  1.0073  0.2650
  105OSM    H7T10677   2.978   3.756  10.183  0.2078  0.0622 -1.3103
  105OSM    C8S10678   2.919   3.569  10.272  0.0188 -0.0669 -0.5257
  105OSM    H8S10679   2.882   3.600  10.372 -1.7557  0.3948 -1.2836
  105OSM    H8T10680   2.955   3.465  10.290 -0.8045 -0.0734  1.2171
  105OSM    C9S10681   2.797   3.541  10.169 -0.4048  0.2791 -0.9224
  105OSM    H9S10682   2.736   3.633  10.157  1.0236  1.0474 -2.8930
  105OSM    H9T10683   2.724   3.472  10.215 -1.0682  0.9925 -0.8822
  105OSM   C10S10684   2.848   3.490  10.033  0.2523  0.7449  0.4835
  105OSM   H10S10685   2.917   3.403  10.045 -0.1540  0.2260 -0.8150
  105OSM   H10T10686   2.900   3.571   9.978 -2.1801  2.6933  0.8886
  105OSM   C11S10687   2.732   3.441   9.942  0.1987 -0.3873  0.2141
  105OSM   H11S10688   2.649   3.512   9.960 -0.3904 -0.2236 -2.7437
  105OSM   H11T10689   2.706   3.339   9.980  1.3559 -1.5711 -1.9825
  105OSM   C12S10690   2.751   3.453   9.786  0.1452 -0.0873 -0.0147
  105OSM   H12S10691   2.843   3.397   9.758  0.4027 -0.1299  0.8909
  105OSM   H12T10692   2.760   3.560   9.757 -2.4957 -0.4533 -2.6998
  105OSM   C13S10693   2.630   3.408   9.707 -0.2487 -0.3441  0.3589
  105OSM   H13S10694   2.542   3.470   9.734  1.3463  2.0441  0.3966
  105OSM   H13T10695   2.597   3.309   9.744 -2.0736 -0.1349 -0.5865
  105OSM   C14S10696   2.640   3.378   9.559  0.2141  0.6687  0.4999
  105OSM   H14S10697   2.548   3.317   9.545  0.7798 -0.2580  0.8064
  105OSM   H14T10698   2.722   3.304   9.553 -2.2533 -2.2150 -0.3240
  105OSM   C15S10699   2.647   3.494   9.461 -0.0933 -0.5847 -0.0195
  105OSM   H15S10700   2.753   3.528   9.459 -0.0497 -0.7453 -1.4150
  105OSM   H15T10701   2.575   3.574   9.491  1.8416  1.8611 -1.4882
  105OSM   C16S10702   2.610   3.451   9.317  0.1227 -0.3822  0.4761
  105OSM   H16S10703   2.501   3.428   9.315 -0.5724  2.5525  0.0252
  105OSM   H16T10704   2.665   3.359   9.288  1.5997  0.4000  0.7194
  105OSM   C17S10705   2.643   3.560   9.218  0.8461 -1.0301 -0.2140
  105OSM   H17S10706   2.747   3.591   9.242 -0.2402  0.0792  3.8248
  105OSM   H17T10707   2.578   3.650   9.226  0.1220 -1.6270  0.8623
  105OSM   C18S10708   2.636   3.508   9.074  0.7762  0.3241 -0.2148
  105OSM   H18S10709   2.627   3.589   8.999 -1.5385 -0.0983 -0.4924
  105OSM   H18T10710   2.549   3.440   9.056  0.8956  0.3981 -1.0994
  105OSM   H18U10711   2.724   3.441   9.062 -1.2789 -2.5866 -0.2856
  105OSM    C1F10712   2.912   4.228  10.398 -0.0640 -0.0956 -0.0478
  105OSM     OF10713   2.948   4.305  10.490 -0.0200  0.0192 -0.2688
  105OSM    C2F10714   2.897   4.265  10.256  0.3045  0.3823  0.2929
  105OSM    H2F10715   2.830   4.350  10.234 -0.2839  0.6814  2.9760
  105OSM    H2G10716   2.876   4.176  10.192 -0.0386  1.0592 -0.5450
  105OSM    C3F10717   3.027   4.334  10.204  0.2937  0.2987 -0.3897
  105OSM    H3F10718   3.110   4.263  10.223 -0.3663 -0.2496  0.5373
  105OSM    H3G10719   3.053   4.431  10.252  0.4878  0.7820 -1.4535
  105OSM    C4F10720   3.024   4.363  10.053 -0.2775 -0.6627  0.4941
  105OSM    H4F10721   2.931   4.420  10.034  0.3834  0.0329 -0.7754
  105OSM    H4G10722   3.013   4.268   9.998  0.1996 -0.3852 -0.0852
  105OSM    C5F10723   3.150   4.436  10.005  0.0785  0.1811 -0.6122
  105OSM    H5F10724   3.234   4.364  10.019 -0.3914 -0.3564 -0.5444
  105OSM    H5G10725   3.163   4.525  10.070 -0.6129 -0.2429  0.1087
  105OSM    C6F10726   3.142   4.480   9.856  0.1136  0.3342  0.1327
  105OSM    H6F10727   3.224   4.554   9.845  1.3722 -0.7356  1.7167
  105OSM    H6G10728   3.045   4.532   9.851  0.2742  0.5911 -0.4826
  105OSM    C7F10729   3.146   4.361   9.751 -0.4291 -0.0888 -0.5913
  105OSM    H7F10730   3.099   4.275   9.804  0.2058  0.7251  1.3703
  105OSM    H7G10731   3.250   4.334   9.724  0.1112  0.6194  0.6611
  105OSM    C8F10732   3.076   4.403   9.619  0.7415  0.0843 -0.4655
  105OSM    H8F10733   3.102   4.506   9.587  0.0450  0.5676  0.4980
  105OSM    H8G10734   2.968   4.411   9.642  0.6259 -2.1498 -0.0336
  105OSM    C9F10735   3.084   4.314   9.507 -1.0978 -0.3337  0.4959
  105OSM    H9F10736   3.027   4.221   9.521 -2.8612  0.5136 -0.7026
  105OSM   C10F10737   3.152   4.323   9.388  0.1987  0.3030 -0.0555
  105OSM   H10F10738   3.129   4.243   9.315 -1.1001  0.8674 -0.2813
  105OSM   C11F10739   3.231   4.431   9.341 -0.2742 -0.1738  0.1375
  105OSM   H11F10740   3.337   4.399   9.331 -0.8429 -2.0596 -0.2996
  105OSM   H11G10741   3.226   4.525   9.399 -0.6880  0.7262 -1.2992
  105OSM   C12F10742   3.180   4.468   9.200  0.4611 -0.3788  0.4982
  105OSM   H12F10743   3.192   4.381   9.132 -0.0073  0.2614 -0.4265
  105OSM   H12G10744   3.243   4.545   9.151 -0.8313 -1.1495 -2.6122
  105OSM   C13F10745   3.038   4.517   9.198  0.0210 -0.0424  0.0233
  105OSM   H13F10746   3.037   4.617   9.247 -0.5107 -0.5917  1.1631
  105OSM   H13G10747   2.970   4.449   9.254 -2.3988  1.1929 -1.2284
  105OSM   C14F10748   2.965   4.540   9.062  0.2867  0.0390  0.7173
  105OSM   H14F10749   3.029   4.596   8.990  0.1412 -0.4269  0.2180
  105OSM   H14G10750   2.876   4.605   9.073  0.3654  0.3792 -0.4443
  105OSM   C15F10751   2.919   4.414   8.992  0.9081  0.0399  0.4560
  105OSM   H15F10752   2.850   4.359   9.059 -1.5994  0.8859 -1.2956
  105OSM   H15G10753   2.998   4.345   8.955  0.6299 -0.1127  0.1446
  105OSM   C16F10754   2.832   4.456   8.869 -0.5498  0.5200  0.8413
  105OSM   H16F10755   2.884   4.520   8.795  1.0590  0.3264  1.7636
  105OSM   H16G10756   2.736   4.506   8.896  0.4396  1.7877  2.2078
  105OSM   C17F10757   2.785   4.337   8.788 -0.0876  0.2800 -0.1413
  105OSM   H17F10758   2.732   4.273   8.862 -2.1629 -0.1128 -1.8666
  105OSM   H17G10759   2.865   4.279   8.739  0.6792  0.9343  0.3096
  105OSM   C18F10760   2.686   4.371   8.680 -0.4909 -0.2400  0.0893
  105OSM   H18F10761   2.605   4.443   8.705 -0.7251  0.1663 -1.6950
  105OSM   H18G10762   2.639   4.275   8.649 -2.2247  0.8287 -0.7525
  105OSM   H18H10763   2.741   4.408   8.591  0.3361  0.3244  0.8266
  106OSM      N10764   3.207   2.948  10.953  0.3700 -0.8261  0.1507
  106OSM    C1510765   3.328   2.881  10.902 -0.3900  0.1752  0.5830
  106OSM   H15A10766   3.398   2.907  10.980  0.6656  0.1084 -0.3267
  106OSM   H15B10767   3.364   2.914  10.806 -2.3159  0.2401 -0.1645
  106OSM   H15C10768   3.325   2.773  10.912  0.5355  0.2641  2.1316
  106OSM    C1410769   3.189   2.923  11.099 -0.1395  0.2029 -0.4865
  106OSM   H14A10770   3.110   2.978  11.149  0.7188 -0.0826  1.2508
  106OSM   H14B10771   3.283   2.947  11.147  0.4506 -1.0148 -1.0013
  106OSM   H14C10772   3.173   2.817  11.110 -1.3778  0.5167  1.4054
  106OSM    C1310773   3.206   3.095  10.927  0.3821 -0.6235  0.1713
  106OSM   H13A10774   3.289   3.141  10.977  0.2852 -1.1980  0.8804
  106OSM   H13B10775   3.113   3.133  10.968 -1.1413 -4.0028  0.2496
  106OSM   H13C10776   3.201   3.116  10.821 -1.1758 -1.6008  0.0100
  106OSM    C1210777   3.088   2.889  10.880 -0.6014  0.4458  0.3825
  106OSM   H12A10778   2.995   2.915  10.929 -1.3996 -1.3487 -0.1334
  106OSM   H12B10779   3.101   2.784  10.899  1.0052  0.6566  0.5968
  106OSM    C1110780   3.077   2.897  10.729  0.4215  0.6243 -0.1746
  106OSM   H11A10781   3.015   2.809  10.702  0.7220 -0.1525  1.5235
  106OSM   H11B10782   3.179   2.881  10.688  0.5002  1.3955 -0.2909
  106OSM      P10783   2.870   3.045  10.704  0.3148  0.3260 -0.0436
  106OSM    O1310784   2.830   3.020  10.846 -0.1923  0.3983 -0.3411
  106OSM    O1410785   2.837   3.182  10.658  0.4618  0.1622  0.4064
  106OSM    O1110786   2.795   2.941  10.600  0.4974 -0.0704 -0.0348
  106OSM    O1210787   3.023   3.024  10.690 -0.6404  0.5299 -0.2097
  106OSM    C1S10788   2.655   2.920  10.613  0.5141  0.0927 -0.5217
  106OSM    H1S10789   2.608   2.963  10.705 -2.0873 -3.2954 -0.0878
  106OSM    H1T10790   2.632   2.811  10.609 -1.3364  0.5001 -2.5490
  106OSM     NF10791   2.440   2.982  10.535 -1.3735 -0.0324  0.4513
  106OSM    HNF10792   2.398   2.899  10.500  0.4710  0.1852 -2.7021
  106OSM    C2S10793   2.580   2.991  10.501  0.7690  0.0083  0.2998
  106OSM    H2S10794   2.613   3.097  10.510 -0.0039  0.2126  0.8533
  106OSM    C3S10795   2.609   2.930  10.362 -0.3033 -0.0400  0.7796
  106OSM    H3S10796   2.574   2.824  10.361  1.2230 -0.5795 -0.9339
  106OSM     O310797   2.744   2.917  10.335 -0.2247  0.3871  0.0692
  106OSM    HO310798   2.784   2.947  10.417  2.6725 -1.5013 -0.5076
  106OSM    C4S10799   2.532   2.998  10.248 -0.6719  0.0556 -0.1915
  106OSM    H4S10800   2.434   2.948  10.239 -0.1098 -0.7387 -2.4795
  106OSM    C5S10801   2.558   3.107  10.173  0.2477  0.3966 -0.2188
  106OSM    H5S10802   2.654   3.159  10.187  0.4398 -0.4638  2.2543
  106OSM    C6S10803   2.464   3.153  10.060 -0.5027  0.1038 -0.4018
  106OSM    H6S10804   2.386   3.076  10.042 -0.4936 -0.3029  1.2414
  106OSM    H6T10805   2.529   3.162   9.970 -0.9891  1.6788 -0.6361
  106OSM    C7S10806   2.392   3.284  10.080 -0.1772 -0.9415 -0.0932
  106OSM    H7S10807   2.448   3.371  10.122 -0.4341 -2.6167  4.2475
  106OSM    H7T10808   2.307   3.278  10.151 -0.7566  0.1890 -0.6588
  106OSM    C8S10809   2.343   3.330   9.948  0.6659  0.5220  0.0032
  106OSM    H8S10810   2.416   3.308   9.868 -1.1586  2.8306 -2.4935
  106OSM    H8T10811   2.334   3.440   9.939  1.3502  0.4941 -1.3068
  106OSM    C9S10812   2.202   3.279   9.913  0.8349 -0.3096 -0.1834
  106OSM    H9S10813   2.127   3.309   9.990  1.2319 -1.2195  0.5707
  106OSM    H9T10814   2.205   3.168   9.920  2.8393 -0.2449  0.8132
  106OSM   C10S10815   2.167   3.316   9.769  0.1568 -0.4807  0.0765
  106OSM   H10S10816   2.205   3.417   9.744 -0.2597 -0.6956 -1.5455
  106OSM   H10T10817   2.057   3.331   9.773  0.3948  2.2806 -1.4353
  106OSM   C11S10818   2.203   3.214   9.660  0.3279 -0.4300 -0.0365
  106OSM   H11S10819   2.160   3.116   9.691 -0.9427  1.0740  3.6084
  106OSM   H11T10820   2.313   3.202   9.662  0.5180  1.0738  1.1981
  106OSM   C12S10821   2.145   3.259   9.527  0.9584  0.1898 -0.1209
  106OSM   H12S10822   2.120   3.366   9.539 -1.7072 -0.6184  2.5081
  106OSM   H12T10823   2.051   3.200   9.526  2.0808 -1.7051  0.4563
  106OSM   C13S10824   2.224   3.235   9.395  0.2080 -0.1580  0.1776
  106OSM   H13S10825   2.242   3.126   9.382 -0.9315 -0.1703 -1.5993
  106OSM   H13T10826   2.319   3.292   9.398 -0.1986  0.4907  1.4470
  106OSM   C14S10827   2.150   3.291   9.275 -0.1996 -0.4702 -0.3137
  106OSM   H14S10828   2.157   3.401   9.282  1.8702 -0.5542 -0.5201
  106OSM   H14T10829   2.045   3.258   9.289  0.4379 -2.0297  1.3220
  106OSM   C15S10830   2.223   3.247   9.146  0.9286 -0.0500 -0.4067
  106OSM   H15S10831   2.221   3.137   9.139 -0.4020 -0.1884  1.4165
  106OSM   H15T10832   2.329   3.276   9.161  0.9829 -0.8319  0.8434
  106OSM   C16S10833   2.187   3.325   9.022  0.2254 -0.1986  0.1723
  106OSM   H16S10834   2.235   3.424   9.038  0.8399 -0.0492 -2.1431
  106OSM   H16T10835   2.077   3.340   9.022  0.1201 -0.7856  1.5545
  106OSM   C17S10836   2.236   3.270   8.889  0.1148 -0.2712 -0.6449
  106OSM   H17S10837   2.152   3.203   8.861 -0.0411  0.1578 -1.2090
  106OSM   H17T10838   2.327   3.206   8.898 -1.6386 -2.6345  2.4619
  106OSM   C18S10839   2.259   3.377   8.782 -0.2305 -0.0221  0.2770
  106OSM   H18S10840   2.162   3.416   8.745 -1.1885 -0.7454  1.9075
  106OSM   H18T10841   2.319   3.334   8.699 -0.0046  0.7383  0.0415
  106OSM   H18U10842   2.314   3.463   8.825 -0.3994 -0.3945  1.2562
  106OSM    C1F10843   2.372   3.065  10.616  0.5017  0.6334  0.4751
  106OSM     OF10844   2.431   3.135  10.696  0.5165  0.1573 -0.9363
  106OSM    C2F10845   2.231   3.070  10.607  0.5561 -0.5131  0.8495
  106OSM    H2F10846   2.185   3.080  10.708 -1.4989 -0.0948 -0.0854
  106OSM    H2G10847   2.197   2.974  10.564  1.7612  0.2093 -1.9331
  106OSM    C3F10848   2.171   3.182  10.523 -0.5642 -0.8518  0.2126
  106OSM    H3F10849   2.228   3.276  10.537 -1.1134 -0.3467 -0.8021
  106OSM    H3G10850   2.071   3.207  10.566 -0.2269  0.8620  0.0715
  106OSM    C4F10851   2.163   3.158  10.365 -0.0897  0.2514  0.1184
  106OSM    H4F10852   2.263   3.124  10.329  0.1734  0.9433  0.1819
  106OSM    H4G10853   2.152   3.258  10.319  2.4693 -0.4719 -2.4275
  106OSM    C5F10854   2.051   3.059  10.315  0.7868  0.2286 -0.2883
  106OSM    H5F10855   1.959   3.098  10.365  1.2428  0.8828  0.0524
  106OSM    H5G10856   2.067   2.954  10.348 -0.2070  0.1166 -0.1281
  106OSM    C6F10857   2.011   3.076  10.164  0.4705 -1.3449  0.4940
  106OSM    H6F10858   2.094   3.034  10.103  1.6891 -0.9476  1.8167
  106OSM    H6G10859   2.009   3.185  10.140  1.6664 -1.4830 -0.3743
  106OSM    C7F10860   1.892   3.002  10.139  0.6457  0.1732 -0.2758
  106OSM    H7F10861   1.810   3.055  10.193 -1.0717 -1.0971 -1.5243
  106OSM    H7G10862   1.893   2.895  10.167 -3.4516 -0.1872 -0.8392
  106OSM    C8F10863   1.857   2.998   9.989 -0.3835  0.9842 -0.6808
  106OSM    H8F10864   1.783   2.918   9.967 -0.5661  0.5373  1.3843
  106OSM    H8G10865   1.944   2.977   9.923  1.3704 -2.2713  2.3325
  106OSM    C9F10866   1.808   3.131   9.948 -0.0527 -0.2518 -0.1039
  106OSM    H9F10867   1.841   3.219  10.006  0.8265 -0.9003  0.4087
  106OSM   C10F10868   1.728   3.151   9.841  0.5290  0.9307  1.5023
  106OSM   H10F10869   1.716   3.256   9.811  1.3915  0.5497 -0.3655
  106OSM   C11F10870   1.675   3.045   9.749  0.5592  0.0031 -0.2282
  106OSM   H11F10871   1.564   3.044   9.759  0.3354 -0.3855 -2.2345
  106OSM   H11G10872   1.701   2.943   9.783 -1.9796  0.1236  2.4630
  106OSM   C12F10873   1.720   3.067   9.604 -0.2979  0.5989  0.3759
  106OSM   H12F10874   1.827   3.039   9.601 -0.5461 -0.4780  1.1063
  106OSM   H12G10875   1.725   3.175   9.577 -0.1764  0.6521  0.6066
  106OSM   C13F10876   1.630   2.980   9.514 -0.2029 -0.7002  0.1644
  106OSM   H13F10877   1.541   3.045   9.507  2.1555  2.8039  0.1520
  106OSM   H13G10878   1.612   2.880   9.559 -0.0116 -0.9866 -0.3888
  106OSM   C14F10879   1.695   2.956   9.376 -0.1679 -0.2883  0.5109
  106OSM   H14F10880   1.624   2.891   9.320 -0.5453 -1.6342  2.4695
  106OSM   H14G10881   1.791   2.901   9.366  1.3794  2.1194  1.0813
  106OSM   C15F10882   1.717   3.090   9.297  0.9935  0.2215 -0.1814
  106OSM   H15F10883   1.798   3.149   9.345 -1.4859  2.6199  1.3543
  106OSM   H15G10884   1.616   3.137   9.298  0.4708 -0.8632  0.9580
  106OSM   C16F10885   1.739   3.072   9.143  0.0047  0.6544 -0.8203
  106OSM   H16F10886   1.720   3.169   9.092 -0.2298 -0.0074 -2.0164
  106OSM   H16G10887   1.657   3.005   9.110 -2.6531  3.4885 -0.4076
  106OSM   C17F10888   1.878   3.009   9.123  0.5193  0.3163 -0.5731
  106OSM   H17F10889   1.862   2.899   9.124 -0.6265  0.4477  1.7049
  106OSM   H17G10890   1.950   3.042   9.201 -0.4808  1.2037  0.0066
  106OSM   C18F10891   1.944   3.052   8.980  0.1259  0.0193 -0.6155
  106OSM   H18F10892   2.019   2.979   8.944  0.4797  0.6724 -1.2138
  106OSM   H18G10893   1.987   3.154   8.995  1.1602 -0.4987  0.1298
  106OSM   H18H10894   1.858   3.063   8.911  0.8100 -1.1087 -1.6810
  107OSM      N10895   5.988   6.720  10.706 -0.3128 -0.1174 -0.4060
  107OSM    C1510896   6.117   6.639  10.730  0.0425 -0.1484 -0.2189
  107OSM   H15A10897   6.189   6.623  10.651  1.6758  3.7789  0.2258
  107OSM   H15B10898   6.091   6.540  10.763 -1.4841  0.3272  0.0530
  107OSM   H15C10899   6.181   6.687  10.803  2.1733 -2.5493 -0.3473
  107OSM    C1410900   5.942   6.738  10.845 -0.5282 -0.0390 -0.1633
  107OSM   H14A10901   5.854   6.800  10.842 -0.8071 -0.4677 -1.2109
  107OSM   H14B10902   6.015   6.784  10.910  2.0422 -1.2903 -1.9630
  107OSM   H14C10903   5.915   6.643  10.889 -0.6866  0.3632  0.6306
  107OSM    C1310904   6.017   6.850  10.641  0.2687 -0.1383 -0.4909
  107OSM   H13A10905   6.090   6.896  10.706  0.4890  0.9006 -1.4411
  107OSM   H13B10906   5.931   6.915  10.648 -0.9722 -1.5770 -1.6749
  107OSM   H13C10907   6.054   6.844  10.540  0.7426  0.8503 -0.3914
  107OSM    C1210908   5.885   6.644  10.629 -0.9220 -0.7100 -0.1591
  107OSM   H12A10909   5.865   6.551  10.680  0.7471 -1.1210 -0.2039
  107OSM   H12B10910   5.922   6.612  10.532 -0.1984  1.5904 -0.7156
  107OSM    C1110911   5.753   6.724  10.603  0.3822 -0.5875  0.1153
  107OSM   H11A10912   5.693   6.666  10.529 -0.0124 -0.1217  0.0571
  107OSM   H11B10913   5.774   6.818  10.548  0.5446 -1.4185 -1.3003
  107OSM      P10914   5.535   6.712  10.753 -0.1046  0.2745  0.7006
  107OSM    O1310915   5.545   6.573  10.795 -0.8546  0.3488  0.0980
  107OSM    O1410916   5.471   6.809  10.848 -0.0004 -0.5092  0.0569
  107OSM    O1110917   5.456   6.713  10.622 -0.3150 -0.3368 -0.4697
  107OSM    O1210918   5.679   6.763  10.719  0.1475  0.0451  0.1829
  107OSM    C1S10919   5.446   6.828  10.533  0.3153  0.1598 -0.0800
  107OSM    H1S10920   5.506   6.915  10.566 -0.7662  1.1065 -0.5310
  107OSM    H1T10921   5.339   6.859  10.540  1.2622  3.4782  2.1555
  107OSM     NF10922   5.456   6.927  10.299 -0.4239 -0.9297  0.0128
  107OSM    HNF10923   5.372   6.937  10.248  1.0251  1.9416 -2.1200
  107OSM    C2S10924   5.479   6.806  10.378  0.1900 -0.6391  0.0515
  107OSM    H2S10925   5.589   6.791  10.375  0.8953  2.9125  1.8391
  107OSM    C3S10926   5.397   6.681  10.331  0.3792  0.2079  0.3268
  107OSM    H3S10927   5.287   6.692  10.343  0.3481 -1.0356  1.3792
  107OSM     O310928   5.418   6.566  10.410  0.5441  0.1085  0.7646
  107OSM    HO310929   5.473   6.598  10.482 -0.0048 -1.1828  1.8131
  107OSM    C4S10930   5.421   6.655  10.177  0.3042 -0.1666 -0.8743
  107OSM    H4S10931   5.338   6.675  10.108 -0.4172 -2.4842 -0.7619
  107OSM    C5S10932   5.521   6.584  10.134 -0.7575  0.0485  0.6645
  107OSM    H5S10933   5.590   6.546  10.210 -1.0692  0.3495  1.1008
  107OSM    C6S10934   5.563   6.540   9.998 -0.2866 -0.1657  0.7127
  107OSM    H6S10935   5.560   6.429   9.991  0.9024 -0.2092  0.7040
  107OSM    H6T10936   5.672   6.560   9.994 -0.3580  0.2617  0.7831
  107OSM    C7S10937   5.503   6.610   9.869 -0.5444  0.4818 -0.4313
  107OSM    H7S10938   5.498   6.718   9.892 -0.6201  0.7276 -1.5360
  107OSM    H7T10939   5.403   6.562   9.857 -0.2388 -0.0261 -1.0238
  107OSM    C8S10940   5.581   6.586   9.742 -0.9383  0.1008  0.3636
  107OSM    H8S10941   5.548   6.483   9.718 -1.1687  0.5111 -1.2408
  107OSM    H8T10942   5.690   6.579   9.762 -0.7941 -1.1125 -0.7267
  107OSM    C9S10943   5.537   6.673   9.619  0.5483 -0.1790 -0.7876
  107OSM    H9S10944   5.588   6.771   9.632 -0.5209  0.4855 -1.4162
  107OSM    H9T10945   5.426   6.677   9.628  0.6314 -0.4064  0.5205
  107OSM   C10S10946   5.550   6.615   9.481 -0.5698  0.7025 -0.0308
  107OSM   H10S10947   5.512   6.511   9.467 -0.1072  0.2073  2.1478
  107OSM   H10T10948   5.659   6.597   9.474 -0.5400 -1.2560  3.4823
  107OSM   C11S10949   5.512   6.707   9.365 -0.4001 -0.5386 -0.0277
  107OSM   H11S10950   5.535   6.813   9.391 -0.4632  0.0096 -2.0425
  107OSM   H11T10951   5.402   6.709   9.347  0.1542  0.6150 -4.1358
  107OSM   C12S10952   5.576   6.669   9.232 -0.2349  0.2338  0.2310
  107OSM   H12S10953   5.571   6.559   9.216  2.0069  0.2630 -1.1054
  107OSM   H12T10954   5.683   6.693   9.247  0.0875 -0.4968 -0.7717
  107OSM   C13S10955   5.530   6.747   9.108 -0.1529  0.3280 -0.1305
  107OSM   H13S10956   5.589   6.709   9.022 -1.2185 -3.0553  0.4724
  107OSM   H13T10957   5.538   6.856   9.126 -2.4125  0.8987 -2.0770
  107OSM   C14S10958   5.388   6.704   9.077 -0.3260  0.4515 -0.0569
  107OSM   H14S10959   5.325   6.737   9.163  0.4309  0.7243  0.3979
  107OSM   H14T10960   5.367   6.599   9.047 -0.8907  0.9350 -1.4466
  107OSM   C15S10961   5.347   6.783   8.959 -0.0662 -0.9814  0.8214
  107OSM   H15S10962   5.381   6.888   8.961 -1.7063 -0.3400 -1.4172
  107OSM   H15T10963   5.236   6.789   8.958  0.0152  1.1057  0.3241
  107OSM   C16S10964   5.395   6.735   8.820  0.7207 -0.4257 -0.3571
  107OSM   H16S10965   5.349   6.638   8.792 -3.1645  0.8006  0.9816
  107OSM   H16T10966   5.503   6.713   8.809  0.4576 -1.7642 -0.3520
  107OSM   C17S10967   5.352   6.841   8.719  0.4960 -0.7208  0.5345
  107OSM   H17S10968   5.404   6.936   8.742 -0.3658 -0.5111  1.6749
  107OSM   H17T10969   5.243   6.854   8.734  0.8575  0.5183  2.3654
  107OSM   C18S10970   5.367   6.805   8.570  0.2569  0.1015 -0.2002
  107OSM   H18S10971   5.475   6.788   8.549  0.4318  1.0003 -0.0535
  107OSM   H18T10972   5.338   6.887   8.502 -0.2932  0.7099  0.7472
  107OSM   H18U10973   5.319   6.713   8.530 -0.4671  0.0532  0.7484
  107OSM    C1F10974   5.543   7.022  10.298  0.6188 -0.1802  0.5559
  107OSM     OF10975   5.643   7.023  10.362  0.2088 -0.0421 -0.2642
  107OSM    C2F10976   5.499   7.143  10.225 -0.3055 -0.7136 -0.1353
  107OSM    H2F10977   5.537   7.232  10.281 -1.6001 -0.8228  0.9782
  107OSM    H2G10978   5.389   7.149  10.212 -0.0579  1.1058 -1.9845
  107OSM    C3F10979   5.550   7.136  10.078 -0.3166 -0.0837 -0.3941
  107OSM    H3F10980   5.507   7.039  10.043  0.0021 -0.4567  0.2391
  107OSM    H3G10981   5.660   7.123  10.073 -0.4271 -0.9462 -0.8676
  107OSM    C4F10982   5.506   7.263   9.996  0.4596 -0.0180 -0.2114
  107OSM    H4F10983   5.560   7.351  10.036 -1.2377 -0.0731  2.4250
  107OSM    H4G10984   5.397   7.278  10.013  0.1732 -1.5308 -0.5595
  107OSM    C5F10985   5.529   7.248   9.846 -0.4809  0.1619  0.0075
  107OSM    H5F10986   5.488   7.151   9.810  0.4366  0.7831 -3.0003
  107OSM    H5G10987   5.638   7.232   9.831  0.3638  2.4430  2.8518
  107OSM    C6F10988   5.460   7.364   9.769  0.3994  0.1133 -0.2695
  107OSM    H6F10989   5.504   7.452   9.820  0.3648  0.1063 -0.2277
  107OSM    H6G10990   5.352   7.356   9.794  1.0131 -1.4729  2.1490
  107OSM    C7F10991   5.478   7.370   9.619 -0.2012  0.0153 -0.0781
  107OSM    H7F10992   5.428   7.274   9.593 -0.0655 -0.2399  0.5884
  107OSM    H7G10993   5.585   7.377   9.592  0.2318  1.2790  1.8469
  107OSM    C8F10994   5.407   7.491   9.555 -0.3284  0.4730 -0.8052
  107OSM    H8F10995   5.451   7.518   9.456 -4.0171  4.3554 -1.7161
  107OSM    H8G10996   5.425   7.586   9.609  1.1662 -0.0918 -0.2675
  107OSM    C9F10997   5.254   7.469   9.536 -0.7961 -0.0416 -0.0563
  107OSM    H9F10998   5.200   7.494   9.629  0.4499  1.3215  0.3417
  107OSM   C10F10999   5.181   7.425   9.433  0.0848  0.8417 -0.1149
  107OSM   H10F11000   5.071   7.420   9.442 -0.0113  0.9644 -1.1178
  107OSM   C11F11001   5.233   7.377   9.300  0.3285 -0.5822 -0.6475
  107OSM   H11F11002   5.317   7.443   9.271 -0.1581  0.5257  0.4135
  107OSM   H11G11003   5.149   7.398   9.230  0.6181  1.2376 -0.4764
  107OSM   C12F11004   5.275   7.227   9.285 -0.4328 -0.4611  0.1928
  107OSM   H12F11005   5.183   7.168   9.307 -1.6029  1.1551 -0.2179
  107OSM   H12G11006   5.352   7.201   9.360  1.0134 -0.1539 -1.1257
  107OSM   C13F11007   5.317   7.180   9.148  0.1170 -0.6789 -0.0699
  107OSM   H13F11008   5.322   7.070   9.136  0.2570 -0.4804 -2.0577
  107OSM   H13G11009   5.411   7.222   9.107 -0.2935  1.8990  1.4096
  107OSM   C14F11010   5.204   7.217   9.052 -0.5487 -0.1283  0.2827
  107OSM   H14F11011   5.205   7.324   9.023 -0.6118 -0.3067 -0.3864
  107OSM   H14G11012   5.105   7.197   9.098 -1.0079 -2.6914 -1.6105
  107OSM   C15F11013   5.194   7.131   8.924 -0.0184 -0.5532 -0.3122
  107OSM   H15F11014   5.123   7.048   8.943 -1.8857  0.8161 -0.8859
  107OSM   H15G11015   5.290   7.085   8.894  0.3245  0.9748 -1.7164
  107OSM   C16F11016   5.134   7.197   8.799  1.2027  0.1482  0.2464
  107OSM   H16F11017   5.162   7.141   8.707  1.3360 -0.6750  0.7840
  107OSM   H16G11018   5.182   7.298   8.794 -2.6604  2.1504  0.2491
  107OSM   C17F11019   4.983   7.210   8.804 -0.1325 -0.3233 -0.6016
  107OSM   H17F11020   4.946   7.268   8.891 -0.7829 -0.0913 -1.0263
  107OSM   H17G11021   4.931   7.112   8.814 -0.3563 -0.1632 -0.1787
  107OSM   C18F11022   4.925   7.282   8.681 -0.2701  0.3585  0.4650
  107OSM   H18F11023   4.821   7.321   8.685 -0.5305 -0.1426 -0.8713
  107OSM   H18G11024   4.906   7.211   8.598 -2.6137  0.1388  1.1020
  107OSM   H18H11025   4.996   7.355   8.637 -2.0352  1.4556 -0.6705
  108OSM      N11026   2.249   1.142  10.989 -0.1814  0.1959 -0.6330
  108OSM    C1511027   2.242   1.009  11.060 -0.0881 -0.1825  0.0086
  108OSM   H15A11028   2.270   1.012  11.164 -0.2198  2.9641  0.0512
  108OSM   H15B11029   2.297   0.934  11.006 -0.6242 -1.1325  0.7549
  108OSM   H15C11030   2.140   0.976  11.059 -0.4057  0.7277  0.7080
  108OSM    C1411031   2.141   1.231  11.050 -0.4076  0.2020 -0.1118
  108OSM   H14A11032   2.155   1.335  11.028  0.0598  0.2192  0.2417
  108OSM   H14B11033   2.152   1.213  11.156  1.1326 -1.9242 -0.5566
  108OSM   H14C11034   2.043   1.202  11.015 -0.2916  0.7341 -0.8934
  108OSM    C1311035   2.382   1.198  11.016 -0.4067 -0.0014  0.0569
  108OSM   H13A11036   2.394   1.291  10.961  2.7696 -1.3215 -1.7851
  108OSM   H13B11037   2.462   1.144  10.968 -1.2204 -0.1318 -1.2202
  108OSM   H13C11038   2.401   1.208  11.122 -2.5939  0.6081  0.4450
  108OSM    C1211039   2.225   1.122  10.840  0.5432 -0.1630 -0.6998
  108OSM   H12A11040   2.308   1.078  10.787  0.2869 -0.0419 -1.2079
  108OSM   H12B11041   2.198   1.214  10.791  1.1961  0.5489  0.2309
  108OSM    C1111042   2.104   1.035  10.796 -0.3481  0.4712  0.0243
  108OSM   H11A11043   2.128   0.934  10.838  0.5163  0.4327 -0.5332
  108OSM   H11B11044   2.116   1.023  10.686 -1.1992  0.0119 -0.0243
  108OSM      P11045   1.910   1.201  10.730 -0.0003 -0.2789 -0.1529
  108OSM    O1311046   1.769   1.214  10.774  0.6742  0.5759  0.4451
  108OSM    O1411047   1.998   1.319  10.733  0.1494  0.4707 -0.4641
  108OSM    O1111048   1.922   1.144  10.583 -0.9828  0.5818 -0.1100
  108OSM    O1211049   1.972   1.088  10.826 -0.1839  0.1068  0.4089
  108OSM    C1S11050   1.843   1.023  10.552  0.1660 -0.0594 -0.6296
  108OSM    H1S11051   1.734   1.039  10.565  0.5228  0.8690  1.5997
  108OSM    H1T11052   1.872   0.938  10.617 -1.4723  1.0429  1.6738
  108OSM     NF11053   1.801   0.850  10.379  0.1512 -0.7285 -0.2533
  108OSM    HNF11054   1.850   0.763  10.373  0.3213 -0.6663  0.1861
  108OSM    C2S11055   1.875   0.974  10.403  0.4935 -0.3191 -0.1454
  108OSM    H2S11056   1.837   1.056  10.339  0.8184  0.0985  0.1948
  108OSM    C3S11057   2.027   0.956  10.379  0.1011  0.4242 -0.4109
  108OSM    H3S11058   2.062   0.881  10.454 -4.2885 -0.1186  1.4146
  108OSM     O311059   2.101   1.075  10.400 -0.4669  0.1870 -0.2779
  108OSM    HO311060   2.054   1.134  10.459  2.7811  2.0639  0.6849
  108OSM    C4S11061   2.053   0.920  10.239 -0.4421  0.2084  0.3994
  108OSM    H4S11062   1.998   0.982  10.167  2.1831  2.4480  0.1729
  108OSM    C5S11063   2.099   0.801  10.198 -0.7724  0.3391 -0.5879
  108OSM    H5S11064   2.135   0.727  10.271 -1.2367  0.4181 -0.2720
  108OSM    C6S11065   2.118   0.768  10.054 -0.1793 -0.1527  0.5347
  108OSM    H6S11066   2.092   0.838   9.972 -3.0975 -1.9852 -0.2980
  108OSM    H6T11067   2.066   0.671  10.033  0.8067 -0.9502  1.6293
  108OSM    C7S11068   2.267   0.724  10.030  0.0685  0.4261  0.2880
  108OSM    H7S11069   2.279   0.630  10.089 -1.2950  0.0758  0.0464
  108OSM    H7T11070   2.343   0.793  10.070  1.3186  0.3108 -1.7431
  108OSM    C8S11071   2.291   0.702   9.882  0.1225  0.3415  0.2250
  108OSM    H8S11072   2.244   0.791   9.836 -1.1440 -0.9534 -1.1351
  108OSM    H8T11073   2.234   0.613   9.846 -1.5558  1.4695  0.0094
  108OSM    C9S11074   2.447   0.675   9.843  1.3247 -0.1274 -0.3815
  108OSM    H9S11075   2.466   0.573   9.882 -2.4253 -0.5273  0.7122
  108OSM    H9T11076   2.513   0.743   9.902  1.7190 -0.5251 -0.3555
  108OSM   C10S11077   2.473   0.683   9.695 -0.7951  1.0708  0.8680
  108OSM   H10S11078   2.581   0.667   9.676 -1.3281 -0.1939 -1.5500
  108OSM   H10T11079   2.442   0.774   9.640 -2.3383 -0.4800 -0.9912
  108OSM   C11S11080   2.427   0.551   9.625 -0.3949 -0.0286  0.4458
  108OSM   H11S11081   2.325   0.517   9.653 -0.6543 -0.6366 -1.0942
  108OSM   H11T11082   2.500   0.472   9.652 -1.2141 -1.2322 -0.6700
  108OSM   C12S11083   2.432   0.563   9.466  0.4671 -0.7787 -0.3375
  108OSM   H12S11084   2.534   0.601   9.439 -0.9319  1.7812 -2.5774
  108OSM   H12T11085   2.359   0.631   9.416  1.8084 -0.1950 -1.6067
  108OSM   C13S11086   2.428   0.425   9.409 -0.2828 -0.0290  0.2688
  108OSM   H13S11087   2.326   0.390   9.439 -1.0840  1.6999 -0.2992
  108OSM   H13T11088   2.496   0.361   9.469  1.7832  3.2792  1.7947
  108OSM   C14S11089   2.462   0.411   9.259 -0.2245  0.5705 -0.3361
  108OSM   H14S11090   2.469   0.303   9.234 -1.2387  0.6652 -1.0996
  108OSM   H14T11091   2.557   0.460   9.230  1.0891 -0.9792  1.1379
  108OSM   C15S11092   2.356   0.479   9.170  0.4052  0.1107 -0.5228
  108OSM   H15S11093   2.329   0.576   9.217 -0.3934 -0.6378  0.6355
  108OSM   H15T11094   2.259   0.425   9.172  0.5909 -0.2854 -1.6414
  108OSM   C16S11095   2.403   0.528   9.030  0.2754 -0.1528 -0.1156
  108OSM   H16S11096   2.420   0.434   8.973  1.2418 -0.7224  1.0667
  108OSM   H16T11097   2.500   0.581   9.043  0.5139 -0.3558 -0.9862
  108OSM   C17S11098   2.288   0.601   8.956  0.1578  0.3124 -0.3440
  108OSM   H17S11099   2.323   0.622   8.853  1.7009  0.6385  0.2232
  108OSM   H17T11100   2.284   0.702   9.004 -2.6827 -0.5364  1.4737
  108OSM   C18S11101   2.150   0.534   8.959 -0.0451  0.4206  0.4424
  108OSM   H18S11102   2.091   0.583   8.878  1.0109  0.3989 -0.3617
  108OSM   H18T11103   2.107   0.547   9.061 -1.3508 -2.5182  0.3644
  108OSM   H18U11104   2.154   0.427   8.931  2.0450  0.8177 -1.0204
  108OSM    C1F11105   1.665   0.863  10.350 -0.6163  0.6348  0.1507
  108OSM     OF11106   1.610   0.972  10.353 -0.3973 -0.8343 -0.2075
  108OSM    C2F11107   1.586   0.738  10.318  0.8714  0.2185  0.3962
  108OSM    H2F11108   1.559   0.693  10.416  0.4373  1.1200  0.7014
  108OSM    H2G11109   1.655   0.662  10.274  2.0071  1.6382 -0.3996
  108OSM    C3F11110   1.451   0.768  10.231 -0.5398 -0.5576 -0.1853
  108OSM    H3F11111   1.384   0.838  10.284  0.9176 -0.2816  1.3733
  108OSM    H3G11112   1.394   0.675  10.207 -0.3779 -0.2108 -2.0709
  108OSM    C4F11113   1.475   0.821  10.094  0.1259 -0.3437 -0.1784
  108OSM    H4F11114   1.556   0.897  10.091 -0.1498  0.1872  2.8302
  108OSM    H4G11115   1.386   0.878  10.059  0.1701 -0.1119  0.0881
  108OSM    C5F11116   1.519   0.718   9.987 -0.3531  0.3992  0.0253
  108OSM    H5F11117   1.476   0.759   9.893  0.6161  1.7861  0.1690
  108OSM    H5G11118   1.471   0.619  10.003  1.7108 -0.6195  0.2697
  108OSM    C6F11119   1.671   0.703   9.962 -0.0072 -0.2202  0.4273
  108OSM    H6F11120   1.707   0.644  10.049  0.4127 -0.4528  0.1045
  108OSM    H6G11121   1.717   0.803   9.972 -1.9714  0.9229 -1.1821
  108OSM    C7F11122   1.715   0.616   9.852 -0.7622 -0.4267 -0.4323
  108OSM    H7F11123   1.685   0.509   9.861  0.3709 -0.9565 -2.3267
  108OSM    H7G11124   1.825   0.615   9.838 -0.4587 -0.6246  1.6749
  108OSM    C8F11125   1.647   0.654   9.716 -0.3772 -0.2129  0.7723
  108OSM    H8F11126   1.658   0.764   9.714  1.0421 -0.3185  1.1034
  108OSM    H8G11127   1.538   0.633   9.720 -0.4059  0.0336  1.4188
  108OSM    C9F11128   1.705   0.596   9.585  0.3749 -0.5161 -0.4594
  108OSM    H9F11129   1.697   0.488   9.567  1.8622 -0.8943  0.8715
  108OSM   C10F11130   1.773   0.656   9.485 -0.5229  0.4097 -0.5997
  108OSM   H10F11131   1.822   0.587   9.414 -0.1659  3.0542 -3.1111
  108OSM   C11F11132   1.800   0.800   9.467 -0.1895 -0.3862  0.2360
  108OSM   H11F11133   1.728   0.865   9.520 -1.2026 -1.9835  0.9100
  108OSM   H11G11134   1.770   0.814   9.361 -0.4928  1.0289  0.4981
  108OSM   C12F11135   1.946   0.853   9.485 -0.0325 -0.0226 -0.9705
  108OSM   H12F11136   1.974   0.849   9.592 -1.0943 -4.0254 -0.7051
  108OSM   H12G11137   1.959   0.956   9.445 -1.4130 -0.6620 -3.2457
  108OSM   C13F11138   2.061   0.766   9.432 -0.7899  0.5940  1.0416
  108OSM   H13F11139   2.072   0.683   9.505  2.9730 -0.0081  0.0240
  108OSM   H13G11140   2.159   0.819   9.427 -1.4029  1.6505 -0.5623
  108OSM   C14F11141   2.040   0.713   9.289 -0.2451  0.1582  0.4800
  108OSM   H14F11142   1.941   0.669   9.267  0.0951 -1.0774  1.2892
  108OSM   H14G11143   2.115   0.632   9.276 -0.8173  0.0530 -3.1465
  108OSM   C15F11144   2.079   0.823   9.187 -0.5085 -0.5830  0.6191
  108OSM   H15F11145   2.183   0.805   9.154 -1.0286 -2.5193 -0.0671
  108OSM   H15G11146   2.080   0.916   9.248  0.3152 -0.0643 -0.1655
  108OSM   C16F11147   1.990   0.836   9.067  0.4150 -0.6766  0.4267
  108OSM   H16F11148   1.895   0.880   9.102  1.1287  2.5468 -1.3349
  108OSM   H16G11149   1.978   0.734   9.024  0.7025 -1.2231  1.6129
  108OSM   C17F11150   2.052   0.923   8.960  0.2154  0.1015 -0.5156
  108OSM   H17F11151   1.969   0.934   8.887  0.1201 -2.2020 -0.8212
  108OSM   H17G11152   2.133   0.883   8.897  0.3904 -0.7071  0.1992
  108OSM   C18F11153   2.098   1.063   9.019 -0.5767  0.2839 -0.7303
  108OSM   H18F11154   2.130   1.125   8.933  1.8480 -0.6235 -0.5464
  108OSM   H18G11155   2.181   1.053   9.093  0.2868  0.7707 -1.6168
  108OSM   H18H11156   2.005   1.104   9.065 -1.0108 -2.7531  1.5056
  109OSM      N11157   0.638   6.024  10.993 -0.3081  0.5739  0.3532
  109OSM    C1511158   0.547   5.898  10.990 -0.1358 -0.6033  0.7033
  109OSM   H15A11159   0.526   5.869  10.889 -1.3402 -1.4893  1.1812
  109OSM   H15B11160   0.452   5.924  11.036  0.9386  3.2356  1.1846
  109OSM   H15C11161   0.588   5.811  11.038  1.3083  0.4230  1.4142
  109OSM    C1411162   0.652   6.073  11.134  0.8181  0.0065  0.1346
  109OSM   H14A11163   0.722   6.155  11.146  0.4349  0.4129 -0.3329
  109OSM   H14B11164   0.683   5.994  11.201  1.3386  0.9602  1.0467
  109OSM   H14C11165   0.557   6.103  11.174 -0.2968 -1.2722 -1.3927
  109OSM    C1311166   0.775   5.997  10.939  0.1677 -0.3339 -0.0114
  109OSM   H13A11167   0.841   6.082  10.946  0.7988 -0.6259 -1.8941
  109OSM   H13B11168   0.757   5.981  10.834 -1.2419  0.7311  0.0408
  109OSM   H13C11169   0.827   5.915  10.987 -0.5277 -0.6236  0.2686
  109OSM    C1211170   0.577   6.135  10.913  0.3411 -0.3239  0.0317
  109OSM   H12A11171   0.638   6.224  10.920  0.8302 -0.3808 -2.6422
  109OSM   H12B11172   0.486   6.163  10.965 -0.0907 -0.3806 -0.6760
  109OSM    C1111173   0.535   6.114  10.757  0.8221  0.0029  0.7474
  109OSM   H11A11174   0.629   6.107  10.698 -0.6285 -1.2235 -1.5733
  109OSM   H11B11175   0.484   6.211  10.734  0.6562  0.2863  2.2016
  109OSM      P11176   0.295   5.991  10.742 -0.2842 -0.0252 -0.0884
  109OSM    O1311177   0.251   5.859  10.785 -0.5007  0.7216 -0.0008
  109OSM    O1411178   0.230   6.108  10.807 -0.4613 -0.0298 -0.3657
  109OSM    O1111179   0.268   5.984  10.594  0.2957  0.1117  0.0326
  109OSM    O1211180   0.454   5.995  10.731  0.0423  0.6068  0.1039
  109OSM    C1S11181   0.314   6.079  10.507  0.6445 -1.1784 -0.6460
  109OSM    H1S11182   0.421   6.063  10.479  1.4162  3.3159 -1.0224
  109OSM    H1T11183   0.308   6.184  10.541 -1.2763 -1.0356 -1.3262
  109OSM     NF11184   0.261   6.214  10.307  0.0217 -0.4849 -0.0191
  109OSM    HNF11185   0.185   6.277  10.291  0.8866  0.2429 -1.5053
  109OSM    C2S11186   0.233   6.091  10.373  0.1354 -0.3797 -0.1347
  109OSM    H2S11187   0.273   6.006  10.312  0.1224 -0.1038 -0.5352
  109OSM    C3S11188   0.082   6.063  10.391 -0.0895 -0.4583  0.4980
  109OSM    H3S11189   0.042   6.129  10.471 -1.7399 -1.3708  0.4872
  109OSM     O311190   0.059   5.924  10.434  0.5401  0.2553  0.1388
  109OSM    HO311191   0.146   5.901  10.467  0.4040 -1.3573 -0.5588
  109OSM    C4S11192  -0.003   6.094  10.272  0.0188 -0.7192  0.1617
  109OSM    H4S11193  -0.090   6.153  10.305  0.5349  0.1990 -0.0722
  109OSM    C5S11194  -0.009   6.038  10.149  0.0189 -0.8033  0.1211
  109OSM    H5S11195   0.060   5.955  10.129  1.2641  0.0483  0.6763
  109OSM    C6S11196  -0.119   6.069  10.049 -0.4981  0.0391 -0.1312
  109OSM    H6S11197  -0.070   6.071   9.950  2.2144 -1.7165  1.0585
  109OSM    H6T11198  -0.163   6.168  10.076  0.6232  0.6880 -0.6292
  109OSM    C7S11199  -0.219   5.954  10.024  0.1784  0.0221 -0.3644
  109OSM    H7S11200  -0.288   5.955  10.111 -0.6211  1.9503 -0.9781
  109OSM    H7T11201  -0.169   5.854  10.026 -0.7910 -0.5095 -1.8402
  109OSM    C8S11202  -0.299   5.970   9.894 -0.0598 -0.7284  0.7898
  109OSM    H8S11203  -0.229   6.002   9.814 -1.4807  0.9280  0.1390
  109OSM    H8T11204  -0.381   6.044   9.906 -0.5988 -0.9915 -1.0550
  109OSM    C9S11205  -0.362   5.839   9.852 -0.0372 -1.0419  0.1268
  109OSM    H9S11206  -0.417   5.800   9.941 -0.2931  2.5688  1.7126
  109OSM    H9T11207  -0.277   5.770   9.834 -0.5238 -1.8594  0.8887
  109OSM   C10S11208  -0.475   5.845   9.741 -0.2577  0.0253 -0.0905
  109OSM   H10S11209  -0.431   5.869   9.642 -3.3454  3.1314 -0.9205
  109OSM   H10T11210  -0.541   5.932   9.759 -1.4258 -1.4577  4.0943
  109OSM   C11S11211  -0.580   5.730   9.735  0.5826 -0.2007  0.3574
  109OSM   H11S11212  -0.623   5.732   9.837 -4.1888  0.2216 -1.4416
  109OSM   H11T11213  -0.534   5.631   9.718 -2.2403 -1.4173 -0.7345
  109OSM   C12S11214  -0.684   5.741   9.625  0.6001  0.3394 -0.1994
  109OSM   H12S11215  -0.735   5.838   9.642  0.2496  0.2075 -0.4715
  109OSM   H12T11216  -0.767   5.668   9.641 -0.2251  1.6356  1.9184
  109OSM   C13S11217  -0.633   5.739   9.485  0.4295  0.3144 -0.2056
  109OSM   H13S11218  -0.571   5.648   9.473 -1.4012 -1.2423  1.4309
  109OSM   H13T11219  -0.562   5.825   9.478  0.4410  0.3696  0.4905
  109OSM   C14S11220  -0.744   5.736   9.377 -0.7595  0.7230  0.1441
  109OSM   H14S11221  -0.794   5.835   9.390  0.2805  1.3819 -0.6727
  109OSM   H14T11222  -0.814   5.653   9.401  0.8192 -0.9017 -0.6492
  109OSM   C15S11223  -0.691   5.725   9.239 -0.7343  0.1431  0.1834
  109OSM   H15S11224  -0.624   5.637   9.228 -2.5581 -1.2655 -0.1181
  109OSM   H15T11225  -0.636   5.816   9.207 -1.5482  0.5127 -0.1975
  109OSM   C16S11226  -0.803   5.705   9.136 -0.3935  0.5672 -0.1795
  109OSM   H16S11227  -0.888   5.776   9.142 -1.0605  0.1842 -3.3445
  109OSM   H16T11228  -0.845   5.603   9.145 -0.5748  0.6591  0.0541
  109OSM   C17S11229  -0.743   5.700   8.988 -0.1252 -0.5746 -0.6898
  109OSM   H17S11230  -0.692   5.798   8.975 -1.1237  0.0185 -0.2878
  109OSM   H17T11231  -0.822   5.694   8.909 -0.1821 -1.1158 -0.5903
  109OSM   C18S11232  -0.638   5.591   8.973 -0.4267  0.8280 -0.4673
  109OSM   H18S11233  -0.682   5.490   8.958 -0.2587  0.6160  0.4280
  109OSM   H18T11234  -0.549   5.589   9.039  0.9909 -0.3264 -2.3472
  109OSM   H18U11235  -0.596   5.598   8.871 -0.2982 -1.9595 -0.6719
  109OSM    C1F11236   0.396   6.242  10.283 -0.1845  0.8903  0.8241
  109OSM     OF11237   0.478   6.149  10.261  0.3239 -0.3841  0.6503
  109OSM    C2F11238   0.441   6.383  10.281  0.5977  1.0770 -0.4053
  109OSM    H2F11239   0.468   6.410  10.385  2.9802  1.4351 -1.0579
  109OSM    H2G11240   0.352   6.441  10.247 -0.1359  0.8476  1.0562
  109OSM    C3F11241   0.559   6.400  10.184 -0.2221 -0.2378 -0.0894
  109OSM    H3F11242   0.533   6.365  10.082 -1.3919  2.4612 -0.7998
  109OSM    H3G11243   0.648   6.347  10.226  0.2539  1.9301  1.8238
  109OSM    C4F11244   0.615   6.539  10.196 -0.7301  0.3143 -0.0705
  109OSM    H4F11245   0.639   6.552  10.304  0.8667  1.0532 -0.4772
  109OSM    H4G11246   0.535   6.610  10.166 -0.4087 -0.2377 -2.4915
  109OSM    C5F11247   0.734   6.579  10.102  0.2508 -0.0912 -0.6686
  109OSM    H5F11248   0.826   6.518  10.113 -0.6018 -1.5945 -1.5973
  109OSM    H5G11249   0.760   6.686  10.111  0.1912  0.2649 -3.5913
  109OSM    C6F11250   0.695   6.562   9.955  0.8116  0.7259 -0.0764
  109OSM    H6F11251   0.606   6.623   9.929  0.0532 -0.9690 -1.6698
  109OSM    H6G11252   0.677   6.456   9.928 -2.9602  0.8857  1.3192
  109OSM    C7F11253   0.807   6.601   9.857 -0.6156  0.3095 -0.4133
  109OSM    H7F11254   0.893   6.532   9.867 -2.1657 -1.4646  1.5447
  109OSM    H7G11255   0.827   6.702   9.899 -4.5056  1.4952 -0.9912
  109OSM    C8F11256   0.753   6.613   9.712  0.3197  0.4925 -0.2036
  109OSM    H8F11257   0.823   6.669   9.647  1.8448  1.3088  2.0287
  109OSM    H8G11258   0.662   6.676   9.722 -0.2208 -0.1876 -0.7481
  109OSM    C9F11259   0.726   6.472   9.666 -0.3717  0.7571  0.4238
  109OSM    H9F11260   0.648   6.408   9.710 -0.7451  0.4034 -0.7094
  109OSM   C10F11261   0.787   6.409   9.568  0.0332  0.3528  0.4905
  109OSM   H10F11262   0.754   6.306   9.550 -0.6740  0.8183 -1.1034
  109OSM   C11F11263   0.896   6.459   9.470  0.2418 -0.7115 -0.5942
  109OSM   H11F11264   0.988   6.396   9.466  0.5710 -0.4602  1.6280
  109OSM   H11G11265   0.931   6.562   9.489  0.0990 -0.1381 -3.1277
  109OSM   C12F11266   0.836   6.471   9.327 -0.0902  0.1916 -0.2957
  109OSM   H12F11267   0.780   6.378   9.306  0.5039 -0.4223  0.7851
  109OSM   H12G11268   0.918   6.468   9.252  0.1969  0.3640  0.0086
  109OSM   C13F11269   0.748   6.587   9.309 -0.0235 -0.2699  0.7537
  109OSM   H13F11270   0.783   6.684   9.351 -0.0274 -0.0534  0.2573
  109OSM   H13G11271   0.650   6.565   9.357  0.8197 -1.0132  2.2072
  109OSM   C14F11272   0.718   6.619   9.161 -0.6020 -0.5898 -0.3924
  109OSM   H14F11273   0.682   6.535   9.099  1.9132 -1.3619 -0.9171
  109OSM   H14G11274   0.815   6.636   9.109  0.1975  0.8037  1.4089
  109OSM   C15F11275   0.628   6.748   9.139  0.5459 -0.3620  0.1026
  109OSM   H15F11276   0.669   6.835   9.194 -0.5213  0.8392 -0.9224
  109OSM   H15G11277   0.530   6.725   9.185  1.0150 -3.1393 -0.0683
  109OSM   C16F11278   0.610   6.786   8.985 -0.7084  0.3485  0.8302
  109OSM   H16F11279   0.703   6.748   8.938 -1.9345 -1.5046 -0.2320
  109OSM   H16G11280   0.598   6.897   8.979 -2.7762  0.1168 -0.2289
  109OSM   C17F11281   0.482   6.730   8.922  0.0481  0.0920  0.2443
  109OSM   H17F11282   0.397   6.768   8.984  1.2407  2.3912  0.5794
  109OSM   H17G11283   0.477   6.619   8.917 -0.7618  0.1689 -1.0537
  109OSM   C18F11284   0.461   6.779   8.777  0.3571 -0.1742 -0.5961
  109OSM   H18F11285   0.386   6.717   8.723  1.8356 -0.0798 -2.8496
  109OSM   H18G11286   0.553   6.769   8.717  0.6455  0.9035 -0.3533
  109OSM   H18H11287   0.436   6.887   8.773  1.9564  0.1907 -2.4189
  110OSM      N11288   4.200   5.414  11.113 -0.0233  0.3131 -0.1573
  110OSM    C1511289   4.102   5.515  11.158  0.1070 -0.9919  0.0301
  110OSM   H15A11290   4.143   5.614  11.144 -0.0732 -1.0878 -1.2749
  110OSM   H15B11291   4.069   5.492  11.259 -0.7114  0.4377  0.1245
  110OSM   H15C11292   4.012   5.525  11.100  0.0205  0.5570  0.3943
  110OSM    C1411293   4.286   5.385  11.231 -0.3904  0.8452 -0.0052
  110OSM   H14A11294   4.221   5.359  11.314 -1.6310 -2.2532 -1.7748
  110OSM   H14B11295   4.339   5.475  11.258  2.9703 -1.0689  0.2324
  110OSM   H14C11296   4.345   5.297  11.211 -2.3137 -1.0547  2.0530
  110OSM    C1311297   4.128   5.281  11.078 -0.7100  0.3967 -0.2249
  110OSM   H13A11298   4.206   5.207  11.069 -2.4172 -1.4467 -0.4252
  110OSM   H13B11299   4.074   5.282  10.985 -0.8243 -0.6080 -0.1839
  110OSM   H13C11300   4.052   5.258  11.150 -1.1902  0.4363 -0.7177
  110OSM    C1211301   4.296   5.451  10.998  0.0520  0.7694 -0.3784
  110OSM   H12A11302   4.248   5.477  10.905  2.6705  1.8022 -1.5559
  110OSM   H12B11303   4.349   5.357  10.987 -1.4789 -0.5192  2.2733
  110OSM    C1111304   4.391   5.570  11.031  0.4069  0.1029  0.0703
  110OSM   H11A11305   4.464   5.569  10.948 -0.3916 -0.1946 -0.6432
  110OSM   H11B11306   4.444   5.554  11.127 -2.6087  0.8995  2.0343
  110OSM      P11307   4.257   5.755  10.904 -0.2452 -0.3847  0.1335
  110OSM    O1311308   4.134   5.691  10.860  0.1132 -0.3475  0.2739
  110OSM    O1411309   4.247   5.901  10.932  0.7200  0.6135 -0.8465
  110OSM    O1111310   4.371   5.728  10.794  0.3248 -0.2329 -0.6750
  110OSM    O1211311   4.314   5.693  11.044  0.0547  0.2889 -0.3961
  110OSM    C1S11312   4.354   5.786  10.664 -0.4654 -0.4703 -0.2630
  110OSM    H1S11313   4.425   5.871  10.652  1.2665 -1.7011  0.7242
  110OSM    H1T11314   4.255   5.833  10.645 -0.3075  0.0444  0.1676
  110OSM     NF11315   4.343   5.739  10.426  0.9248 -0.0631 -0.1420
  110OSM    HNF11316   4.254   5.733  10.381  0.5594 -1.3265  0.6775
  110OSM    C2S11317   4.366   5.677  10.556  0.6661 -0.7172 -0.0931
  110OSM    H2S11318   4.471   5.641  10.550  1.3516  1.4713 -2.8553
  110OSM    C3S11319   4.277   5.551  10.585  0.2643  0.0530 -0.3016
  110OSM    H3S11320   4.170   5.577  10.598 -0.0516 -0.2954 -1.9560
  110OSM     O311321   4.301   5.484  10.712  0.3577 -1.1964  0.1273
  110OSM    HO311322   4.353   5.559  10.743 -1.7588  1.0615 -1.3267
  110OSM    C4S11323   4.295   5.445  10.478 -0.6852 -0.7375  0.1491
  110OSM    H4S11324   4.395   5.399  10.474 -2.1720 -4.3768  0.6771
  110OSM    C5S11325   4.205   5.401  10.394  0.4576 -0.0213 -0.5183
  110OSM    H5S11326   4.104   5.442  10.406  1.4625  1.8318  2.9604
  110OSM    C6S11327   4.225   5.303  10.287  0.5906 -0.5133  0.5238
  110OSM    H6S11328   4.169   5.209  10.311 -0.3602 -0.1080 -0.0410
  110OSM    H6T11329   4.331   5.271  10.278  0.4934 -0.5712 -0.6510
  110OSM    C7S11330   4.194   5.369  10.148 -0.5518 -0.2603 -0.4050
  110OSM    H7S11331   4.257   5.458  10.123 -2.0107  0.7730 -0.5248
  110OSM    H7T11332   4.094   5.418  10.143 -0.4577 -0.1501 -1.4825
  110OSM    C8S11333   4.213   5.270  10.035 -0.6391 -0.4249 -0.1323
  110OSM    H8S11334   4.165   5.172  10.054  1.8900 -1.7168  0.0215
  110OSM    H8T11335   4.322   5.250  10.030 -0.1911  1.8890 -0.6656
  110OSM    C9S11336   4.158   5.311   9.896 -0.4923  0.0839 -0.2424
  110OSM    H9S11337   4.188   5.417   9.889  2.7215 -0.7829 -1.1502
  110OSM    H9T11338   4.048   5.296   9.890 -0.2762 -2.6082  0.8778
  110OSM   C10S11339   4.216   5.237   9.777 -0.3019 -0.4083  0.6174
  110OSM   H10S11340   4.186   5.131   9.793 -3.4717  0.2857  0.0619
  110OSM   H10T11341   4.327   5.237   9.781 -0.1808  1.1428 -1.2722
  110OSM   C11S11342   4.168   5.289   9.644  0.0175  0.2217 -0.1529
  110OSM   H11S11343   4.191   5.397   9.631  0.8874 -0.0779 -1.2228
  110OSM   H11T11344   4.057   5.282   9.635  0.1659 -3.1770 -0.7281
  110OSM   C12S11345   4.228   5.183   9.539  0.4896 -0.5913 -0.2292
  110OSM   H12S11346   4.172   5.088   9.550 -0.0589 -0.4061 -1.2598
  110OSM   H12T11347   4.331   5.162   9.575  1.6535  3.9725 -0.3479
  110OSM   C13S11348   4.222   5.236   9.396  0.0170 -0.4074 -0.1971
  110OSM   H13S11349   4.268   5.337   9.385  0.1572 -0.4131  0.2935
  110OSM   H13T11350   4.117   5.254   9.365  0.4911 -0.0840 -1.7278
  110OSM   C14S11351   4.281   5.146   9.284  0.7961  0.0476  0.0897
  110OSM   H14S11352   4.234   5.045   9.276 -0.4136  0.6931 -1.6194
  110OSM   H14T11353   4.390   5.127   9.289  0.8260 -0.7952 -2.2758
  110OSM   C15S11354   4.250   5.202   9.146 -0.8126 -0.4132  0.2855
  110OSM   H15S11355   4.317   5.288   9.129  1.7151 -2.2872  0.1769
  110OSM   H15T11356   4.144   5.236   9.151 -1.2759 -1.6134 -0.7731
  110OSM   C16S11357   4.254   5.096   9.037 -0.2311  0.0445 -0.5779
  110OSM   H16S11358   4.214   5.135   8.941 -0.9358  0.8100  0.0123
  110OSM   H16T11359   4.186   5.011   9.059 -0.7315  1.0658  2.3009
  110OSM   C17S11360   4.396   5.043   9.000  0.7269  0.6963 -0.1937
  110OSM   H17S11361   4.429   4.985   9.088 -2.1656 -1.4723 -0.3756
  110OSM   H17T11362   4.470   5.122   8.979  0.5675  1.9903  3.3961
  110OSM   C18S11363   4.388   4.940   8.884 -0.2384  1.0543 -0.0794
  110OSM   H18S11364   4.310   4.862   8.897  0.8547  0.0173  0.3698
  110OSM   H18T11365   4.488   4.894   8.870 -1.5194 -1.5488 -1.2775
  110OSM   H18U11366   4.353   5.000   8.797 -1.8306  2.0331  1.1664
  110OSM    C1F11367   4.433   5.821  10.366  0.2808 -0.4431  0.0648
  110OSM     OF11368   4.547   5.833  10.410  0.0944  0.6407  0.1643
  110OSM    C2F11369   4.381   5.898  10.247 -0.4599 -0.2268 -1.1465
  110OSM    H2F11370   4.362   6.004  10.273  2.6758  0.6003 -1.7266
  110OSM    H2G11371   4.283   5.858  10.214  0.4006 -0.1428 -4.1181
  110OSM    C3F11372   4.485   5.888  10.134 -0.1018  0.0892  0.0609
  110OSM    H3F11373   4.494   5.780  10.111  2.4803  0.1835  0.3311
  110OSM    H3G11374   4.581   5.925  10.174 -0.1224 -1.5602  1.8024
  110OSM    C4F11375   4.440   5.973  10.014 -0.1498  0.3325  0.2725
  110OSM    H4F11376   4.534   5.988   9.956  0.8355 -2.7422  0.8966
  110OSM    H4G11377   4.399   6.067  10.056 -3.5804 -0.9923  0.2502
  110OSM    C5F11378   4.343   5.901   9.918  0.2240  0.3303  0.6114
  110OSM    H5F11379   4.246   5.895   9.971 -0.4243  0.1479 -0.5580
  110OSM    H5G11380   4.371   5.799   9.881  0.5735  1.1772 -1.6066
  110OSM    C6F11381   4.327   5.982   9.786  0.0102  0.6271  0.2808
  110OSM    H6F11382   4.284   6.081   9.811 -0.4297  0.7630 -0.9432
  110OSM    H6G11383   4.241   5.935   9.735  0.2491  1.4937 -0.9637
  110OSM    C7F11384   4.451   5.994   9.687  0.5664  1.1693  0.0765
  110OSM    H7F11385   4.499   5.896   9.663 -2.2198 -0.2209 -0.2602
  110OSM    H7G11386   4.526   6.058   9.738  2.1003  2.4304 -3.4688
  110OSM    C8F11387   4.425   6.072   9.556 -0.8150  0.1205  0.4228
  110OSM    H8F11388   4.522   6.102   9.511 -1.4604  1.3933 -0.1605
  110OSM    H8G11389   4.366   6.159   9.592  0.5083  0.5245  1.6729
  110OSM    C9F11390   4.335   5.991   9.465 -0.1232  0.2526 -0.5337
  110OSM    H9F11391   4.253   5.948   9.523 -1.0436  1.5292 -0.8445
  110OSM   C10F11392   4.353   5.962   9.332 -0.6114 -0.2466 -0.3942
  110OSM   H10F11393   4.289   5.889   9.280  1.0821 -0.4595 -2.3182
  110OSM   C11F11394   4.474   6.012   9.249  0.7103  0.3406 -0.1867
  110OSM   H11F11395   4.538   5.926   9.222 -0.4128 -0.6160  0.1236
  110OSM   H11G11396   4.545   6.078   9.302 -0.8871  0.4164  2.0194
  110OSM   C12F11397   4.416   6.082   9.126  0.0136 -0.0758 -0.2244
  110OSM   H12F11398   4.363   6.177   9.148  0.5955  0.8126 -2.4084
  110OSM   H12G11399   4.351   6.004   9.082 -1.0409  0.4998  0.2933
  110OSM   C13F11400   4.530   6.099   9.026  0.3763 -0.0835  0.4979
  110OSM   H13F11401   4.585   6.003   9.020  0.7986  0.0696  1.5902
  110OSM   H13G11402   4.604   6.170   9.070 -0.9782 -0.2248  3.2317
  110OSM   C14F11403   4.483   6.132   8.885  0.7539 -0.0217 -0.5964
  110OSM   H14F11404   4.406   6.212   8.880  2.7113  1.9428 -0.7788
  110OSM   H14G11405   4.433   6.048   8.833 -0.8698 -1.1520  2.5794
  110OSM   C15F11406   4.605   6.170   8.797  0.2040 -0.8826 -0.0322
  110OSM   H15F11407   4.670   6.081   8.786  0.3226 -0.6568 -1.3614
  110OSM   H15G11408   4.667   6.252   8.839  0.1338 -1.5247  1.3875
  110OSM   C16F11409   4.577   6.205   8.653 -0.1169  0.1646 -0.0788
  110OSM   H16F11410   4.480   6.257   8.638  0.3463  0.3565 -3.0077
  110OSM   H16G11411   4.566   6.110   8.596  0.9406 -0.3090  0.4898
  110OSM   C17F11412   4.693   6.292   8.592 -1.2140 -0.0326 -0.2848
  110OSM   H17F11413   4.791   6.242   8.609 -1.3819  0.1085  1.2629
  110OSM   H17G11414   4.694   6.387   8.649 -0.7060  0.1307 -0.5633
  110OSM   C18F11415   4.676   6.330   8.446  0.4614 -0.7157 -0.4840
  110OSM   H18F11416   4.641   6.244   8.386 -2.1921  0.2746 -0.4738
  110OSM   H18G11417   4.773   6.372   8.410  0.1623  0.8132  0.4272
  110OSM   H18H11418   4.587   6.397   8.445  0.5156 -0.5383  1.8469
  111OSM      N11419   2.464   3.726  10.752  0.1620 -0.4918 -0.5228
  111OSM    C1511420   2.392   3.790  10.869  0.0601  0.4767 -0.6649
  111OSM   H15A11421   2.365   3.894  10.861 -2.4416 -0.2506 -3.1347
  111OSM   H15B11422   2.441   3.773  10.964 -1.8073 -1.0419  0.0914
  111OSM   H15C11423   2.301   3.732  10.875  0.3722 -0.2680 -2.4255
  111OSM    C1411424   2.581   3.817  10.723  0.0219  0.5477 -0.4405
  111OSM   H14A11425   2.645   3.761  10.656 -2.5287 -0.2479 -2.3784
  111OSM   H14B11426   2.640   3.842  10.810 -2.6825  1.1435  1.3373
  111OSM   H14C11427   2.551   3.913  10.683 -4.2585 -1.0153 -1.4899
  111OSM    C1311428   2.509   3.594  10.808 -0.5591  0.0540  0.1661
  111OSM   H13A11429   2.413   3.549  10.830 -0.5462 -0.2649 -0.3920
  111OSM   H13B11430   2.564   3.607  10.900  0.2765 -1.1549 -0.1344
  111OSM   H13C11431   2.557   3.527  10.738 -0.0964  0.7470 -0.1798
  111OSM    C1211432   2.373   3.705  10.633 -0.1797  0.2417  0.6129
  111OSM   H12A11433   2.427   3.680  10.543  2.0045  1.3305  1.5265
  111OSM   H12B11434   2.337   3.804  10.611  1.0813  1.0595  2.0155
  111OSM    C1111435   2.256   3.608  10.639  0.9270  0.4046  0.4966
  111OSM   H11A11436   2.295   3.506  10.660  1.9666  1.1948  2.7431
  111OSM   H11B11437   2.210   3.601  10.538  1.6227 -2.9690  0.2739
  111OSM      P11438   2.054   3.755  10.718  0.0097 -0.0161 -0.0463
  111OSM    O1311439   1.918   3.696  10.689  0.0768 -0.3377 -0.2638
  111OSM    O1411440   2.063   3.852  10.833 -0.1830 -1.0452  0.3220
  111OSM    O1111441   2.106   3.825  10.586  0.0815  0.1108  0.0172
  111OSM    O1211442   2.161   3.646  10.738  0.0039  0.0792 -0.5326
  111OSM    C1S11443   2.164   3.956  10.594 -0.2816  0.6946  0.1749
  111OSM    H1S11444   2.267   3.963  10.633 -0.2863 -0.2247  0.3702
  111OSM    H1T11445   2.095   4.025  10.648 -3.2166 -2.4769  0.8063
  111OSM     NF11446   2.260   4.131  10.444  0.3079 -0.7529 -0.0352
  111OSM    HNF11447   2.213   4.217  10.425 -0.3246 -1.2367 -0.7359
  111OSM    C2S11448   2.179   4.013  10.446 -0.6112 -0.4129 -0.2241
  111OSM    H2S11449   2.235   3.935  10.390  0.5377 -0.0425  0.3678
  111OSM    C3S11450   2.040   4.019  10.372 -0.8564  0.4365 -0.6831
  111OSM    H3S11451   1.979   4.094  10.427  0.3763 -0.0768  1.5160
  111OSM     O311452   1.962   3.896  10.369 -0.3206  0.2799 -0.7653
  111OSM    HO311453   2.006   3.838  10.432 -0.2530  0.0398 -1.0326
  111OSM    C4S11454   2.060   4.066  10.232 -0.5357  0.3861  0.1534
  111OSM    H4S11455   2.117   3.988  10.180 -3.8265 -1.1699 -1.4163
  111OSM    C5S11456   2.001   4.181  10.175 -0.3027  0.5497  0.6298
  111OSM    H5S11457   1.933   4.239  10.238 -0.4885  0.4152  0.5554
  111OSM    C6S11458   2.004   4.226  10.031 -0.1545 -0.4781 -0.4489
  111OSM    H6S11459   2.014   4.337  10.033  2.5407 -0.6251 -1.6099
  111OSM    H6T11460   1.908   4.201   9.980  0.6698 -2.1860 -1.2463
  111OSM    C7S11461   2.114   4.186   9.936  0.0653  0.1159 -0.2762
  111OSM    H7S11462   2.119   4.075   9.928  0.5104  0.0843  0.3446
  111OSM    H7T11463   2.215   4.209   9.976  0.2009  0.8748 -1.0347
  111OSM    C8S11464   2.096   4.257   9.802  0.2361 -0.2528  0.8335
  111OSM    H8S11465   2.098   4.368   9.812 -1.4032  0.0951 -1.7250
  111OSM    H8T11466   1.990   4.237   9.775  0.3744  0.4101 -0.2613
  111OSM    C9S11467   2.184   4.215   9.680 -0.1747 -0.2912  0.2322
  111OSM    H9S11468   2.158   4.109   9.659 -1.4264  0.2164 -0.9402
  111OSM    H9T11469   2.293   4.220   9.701 -0.2149 -2.2472  1.0522
  111OSM   C10S11470   2.162   4.311   9.562  0.3308  0.4288  0.4551
  111OSM   H10S11471   2.179   4.419   9.581  0.2631  0.6127 -0.4465
  111OSM   H10T11472   2.054   4.303   9.539  0.3382 -2.1236  1.1223
  111OSM   C11S11473   2.250   4.264   9.442 -0.4870  0.2494  1.0902
  111OSM   H11S11474   2.227   4.157   9.426 -1.1106  0.3855  1.0597
  111OSM   H11T11475   2.357   4.269   9.471 -0.7342 -0.5055  2.2023
  111OSM   C12S11476   2.225   4.343   9.310  0.4668 -0.7235 -0.0231
  111OSM   H12S11477   2.127   4.308   9.273  0.3497 -0.0889 -0.3221
  111OSM   H12T11478   2.293   4.317   9.226  0.0301 -1.9035 -0.0321
  111OSM   C13S11479   2.228   4.497   9.327 -0.5034 -0.0157 -0.0286
  111OSM   H13S11480   2.327   4.523   9.370 -0.4710  1.1456 -0.7679
  111OSM   H13T11481   2.157   4.541   9.400 -0.5199 -0.3356  0.1541
  111OSM   C14S11482   2.212   4.568   9.189 -0.2599 -0.4091 -0.1719
  111OSM   H14S11483   2.276   4.510   9.120 -0.3323  0.8820 -1.3602
  111OSM   H14T11484   2.250   4.672   9.185 -1.5635  0.0700 -0.6354
  111OSM   C15S11485   2.066   4.554   9.142 -0.5984 -0.0538  0.6064
  111OSM   H15S11486   2.004   4.603   9.222 -1.1627  1.3101 -0.6170
  111OSM   H15T11487   2.036   4.447   9.137  2.1972 -0.9764  1.7757
  111OSM   C16S11488   2.047   4.629   9.006  0.6380 -0.1970 -0.2385
  111OSM   H16S11489   2.076   4.735   9.016  0.5570 -0.3360  2.0930
  111OSM   H16T11490   1.937   4.628   8.989  0.3929 -2.0424  1.0836
  111OSM   C17S11491   2.131   4.570   8.893 -0.3039  0.5748 -0.6661
  111OSM   H17S11492   2.234   4.575   8.935 -0.7055  1.2993  0.2656
  111OSM   H17T11493   2.130   4.639   8.806 -0.0397  1.0464 -0.3025
  111OSM   C18S11494   2.089   4.434   8.847 -0.3220 -0.1730 -0.1247
  111OSM   H18S11495   1.981   4.410   8.837 -0.0443 -1.1612 -0.8343
  111OSM   H18T11496   2.128   4.360   8.920  0.5651 -0.0525 -0.4721
  111OSM   H18U11497   2.130   4.401   8.750 -0.8878 -0.3987 -0.2901
  111OSM    C1F11498   2.386   4.137  10.480 -0.2617  0.1589 -0.0663
  111OSM     OF11499   2.451   4.036  10.499 -0.7437  0.3227  0.0016
  111OSM    C2F11500   2.442   4.273  10.514  0.4609  0.0296 -0.2309
  111OSM    H2F11501   2.501   4.266  10.608 -1.3207  1.3262  1.0582
  111OSM    H2G11502   2.361   4.349  10.520  1.0293  0.7193 -1.0698
  111OSM    C3F11503   2.539   4.318  10.399  0.8805  0.0148 -0.5859
  111OSM    H3F11504   2.623   4.246  10.404 -1.4434 -2.8571  0.6475
  111OSM    H3G11505   2.573   4.420  10.427 -0.9089  1.1799 -2.3623
  111OSM    C4F11506   2.474   4.339  10.269  0.3051 -0.4530 -0.0535
  111OSM    H4F11507   2.390   4.412  10.274  2.1293  1.8596 -0.9214
  111OSM    H4G11508   2.419   4.254  10.224  0.4693  0.2376 -1.6195
  111OSM    C5F11509   2.572   4.391  10.169 -0.3155 -0.6773  0.0105
  111OSM    H5F11510   2.641   4.311  10.136  1.9846  1.0789  0.2601
  111OSM    H5G11511   2.632   4.470  10.219 -2.4944  1.3098 -0.3415
  111OSM    C6F11512   2.516   4.436  10.040 -0.5161 -0.8365  0.3524
  111OSM    H6F11513   2.433   4.504  10.067  2.4860  3.1125  0.5363
  111OSM    H6G11514   2.482   4.355   9.972  0.6033  0.2060 -1.5554
  111OSM    C7F11515   2.619   4.525   9.963 -0.5015  0.0135  0.1775
  111OSM    H7F11516   2.702   4.456   9.936  0.6261  0.4828  2.2829
  111OSM    H7G11517   2.662   4.596  10.036 -1.3689  0.7253  0.0194
  111OSM    C8F11518   2.567   4.586   9.833 -0.4624 -0.0882  0.4334
  111OSM    H8F11519   2.654   4.647   9.799  0.1521  0.2193  2.4213
  111OSM    H8G11520   2.487   4.656   9.864 -1.0962 -0.4454 -0.3552
  111OSM    C9F11521   2.527   4.485   9.726  0.1307 -0.4911 -0.0175
  111OSM    H9F11522   2.437   4.427   9.752  0.2159  0.1466  1.7652
  111OSM   C10F11523   2.583   4.456   9.602 -0.1017  0.2863 -0.2325
  111OSM   H10F11524   2.539   4.388   9.527  1.9813 -0.7048 -0.5988
  111OSM   C11F11525   2.697   4.527   9.541 -0.0909  0.4835 -0.2616
  111OSM   H11F11526   2.781   4.459   9.514 -0.8918  0.0335 -1.6852
  111OSM   H11G11527   2.745   4.593   9.616 -0.9156 -0.1141  0.8245
  111OSM   C12F11528   2.667   4.612   9.415  0.3773 -0.4110  0.2123
  111OSM   H12F11529   2.750   4.684   9.400 -1.3452  1.2333 -2.1067
  111OSM   H12G11530   2.582   4.683   9.418  0.1250 -0.6654 -0.7088
  111OSM   C13F11531   2.647   4.541   9.279  0.6390  0.0548 -0.9358
  111OSM   H13F11532   2.574   4.459   9.296 -0.1473  0.8086 -0.5979
  111OSM   H13G11533   2.747   4.500   9.252  0.3374  0.2878 -2.5302
  111OSM   C14F11534   2.586   4.626   9.166  0.1398 -0.5214 -0.2810
  111OSM   H14F11535   2.476   4.639   9.180  0.2044 -0.1982 -0.0613
  111OSM   H14G11536   2.614   4.593   9.064  2.7654  0.4357  0.0611
  111OSM   C15F11537   2.654   4.766   9.160  0.2512 -0.4944 -0.1506
  111OSM   H15F11538   2.765   4.761   9.167  0.5677  3.0415 -0.9462
  111OSM   H15G11539   2.619   4.829   9.245 -1.1959  2.8719 -3.0375
  111OSM   C16F11540   2.624   4.844   9.031  0.9872  0.0300  0.4774
  111OSM   H16F11541   2.644   4.777   8.944 -3.8781 -0.5292 -0.4886
  111OSM   H16G11542   2.690   4.933   9.031 -1.2794  1.8126  1.9987
  111OSM   C17F11543   2.471   4.886   9.026  0.1558  0.1335 -0.4096
  111OSM   H17F11544   2.430   4.906   9.127  0.4516  0.9396 -0.4400
  111OSM   H17G11545   2.427   4.788   8.995 -0.2071  0.3368 -0.5443
  111OSM   C18F11546   2.437   5.004   8.928  0.4392  0.1961 -0.3827
  111OSM   H18F11547   2.327   5.007   8.914  0.1719  2.4000  1.4423
  111OSM   H18G11548   2.487   4.976   8.833  0.7826 -0.9948  0.1296
  111OSM   H18H11549   2.465   5.097   8.983 -3.4122 -0.0506  2.4181
  112OSM      N11550   1.805   6.192  11.329  0.3490 -0.2702  0.1241
  112OSM    C1511551   1.691   6.103  11.362  0.0299  0.3125 -0.4041
  112OSM   H15A11552   1.666   6.102  11.468  1.7431 -2.6745  0.0872
  112OSM   H15B11553   1.713   6.002  11.331 -2.2139 -0.0804 -0.9122
  112OSM   H15C11554   1.605   6.132  11.304  0.5114  0.0732 -1.2515
  112OSM    C1411555   1.780   6.333  11.376 -0.6218 -0.2124 -1.2668
  112OSM   H14A11556   1.676   6.362  11.366 -1.5351 -1.2898  3.0477
  112OSM   H14B11557   1.850   6.405  11.338  1.4681 -0.4925  1.7562
  112OSM   H14C11558   1.782   6.348  11.482 -1.1919 -0.3480 -1.2321
  112OSM    C1311559   1.924   6.139  11.395  0.3627 -0.3979 -0.0379
  112OSM   H13A11560   2.006   6.204  11.367  1.1841 -1.5252 -0.3278
  112OSM   H13B11561   1.940   6.041  11.353 -1.8519  0.3954 -3.0597
  112OSM   H13C11562   1.901   6.146  11.500 -1.0136 -2.1307 -0.1838
  112OSM    C1211563   1.829   6.197  11.172  0.2226  0.3698 -0.7955
  112OSM   H12A11564   1.743   6.249  11.133 -0.9598 -0.0671  1.0915
  112OSM   H12B11565   1.821   6.092  11.148 -0.5010 -0.0778  1.1714
  112OSM    C1111566   1.954   6.256  11.108 -0.3904 -0.1179 -0.2577
  112OSM   H11A11567   1.937   6.248  10.998  1.2650  1.6176 -0.6903
  112OSM   H11B11568   2.047   6.200  11.129  0.1634  1.1605  0.8316
  112OSM      P11569   1.920   6.509  11.070  0.1700  0.1816 -0.3514
  112OSM    O1311570   1.771   6.510  11.087  0.0481 -0.2443 -0.7584
  112OSM    O1411571   2.001   6.626  11.102 -0.9738  0.0402  0.1531
  112OSM    O1111572   1.926   6.460  10.921  0.5146 -0.0631 -0.2303
  112OSM    O1211573   1.967   6.387  11.151  0.1679  0.7924  0.1112
  112OSM    C1S11574   2.041   6.457  10.841 -0.4202  0.1298  0.2071
  112OSM    H1S11575   2.133   6.427  10.897  1.5483  1.8816 -1.8709
  112OSM    H1T11576   2.059   6.559  10.801  1.8516 -1.3556 -3.0870
  112OSM     NF11577   2.154   6.380  10.645  0.4779 -0.5676 -0.0244
  112OSM    HNF11578   2.163   6.473  10.610 -0.0435 -1.7267 -3.8140
  112OSM    C2S11579   2.036   6.358  10.719 -0.0488  0.1750 -0.3925
  112OSM    H2S11580   2.027   6.252  10.751 -1.5363 -0.0369 -1.4377
  112OSM    C3S11581   1.901   6.375  10.645  0.8989  0.3699 -0.1536
  112OSM    H3S11582   1.888   6.483  10.620  0.1011  0.1764 -0.6136
  112OSM     O311583   1.794   6.336  10.730 -0.3304  0.1871  0.2977
  112OSM    HO311584   1.844   6.346  10.811 -0.8935  1.8361  0.4693
  112OSM    C4S11585   1.901   6.295  10.515  0.0862 -0.6384 -0.1182
  112OSM    H4S11586   1.946   6.355  10.435 -1.5175  1.8287  0.7137
  112OSM    C5S11587   1.857   6.172  10.487 -0.6700  0.1163  0.3741
  112OSM    H5S11588   1.798   6.115  10.560 -1.6630  1.9899  1.1307
  112OSM    C6S11589   1.877   6.126  10.344  0.4940  0.1011 -0.2775
  112OSM    H6S11590   1.797   6.049  10.328  0.8741  0.0674 -2.2991
  112OSM    H6T11591   1.962   6.056  10.329  0.9443  0.8592 -1.3906
  112OSM    C7S11592   1.873   6.221  10.222  0.3443 -0.0400 -0.5260
  112OSM    H7S11593   1.969   6.276  10.216 -0.5256  1.9725  2.0955
  112OSM    H7T11594   1.792   6.295  10.232  0.2520 -0.1835 -0.2140
  112OSM    C8S11595   1.857   6.135  10.102 -0.1729  0.5799 -0.1990
  112OSM    H8S11596   1.916   6.041  10.103  2.1885  1.9708  0.0003
  112OSM    H8T11597   1.886   6.205  10.021  0.0213  0.9514  0.1880
  112OSM    C9S11598   1.711   6.083  10.086 -0.4092  0.3740 -1.3023
  112OSM    H9S11599   1.678   6.026  10.176  0.9894 -0.6417 -1.3929
  112OSM    H9T11600   1.721   6.006  10.006 -0.2733 -0.7650 -0.2247
  112OSM   C10S11601   1.612   6.197  10.053 -0.8134  0.2836  0.1263
  112OSM   H10S11602   1.633   6.242   9.954  0.1744 -1.3906 -0.4562
  112OSM   H10T11603   1.626   6.274  10.132  1.9348  1.5845 -1.4716
  112OSM   C11S11604   1.464   6.145  10.061 -0.0200 -0.6072  0.6217
  112OSM   H11S11605   1.407   6.239  10.073 -1.3152 -1.2394 -0.2608
  112OSM   H11T11606   1.443   6.083  10.151 -1.0778 -0.0561  0.7599
  112OSM   C12S11607   1.410   6.075   9.938 -0.6785  0.2110  0.0104
  112OSM   H12S11608   1.306   6.044   9.958 -1.0048  0.8114 -0.7067
  112OSM   H12T11609   1.469   5.982   9.924 -2.2901 -1.0144  1.0558
  112OSM   C13S11610   1.403   6.155   9.812 -0.1920  0.5796 -0.0773
  112OSM   H13S11611   1.467   6.246   9.814  0.7022  0.0085 -1.3254
  112OSM   H13T11612   1.296   6.182   9.801 -0.1370 -0.0352 -2.8631
  112OSM   C14S11613   1.431   6.085   9.682 -0.8204  0.0011 -0.2219
  112OSM   H14S11614   1.418   6.147   9.591 -1.3528 -0.2310 -0.3089
  112OSM   H14T11615   1.367   5.994   9.673 -0.5062 -0.4656  1.7342
  112OSM   C15S11616   1.578   6.036   9.678 -0.9369 -0.1873  0.3063
  112OSM   H15S11617   1.592   5.950   9.747 -1.0179  2.1820  3.5144
  112OSM   H15T11618   1.644   6.117   9.716 -1.4106 -0.5187  1.8925
  112OSM   C16S11619   1.626   6.003   9.536 -0.3646 -0.0187 -0.0785
  112OSM   H16S11620   1.736   6.015   9.531 -0.2476 -1.0698 -0.2361
  112OSM   H16T11621   1.586   6.083   9.470 -1.5397 -1.3858 -1.0622
  112OSM   C17S11622   1.593   5.862   9.482 -0.0468  0.3442 -0.5978
  112OSM   H17S11623   1.489   5.860   9.443 -0.7046 -0.6944  1.0547
  112OSM   H17T11624   1.594   5.798   9.573 -2.2351  0.2866 -0.5495
  112OSM   C18S11625   1.693   5.823   9.381 -0.6778 -0.0812  0.2140
  112OSM   H18S11626   1.796   5.817   9.422  0.0990 -1.2323 -1.7861
  112OSM   H18T11627   1.690   5.902   9.303 -2.9911 -0.0550  0.2465
  112OSM   H18U11628   1.673   5.723   9.339 -0.6007  0.2837 -0.7109
  112OSM    C1F11629   2.263   6.306  10.669  0.0453 -0.3523 -0.3322
  112OSM     OF11630   2.273   6.240  10.775  0.3843 -0.1505  0.2134
  112OSM    C2F11631   2.377   6.323  10.572 -0.2904  0.2261  0.3454
  112OSM    H2F11632   2.468   6.360  10.624  0.8905 -2.2083  0.1397
  112OSM    H2G11633   2.348   6.404  10.500 -0.3167 -0.6042 -0.6001
  112OSM    C3F11634   2.414   6.191  10.493  0.4474 -0.5398 -0.3755
  112OSM    H3F11635   2.465   6.120  10.562 -0.5226 -0.0406  0.8984
  112OSM    H3G11636   2.487   6.219  10.414  1.4995 -0.4835  0.5772
  112OSM    C4F11637   2.300   6.136  10.416  0.5160  0.2422  0.7063
  112OSM    H4F11638   2.217   6.099  10.480  1.5069 -0.0086  1.9080
  112OSM    H4G11639   2.340   6.049  10.359 -0.3775 -1.9009  3.1433
  112OSM    C5F11640   2.230   6.235  10.316  0.4861  0.0914  0.5836
  112OSM    H5F11641   2.205   6.329  10.371  0.4597  0.5047 -0.1234
  112OSM    H5G11642   2.133   6.192  10.286  1.2405 -0.4415 -1.2380
  112OSM    C6F11643   2.300   6.240  10.176 -0.5076  0.0909 -0.4838
  112OSM    H6F11644   2.318   6.138  10.135  1.9768  1.2103 -2.4597
  112OSM    H6G11645   2.405   6.274  10.192 -0.4045 -0.7570  0.8471
  112OSM    C7F11646   2.237   6.326  10.065  0.1902 -0.1937  0.0625
  112OSM    H7F11647   2.220   6.425  10.113  1.7368 -0.5276  1.3548
  112OSM    H7G11648   2.140   6.282  10.031 -0.6949  0.9262  1.0378
  112OSM    C8F11649   2.331   6.357   9.946  0.0523 -0.4402 -0.3845
  112OSM    H8F11650   2.336   6.261   9.891 -2.8275 -1.1953  0.5324
  112OSM    H8G11651   2.438   6.373   9.973  0.3290  0.3462 -1.8630
  112OSM    C9F11652   2.293   6.467   9.848  0.2149  0.1073 -0.1789
  112OSM    H9F11653   2.196   6.464   9.796  0.6437  2.0287 -1.1923
  112OSM   C10F11654   2.367   6.567   9.806  0.6724  0.7367 -0.5953
  112OSM   H10F11655   2.327   6.635   9.730 -1.1070 -0.3269 -0.6607
  112OSM   C11F11656   2.504   6.602   9.839 -0.1118  0.7945 -0.1728
  112OSM   H11F11657   2.557   6.613   9.742  2.4137 -2.3469  0.6709
  112OSM   H11G11658   2.564   6.520   9.884  0.3435  0.5405 -1.2087
  112OSM   C12F11659   2.510   6.730   9.924  0.1919  0.4543  0.4181
  112OSM   H12F11660   2.475   6.721  10.029  1.6814 -2.5672  0.7476
  112OSM   H12G11661   2.454   6.811   9.873  0.8181 -0.0283 -1.0855
  112OSM   C13F11662   2.649   6.801   9.923  0.5195  0.9192 -0.2747
  112OSM   H13F11663   2.695   6.789   9.823  2.7888 -3.0715  1.0353
  112OSM   H13G11664   2.720   6.760   9.999  1.1173 -1.5489 -2.0438
  112OSM   C14F11665   2.635   6.955   9.955  0.5754  0.0904  0.7128
  112OSM   H14F11666   2.567   7.005   9.882  0.1206  0.4728  1.3881
  112OSM   H14G11667   2.734   6.999   9.931  0.4954 -0.0701  0.0709
  112OSM   C15F11668   2.599   6.988  10.095  0.9865 -0.2206 -0.0043
  112OSM   H15F11669   2.666   6.931  10.164  0.2873  0.4148  1.2177
  112OSM   H15G11670   2.495   6.954  10.112  1.4253 -1.0458  1.1297
  112OSM   C16F11671   2.599   7.139  10.132  0.1332  0.4266 -0.5647
  112OSM   H16F11672   2.562   7.195  10.043  0.3479 -0.8224 -1.4592
  112OSM   H16G11673   2.703   7.176  10.143  0.0897  1.2876 -2.6451
  112OSM   C17F11674   2.518   7.185  10.258 -0.5179 -0.2154  0.3128
  112OSM   H17F11675   2.521   7.108  10.338 -1.0142 -1.2754 -0.6723
  112OSM   H17G11676   2.412   7.212  10.236  0.0945  3.3805  1.1110
  112OSM   C18F11677   2.579   7.311  10.316 -0.2086 -0.8039  0.7309
  112OSM   H18F11678   2.583   7.396  10.244  0.9717  1.0084  2.8196
  112OSM   H18G11679   2.684   7.287  10.344  0.1466 -1.3286 -0.9190
  112OSM   H18H11680   2.519   7.338  10.406  1.8235 -0.8511  2.1694
  113OSM      N11681   1.799   0.207  11.051  0.7869 -1.3346  0.5309
  113OSM    C1511682   1.749   0.082  11.004  0.1276  0.3863  0.2054
  113OSM   H15A11683   1.797   0.008  11.066 -1.2250 -0.7912 -0.0977
  113OSM   H15B11684   1.776   0.073  10.900  2.3844  1.8537  0.5766
  113OSM   H15C11685   1.645   0.069  11.029  0.3970  0.3706  1.3931
  113OSM    C1411686   1.704   0.309  10.987 -0.0452  0.0509  0.2945
  113OSM   H14A11687   1.600   0.285  11.005 -0.0086 -0.2279  0.1485
  113OSM   H14B11688   1.722   0.309  10.881 -0.6217  0.9136  0.1878
  113OSM   H14C11689   1.718   0.409  11.024 -0.0066  1.0966 -2.3328
  113OSM    C1311690   1.782   0.224  11.204  0.0648  0.8695  0.3960
  113OSM   H13A11691   1.682   0.252  11.231 -1.3649 -3.6526  0.6033
  113OSM   H13B11692   1.859   0.289  11.243 -0.9025  1.0191  2.1057
  113OSM   H13C11693   1.794   0.130  11.254 -0.1203  0.1535 -0.8548
  113OSM    C1211694   1.941   0.247  11.005  0.0208 -0.3920 -0.0312
  113OSM   H12A11695   1.943   0.241  10.897 -0.0350  0.9218 -0.1224
  113OSM   H12B11696   2.010   0.182  11.056  0.5916 -0.2060 -0.5618
  113OSM    C1111697   1.995   0.389  11.039 -0.2535  0.2970  0.8113
  113OSM   H11A11698   2.105   0.386  11.058  0.0262  0.5945 -0.6579
  113OSM   H11B11699   1.944   0.425  11.131  0.4388 -1.0490  1.7593
  113OSM      P11700   1.981   0.636  10.944 -0.0742 -0.2186 -0.2213
  113OSM    O1311701   1.850   0.693  10.907 -0.1807  0.0392 -0.4369
  113OSM    O1411702   2.039   0.677  11.076 -0.2298 -0.4935 -0.2902
  113OSM    O1111703   2.090   0.673  10.835  0.3549 -0.5007 -0.2067
  113OSM    O1211704   1.962   0.477  10.935  0.3805 -0.3304  0.0903
  113OSM    C1S11705   2.134   0.581  10.741  0.1876 -0.4018 -0.4501
  113OSM    H1S11706   2.047   0.534  10.690  0.6866 -3.3114  1.1401
  113OSM    H1T11707   2.182   0.499  10.798 -3.5347 -1.2806  1.8309
  113OSM     NF11708   2.199   0.544  10.515  0.7411 -0.1332  0.5968
  113OSM    HNF11709   2.286   0.499  10.494 -1.2368 -4.0908 -0.1012
  113OSM    C2S11710   2.203   0.645  10.624 -0.3895  0.6435  0.0196
  113OSM    H2S11711   2.137   0.728  10.590  0.3538  0.5497 -1.7506
  113OSM    C3S11712   2.344   0.693  10.658  0.5338  0.3936 -0.4359
  113OSM    H3S11713   2.406   0.602  10.672 -0.2798 -0.1320 -0.1812
  113OSM     O311714   2.354   0.771  10.781 -0.6668 -0.1873  0.5962
  113OSM    HO311715   2.265   0.778  10.818 -1.0088  1.0217 -0.3791
  113OSM    C4S11716   2.403   0.771  10.540 -0.2764 -0.4482 -0.3541
  113OSM    H4S11717   2.486   0.718  10.492  0.0321 -1.1809  0.9305
  113OSM    C5S11718   2.367   0.896  10.504 -0.6148  0.2096 -0.5037
  113OSM    H5S11719   2.282   0.936  10.562 -0.4440 -1.1690  0.7436
  113OSM    C6S11720   2.419   0.992  10.398 -0.0348  0.8576 -0.6384
  113OSM    H6S11721   2.426   1.090  10.450  0.1435  1.2746 -1.4298
  113OSM    H6T11722   2.338   1.007  10.324 -0.5954 -0.6123 -0.3368
  113OSM    C7S11723   2.547   0.973  10.314  0.6588  0.9339  0.2669
  113OSM    H7S11724   2.542   0.883  10.249  0.4556  0.4739  0.9077
  113OSM    H7T11725   2.619   0.949  10.395  1.0898 -0.4345 -0.4924
  113OSM    C8S11726   2.593   1.091  10.226 -0.3029  0.4637 -0.5183
  113OSM    H8S11727   2.682   1.068  10.165  0.9579  0.5154  1.2223
  113OSM    H8T11728   2.618   1.167  10.303 -1.3116  0.3331 -0.0327
  113OSM    C9S11729   2.488   1.136  10.121  0.3168 -0.2619 -0.4625
  113OSM    H9S11730   2.388   1.163  10.161  0.8746  0.0412  0.8101
  113OSM    H9T11731   2.494   1.051  10.050  0.8856 -0.5218 -0.1157
  113OSM   C10S11732   2.536   1.245  10.023 -0.6075  0.1180 -0.5410
  113OSM   H10S11733   2.646   1.240  10.012 -0.7711  0.7767 -2.7940
  113OSM   H10T11734   2.503   1.344  10.061 -1.8276  0.3456 -2.0951
  113OSM   C11S11735   2.483   1.218   9.884  0.4399 -0.7317 -0.1526
  113OSM   H11S11736   2.534   1.128   9.845  0.7514 -0.2142 -0.9506
  113OSM   H11T11737   2.521   1.301   9.822 -0.3044  0.5820  1.0708
  113OSM   C12S11738   2.327   1.231   9.868 -0.0943 -0.3753  0.2841
  113OSM   H12S11739   2.298   1.326   9.919  1.6394  0.2398  0.2004
  113OSM   H12T11740   2.282   1.144   9.920  1.2595 -1.3181 -0.0876
  113OSM   C13S11741   2.288   1.233   9.723 -0.1524  0.6034 -0.2140
  113OSM   H13S11742   2.362   1.302   9.677 -0.2963  2.8995  2.6755
  113OSM   H13T11743   2.189   1.279   9.700  1.0654  2.4026 -2.2153
  113OSM   C14S11744   2.306   1.090   9.673  0.2412  0.2267 -0.1557
  113OSM   H14S11745   2.225   1.030   9.721 -0.5400  1.1564 -0.2844
  113OSM   H14T11746   2.402   1.043   9.703  0.5464  0.6937 -0.3984
  113OSM   C15S11747   2.291   1.066   9.525  0.1817 -0.1421 -0.1410
  113OSM   H15S11748   2.193   1.105   9.491 -0.6393  0.5498  2.7865
  113OSM   H15T11749   2.305   0.956   9.510  0.0308 -0.4802  1.8585
  113OSM   C16S11750   2.388   1.150   9.441 -0.6880  0.1558  0.6194
  113OSM   H16S11751   2.486   1.113   9.478  0.6415 -0.2479 -2.9043
  113OSM   H16T11752   2.382   1.257   9.471 -1.3063  0.0925  0.7452
  113OSM   C17S11753   2.380   1.130   9.288  0.0094  0.0647 -0.3279
  113OSM   H17S11754   2.449   1.199   9.235 -0.1905  0.9489  0.5372
  113OSM   H17T11755   2.273   1.144   9.260  0.2422 -0.3887 -1.5163
  113OSM   C18S11756   2.406   0.986   9.249 -0.6757 -0.1187 -0.1343
  113OSM   H18S11757   2.412   0.964   9.140  2.0666 -2.9403  0.4576
  113OSM   H18T11758   2.331   0.914   9.289 -0.5894 -1.4578 -2.2574
  113OSM   H18U11759   2.494   0.956   9.309  0.4252  1.0257 -1.1255
  113OSM    C1F11760   2.100   0.523  10.434 -0.3191  0.0932 -0.8023
  113OSM     OF11761   2.004   0.595  10.439 -0.1881  0.3353  0.0970
  113OSM    C2F11762   2.108   0.403  10.349  0.4324  0.4754 -0.6052
  113OSM    H2F11763   2.082   0.323  10.422  1.6445  2.9949  2.8242
  113OSM    H2G11764   2.216   0.401  10.321  0.5509  0.0318 -0.1539
  113OSM    C3F11765   2.018   0.415  10.230  0.3927 -0.4884  0.4644
  113OSM    H3F11766   2.037   0.511  10.177 -0.5740 -0.0293  0.9254
  113OSM    H3G11767   1.916   0.403  10.272  0.3173 -2.6444 -0.2301
  113OSM    C4F11768   2.030   0.305  10.122 -0.4072 -0.0792  0.4713
  113OSM    H4F11769   1.938   0.315  10.061  0.4820 -0.3295 -0.9545
  113OSM    H4G11770   2.018   0.205  10.168 -2.0011 -1.6086 -2.9254
  113OSM    C5F11771   2.170   0.302  10.054 -0.2473 -0.0225 -0.1168
  113OSM    H5F11772   2.243   0.260  10.126 -1.0288  0.5325  1.0338
  113OSM    H5G11773   2.196   0.409  10.041  1.4531 -0.7858 -4.9543
  113OSM    C6F11774   2.160   0.238   9.913 -0.0662  0.5172 -0.6815
  113OSM    H6F11775   2.098   0.312   9.858 -0.3843  0.6714 -0.1308
  113OSM    H6G11776   2.106   0.142   9.906  0.5082 -0.0709  1.9745
  113OSM    C7F11777   2.291   0.233   9.842 -0.6566  0.0555  0.1414
  113OSM    H7F11778   2.336   0.149   9.899  0.6175  0.5108 -0.1417
  113OSM    H7G11779   2.352   0.321   9.871 -1.9336  0.9338  0.2039
  113OSM    C8F11780   2.296   0.206   9.693  0.7538  0.0615  0.7917
  113OSM    H8F11781   2.396   0.170   9.660 -0.2712 -1.1003 -1.2941
  113OSM    H8G11782   2.266   0.299   9.640  3.6292  0.0742 -1.0104
  113OSM    C9F11783   2.201   0.099   9.642  0.9455  0.0042  0.0668
  113OSM    H9F11784   2.237  -0.004   9.630 -1.1834 -1.0845  2.3175
  113OSM   C10F11785   2.085   0.121   9.581  0.4323 -0.4674 -0.4095
  113OSM   H10F11786   2.027   0.030   9.564 -0.4921 -0.7251  3.3127
  113OSM   C11F11787   2.014   0.249   9.555 -0.2512  0.0060  0.0875
  113OSM   H11F11788   2.060   0.327   9.618  0.8401 -0.4244 -0.1514
  113OSM   H11G11789   1.912   0.230   9.595 -1.0143 -2.5978 -2.6957
  113OSM   C12F11790   2.016   0.294   9.411  0.8002  0.4699  0.3527
  113OSM   H12F11791   2.124   0.303   9.385  1.5558 -0.9045  2.6456
  113OSM   H12G11792   1.964   0.391   9.401 -0.1482 -0.2161 -2.2988
  113OSM   C13F11793   1.933   0.206   9.315 -0.1011 -0.1312 -0.7207
  113OSM   H13F11794   1.829   0.188   9.349  0.7910 -1.6372  1.4704
  113OSM   H13G11795   1.968   0.101   9.313 -2.4479 -0.9790 -0.2846
  113OSM   C14F11796   1.942   0.265   9.169 -0.3642  0.2404 -1.1268
  113OSM   H14F11797   2.048   0.287   9.144  0.6840 -1.0407  1.7967
  113OSM   H14G11798   1.887   0.362   9.170  0.5395  0.8082  1.0839
  113OSM   C15F11799   1.889   0.179   9.057  0.4298 -0.0796 -0.1023
  113OSM   H15F11800   1.903   0.240   8.966 -0.3220  0.4814  0.1441
  113OSM   H15G11801   1.779   0.179   9.071  0.3707  0.6083 -0.5006
  113OSM   C16F11802   1.952   0.046   9.049  0.6804 -0.7710  1.0056
  113OSM   H16F11803   1.939  -0.020   9.137  4.6258 -4.5699 -0.8972
  113OSM   H16G11804   2.057   0.063   9.020  0.5376  0.2133  1.0255
  113OSM   C17F11805   1.888  -0.043   8.935 -0.5793 -0.5540  0.3201
  113OSM   H17F11806   1.880   0.016   8.841 -2.5690  0.0604  0.8139
  113OSM   H17G11807   1.782  -0.065   8.962 -0.9748 -0.1430 -0.8425
  113OSM   C18F11808   1.963  -0.170   8.917 -0.4459  0.7252 -0.0755
  113OSM   H18F11809   2.071  -0.151   8.897 -0.5719  0.6199 -0.8900
  113OSM   H18G11810   1.915  -0.216   8.827 -3.0663 -1.4215  2.2470
  113OSM   H18H11811   1.934  -0.240   8.998  0.0398 -0.0299 -0.5401
  114OSM      N11812   0.051   1.728  11.751 -0.5647 -0.5042 -0.6176
  114OSM    C1511813   0.160   1.724  11.860 -0.4587 -0.0172  0.1444
  114OSM   H15A11814   0.243   1.664  11.827 -1.8716 -1.8689 -0.1738
  114OSM   H15B11815   0.124   1.672  11.948 -0.1654  1.8816  1.4586
  114OSM   H15C11816   0.195   1.824  11.882 -0.6570 -0.1766  1.2657
  114OSM    C1411817   0.099   1.827  11.649  0.3828  0.2159  0.4186
  114OSM   H14A11818   0.185   1.788  11.596 -0.4820  0.0873 -0.9192
  114OSM   H14B11819   0.108   1.926  11.692  1.5382 -0.3189  1.4911
  114OSM   H14C11820   0.030   1.838  11.568  0.1619  0.0248  0.5805
  114OSM    C1311821   0.043   1.595  11.684  0.5862 -0.2507 -0.6608
  114OSM   H13A11822  -0.018   1.589  11.595 -0.5989 -1.1585  0.1726
  114OSM   H13B11823   0.005   1.519  11.751  0.7998  0.0079 -0.2454
  114OSM   H13C11824   0.141   1.558  11.658  1.7322  1.7805  0.5445
  114OSM    C1211825  -0.079   1.761  11.812  0.4202 -0.3072 -0.2616
  114OSM   H12A11826  -0.061   1.843  11.881  2.5019  0.5697 -1.7538
  114OSM   H12B11827  -0.116   1.671  11.859 -1.9662  0.6890 -0.1002
  114OSM    C1111828  -0.198   1.799  11.729  0.2353 -0.4320 -0.3406
  114OSM   H11A11829  -0.173   1.886  11.665  0.3352  0.4921  0.9197
  114OSM   H11B11830  -0.284   1.831  11.792 -1.6266 -0.2642 -2.8174
  114OSM      P11831  -0.290   1.706  11.493  0.5030 -0.1287 -0.1023
  114OSM    O1311832  -0.172   1.734  11.409  0.0790  0.3437 -0.0978
  114OSM    O1411833  -0.365   1.588  11.446  0.0797 -0.0131  0.3550
  114OSM    O1111834  -0.384   1.834  11.502  0.1714 -0.2051 -0.4921
  114OSM    O1211835  -0.235   1.691  11.645  0.4981 -0.1644 -0.2337
  114OSM    C1S11836  -0.515   1.808  11.561 -0.1054 -0.3695  0.0727
  114OSM    H1S11837  -0.504   1.774  11.667  1.7876 -1.0640 -0.3013
  114OSM    H1T11838  -0.567   1.738  11.492 -1.4429  1.5167 -0.9107
  114OSM     NF11839  -0.695   1.960  11.637  0.0042  0.4549  0.2655
  114OSM    HNF11840  -0.785   1.941  11.599  1.0422 -0.4434 -1.9283
  114OSM    C2S11841  -0.591   1.942  11.538 -0.8494 -0.2305 -1.1030
  114OSM    H2S11842  -0.513   2.017  11.564 -1.3105 -1.0295  3.3685
  114OSM    C3S11843  -0.634   1.963  11.392  1.0213 -0.4760 -0.6708
  114OSM    H3S11844  -0.720   1.899  11.365  2.4088 -2.6207 -0.2300
  114OSM     O311845  -0.543   1.928  11.290  0.1704  0.1141 -0.0818
  114OSM    HO311846  -0.465   1.903  11.340  1.6832  0.6232 -2.0507
  114OSM    C4S11847  -0.660   2.114  11.376 -0.3490  0.5753 -0.8483
  114OSM    H4S11848  -0.565   2.168  11.373  0.8093 -1.3681 -1.0274
  114OSM    C5S11849  -0.779   2.183  11.380 -0.5497  0.3910 -0.1155
  114OSM    H5S11850  -0.877   2.141  11.406 -0.1669 -0.3728  0.1171
  114OSM    C6S11851  -0.789   2.331  11.357  0.2090 -0.3300 -1.2080
  114OSM    H6S11852  -0.886   2.372  11.392 -1.0291 -1.0447 -3.5309
  114OSM    H6T11853  -0.787   2.344  11.246 -0.6466  1.5150 -1.0328
  114OSM    C7S11854  -0.676   2.411  11.422  0.3847  0.7616  0.6916
  114OSM    H7S11855  -0.582   2.374  11.376 -0.1639  0.1275  0.0559
  114OSM    H7T11856  -0.694   2.403  11.531 -1.6761  2.0631  0.4825
  114OSM    C8S11857  -0.681   2.559  11.391  0.0050 -0.6177 -0.7259
  114OSM    H8S11858  -0.772   2.608  11.433 -0.3421 -1.5991 -0.3206
  114OSM    H8T11859  -0.696   2.582  11.283 -0.4001  0.2118 -0.5028
  114OSM    C9S11860  -0.559   2.647  11.434  0.8776 -0.5579 -0.2530
  114OSM    H9S11861  -0.601   2.746  11.461 -3.3294 -1.8666 -1.2118
  114OSM    H9T11862  -0.485   2.659  11.352 -0.6073  0.3903 -1.5347
  114OSM   C10S11863  -0.482   2.598  11.561  0.0169 -0.3041 -0.5357
  114OSM   H10S11864  -0.420   2.512  11.528  1.2873  1.1336 -2.0512
  114OSM   H10T11865  -0.555   2.560  11.635 -1.2227  2.1079 -0.4372
  114OSM   C11S11866  -0.397   2.716  11.626  0.6344  0.4622 -0.5254
  114OSM   H11S11867  -0.462   2.806  11.618  1.9089  1.4662  0.0168
  114OSM   H11T11868  -0.302   2.726  11.569  0.3838  1.2593 -0.8074
  114OSM   C12S11869  -0.377   2.690  11.775 -0.4239  0.4154 -0.4576
  114OSM   H12S11870  -0.297   2.616  11.796  2.4125  3.3754 -0.0807
  114OSM   H12T11871  -0.472   2.651  11.816 -0.1099  0.9460  0.8190
  114OSM   C13S11872  -0.350   2.807  11.860  0.0541 -0.9085 -0.3174
  114OSM   H13S11873  -0.446   2.861  11.874  1.2654  0.9155  1.5979
  114OSM   H13T11874  -0.280   2.876  11.807  0.9079 -1.6616 -0.1813
  114OSM   C14S11875  -0.283   2.788  11.994 -0.3909  0.1434 -0.1076
  114OSM   H14S11876  -0.281   2.882  12.053  0.0635 -0.8559  1.5357
  114OSM   H14T11877  -0.176   2.761  11.980 -0.5316 -1.3276  1.4252
  114OSM   C15S11878  -0.340   2.684  12.087 -0.3192  0.5475  0.5929
  114OSM   H15S11879  -0.332   2.585  12.038 -1.0547  0.3748  0.8140
  114OSM   H15T11880  -0.446   2.702  12.113  0.0015 -0.2331  2.6538
  114OSM   C16S11881  -0.265   2.680  12.215 -0.4627  0.1992 -0.8679
  114OSM   H16S11882  -0.267   2.769  12.281 -2.0577 -1.2555  1.1827
  114OSM   H16T11883  -0.158   2.674  12.185  0.3076 -0.3263  1.7368
  114OSM   C17S11884  -0.294   2.543  12.287 -0.1968  0.0795 -0.2427
  114OSM   H17S11885  -0.316   2.466  12.209 -1.0782 -0.9210  0.9562
  114OSM   H17T11886  -0.394   2.558  12.332  0.6569  1.9004  1.1704
  114OSM   C18S11887  -0.190   2.505  12.393  0.3701  1.0028 -0.5332
  114OSM   H18S11888  -0.194   2.584  12.471  1.0511 -0.4658  1.0437
  114OSM   H18T11889  -0.090   2.497  12.345  0.2706  0.8545 -0.7198
  114OSM   H18U11890  -0.219   2.407  12.436  0.3684  0.5897 -1.4624
  114OSM    C1F11891  -0.676   1.968  11.765 -0.3799  0.1940 -0.6272
  114OSM     OF11892  -0.565   1.962  11.810  0.2307 -0.1460 -0.2118
  114OSM    C2F11893  -0.800   1.964  11.848 -0.2174 -0.4831 -0.5649
  114OSM    H2F11894  -0.819   1.868  11.901  0.8153 -1.0049 -1.1147
  114OSM    H2G11895  -0.893   1.987  11.792 -2.2423  0.2936  2.7859
  114OSM    C3F11896  -0.785   2.087  11.952 -0.3070  0.3462  0.1307
  114OSM    H3F11897  -0.699   2.066  12.021 -0.0301  0.3619 -0.2080
  114OSM    H3G11898  -0.875   2.082  12.017 -0.5143 -1.0661 -0.2336
  114OSM    C4F11899  -0.778   2.230  11.893 -0.7281  0.7968  0.2218
  114OSM    H4F11900  -0.675   2.234  11.851 -0.2312  1.0410  1.4326
  114OSM    H4G11901  -0.770   2.302  11.977  1.0935  1.1952 -0.2359
  114OSM    C5F11902  -0.893   2.266  11.797 -0.4934 -0.2662  0.3644
  114OSM    H5F11903  -0.986   2.265  11.857 -0.7092  1.0648  0.0888
  114OSM    H5G11904  -0.889   2.193  11.713  0.5843 -0.0940  0.2401
  114OSM    C6F11905  -0.877   2.401  11.728  0.1904 -0.8981 -0.8886
  114OSM    H6F11906  -0.918   2.413  11.625  0.0478  0.7479 -0.6758
  114OSM    H6G11907  -0.771   2.421  11.702  0.2229 -0.9626 -0.8045
  114OSM    C7F11908  -0.929   2.516  11.812 -0.6602  0.0430 -0.2762
  114OSM    H7F11909  -0.865   2.519  11.903  1.5360  1.1877 -1.7695
  114OSM    H7G11910  -1.031   2.483  11.839 -0.3293 -0.3371  0.5492
  114OSM    C8F11911  -0.937   2.651  11.743  0.1909  0.3364 -0.0434
  114OSM    H8F11912  -1.021   2.717  11.772  0.3026  1.4942 -2.1806
  114OSM    H8G11913  -0.962   2.623  11.638 -3.3440  0.9866  0.5147
  114OSM    C9F11914  -0.811   2.737  11.745  0.4594  0.2211  0.0698
  114OSM    H9F11915  -0.735   2.728  11.666 -0.1174  0.9228 -0.5931
  114OSM   C10F11916  -0.787   2.843  11.826 -0.1196  0.1311  0.2556
  114OSM   H10F11917  -0.687   2.887  11.827 -0.5450  1.1297  0.4941
  114OSM   C11F11918  -0.887   2.891  11.926  0.4009 -0.4128 -0.4981
  114OSM   H11F11919  -0.988   2.845  11.924 -0.1013  0.6772 -0.8291
  114OSM   H11G11920  -0.896   3.002  11.917  0.5763 -0.1868  1.6296
  114OSM   C12F11921  -0.837   2.899  12.074  0.2725 -0.1566 -0.6543
  114OSM   H12F11922  -0.926   2.921  12.137  0.2517  1.3250 -1.1535
  114OSM   H12G11923  -0.760   2.979  12.076  0.0565  0.0411 -0.0781
  114OSM   C13F11924  -0.774   2.774  12.134  0.0934 -0.5184  0.1585
  114OSM   H13F11925  -0.667   2.774  12.108  0.1650  2.2419  0.0897
  114OSM   H13G11926  -0.830   2.685  12.099  0.8254 -1.1439  0.5470
  114OSM   C14F11927  -0.780   2.781  12.292  0.4517 -0.2452  0.6584
  114OSM   H14F11928  -0.887   2.801  12.314 -0.2989 -0.6299 -2.2587
  114OSM   H14G11929  -0.721   2.865  12.337  0.5272  0.8522 -1.3717
  114OSM   C15F11930  -0.731   2.651  12.353  0.3186 -0.1363 -0.3474
  114OSM   H15F11931  -0.625   2.633  12.323 -0.1162 -1.1017 -1.3565
  114OSM   H15G11932  -0.794   2.570  12.311 -1.9173  0.6110  1.3886
  114OSM   C16F11933  -0.752   2.641  12.506 -0.5647 -0.1029  0.5482
  114OSM   H16F11934  -0.861   2.632  12.522 -0.3912 -1.2017  1.2255
  114OSM   H16G11935  -0.720   2.733  12.560  1.1702  0.3556 -1.1409
  114OSM   C17F11936  -0.684   2.518  12.568  0.1224 -0.4364  0.2308
  114OSM   H17F11937  -0.576   2.521  12.543  0.7910 -2.5268  2.4925
  114OSM   H17G11938  -0.728   2.428  12.521 -2.4359  1.6141 -1.6540
  114OSM   C18F11939  -0.711   2.502  12.718 -0.2414 -0.1706  0.2762
  114OSM   H18F11940  -0.645   2.571  12.775  2.8292 -4.3795  2.3398
  114OSM   H18G11941  -0.690   2.403  12.764  0.7257 -0.7125 -1.2635
  114OSM   H18H11942  -0.818   2.529  12.729 -0.1529 -0.2238  1.3540
  115OSM      N11943   0.086   0.987   5.726 -0.0299 -0.3825  0.1773
  115OSM    C1511944   0.202   1.082   5.740  0.3693 -1.4136 -0.2941
  115OSM   H15A11945   0.192   1.142   5.830 -0.6950 -1.0260 -0.6544
  115OSM   H15B11946   0.198   1.161   5.667 -2.2399 -0.1445  1.0818
  115OSM   H15C11947   0.298   1.033   5.745  2.1285  1.6654 -1.4546
  115OSM    C1411948  -0.023   1.063   5.653 -0.4429  0.2213  0.1627
  115OSM   H14A11949   0.003   1.100   5.555  1.1194 -0.6500  0.2125
  115OSM   H14B11950  -0.067   1.138   5.717 -2.4985 -0.1197 -0.7876
  115OSM   H14C11951  -0.104   0.998   5.625 -0.9365  1.2491 -0.8527
  115OSM    C1311952   0.114   0.868   5.642 -0.7449  0.0486  0.9576
  115OSM   H13A11953   0.188   0.798   5.677 -0.9010 -0.5673  0.0932
  115OSM   H13B11954   0.148   0.898   5.544 -3.2259  2.0703  0.5992
  115OSM   H13C11955   0.030   0.801   5.633  0.6812 -1.6624 -0.2813
  115OSM    C1211956   0.050   0.932   5.864 -0.5521  0.3303  0.3891
  115OSM   H12A11957   0.038   1.013   5.934  3.0714  0.1405  1.4213
  115OSM   H12B11958   0.136   0.883   5.908 -0.9245  0.7891  1.6704
  115OSM    C1111959  -0.059   0.827   5.890  0.6560 -0.3939  0.4792
  115OSM   H11A11960  -0.148   0.848   5.827  1.6226 -0.9499 -1.1388
  115OSM   H11B11961  -0.092   0.831   5.996  0.6993 -3.2568  0.6722
  115OSM      P11962   0.077   0.611   5.946  0.4262  0.2138  0.2671
  115OSM    O1311963   0.071   0.473   5.895 -0.2501  0.0874  0.7550
  115OSM    O1411964   0.205   0.684   5.944  0.2170  0.0561 -0.1024
  115OSM    O1111965   0.012   0.633   6.087  0.5148 -0.9766  0.2077
  115OSM    O1211966  -0.022   0.698   5.860 -0.5555  0.4993  0.2650
  115OSM    C1S11967   0.098   0.655   6.204  0.2394  0.1866  0.0544
  115OSM    H1S11968   0.174   0.736   6.193  2.0372 -1.5378 -0.8139
  115OSM    H1T11969   0.160   0.567   6.232  0.8264  1.0199  1.4651
  115OSM     NF11970   0.105   0.725   6.435  0.9064  0.0320  0.4986
  115OSM    HNF11971   0.127   0.662   6.510  0.7514 -1.4399 -0.6514
  115OSM    C2S11972   0.011   0.682   6.328 -0.2429  0.3830 -1.0114
  115OSM    H2S11973  -0.052   0.772   6.312 -0.9635 -0.7231 -5.5819
  115OSM    C3S11974  -0.086   0.564   6.367 -0.5406 -1.0248  0.0564
  115OSM    H3S11975  -0.026   0.484   6.414 -1.2071 -1.4928  0.1274
  115OSM     O311976  -0.150   0.512   6.252  0.5035  0.8557  0.3612
  115OSM    HO311977  -0.112   0.561   6.178 -0.6910  3.0392  1.1195
  115OSM    C4S11978  -0.179   0.610   6.478  0.2562  0.1565 -0.0687
  115OSM    H4S11979  -0.140   0.583   6.578  1.0826  2.8937  0.4441
  115OSM    C5S11980  -0.306   0.667   6.470 -0.7515 -0.5570  0.0476
  115OSM    H5S11981  -0.359   0.685   6.376  1.0819  1.2062 -0.7339
  115OSM    C6S11982  -0.386   0.720   6.583  0.2217  0.0515  0.2911
  115OSM    H6S11983  -0.492   0.701   6.556  0.3344  0.1492 -0.2356
  115OSM    H6T11984  -0.386   0.831   6.575 -2.0035  0.1372  0.7098
  115OSM    C7S11985  -0.364   0.692   6.727  0.8967  0.1021  0.0494
  115OSM    H7S11986  -0.256   0.709   6.748  1.0932 -1.2794  0.2753
  115OSM    H7T11987  -0.387   0.584   6.742  1.8526 -0.2773 -1.0024
  115OSM    C8S11988  -0.454   0.781   6.825 -0.2944  0.2056  0.2253
  115OSM    H8S11989  -0.552   0.730   6.830 -0.1506 -0.0276  0.7180
  115OSM    H8T11990  -0.477   0.885   6.794  0.5481  0.5494  0.6991
  115OSM    C9S11991  -0.393   0.790   6.960  0.0562  0.2190 -0.2618
  115OSM    H9S11992  -0.465   0.852   7.019 -0.0303 -0.5728  0.4870
  115OSM    H9T11993  -0.291   0.830   6.946  0.7094 -0.8918  1.1100
  115OSM   C10S11994  -0.392   0.665   7.045 -0.0397 -0.3596 -0.4405
  115OSM   H10S11995  -0.304   0.668   7.112 -1.4595  1.2541  1.4726
  115OSM   H10T11996  -0.381   0.580   6.974  1.1690  1.0095 -1.9880
  115OSM   C11S11997  -0.524   0.645   7.120  0.2754 -0.2099 -0.2650
  115OSM   H11S11998  -0.613   0.641   7.053 -0.4440 -1.4771  0.7086
  115OSM   H11T11999  -0.534   0.736   7.184 -0.7175  0.4207 -1.2728
  115OSM   C12S12000  -0.531   0.518   7.205 -0.3296  0.6915 -0.3619
  115OSM   H12S12001  -0.435   0.501   7.259 -0.5988 -1.4169 -0.4731
  115OSM   H12T12002  -0.551   0.427   7.144 -1.0659 -0.3252  1.3199
  115OSM   C13S12003  -0.642   0.512   7.314 -0.7450  0.3120  0.5360
  115OSM   H13S12004  -0.743   0.523   7.270 -0.3469 -2.8707 -1.4624
  115OSM   H13T12005  -0.628   0.593   7.389  1.4293 -0.9688  1.6401
  115OSM   C14S12006  -0.644   0.368   7.367  0.0014  0.4493  0.4332
  115OSM   H14S12007  -0.559   0.363   7.437  0.7982  4.6097 -0.0107
  115OSM   H14T12008  -0.632   0.296   7.283 -0.0963  0.9052  0.0223
  115OSM   C15S12009  -0.773   0.325   7.444  1.0728  0.1678  0.0946
  115OSM   H15S12010  -0.763   0.216   7.463 -1.1376 -0.0423  0.2668
  115OSM   H15T12011  -0.864   0.337   7.382  1.0287  1.2431  0.3381
  115OSM   C16S12012  -0.779   0.401   7.581  0.4557  0.9349 -0.2286
  115OSM   H16S12013  -0.866   0.361   7.638 -2.3373  2.6306 -2.9642
  115OSM   H16T12014  -0.815   0.500   7.545 -1.2823  0.2083 -0.6169
  115OSM   C17S12015  -0.656   0.389   7.679 -0.6566  0.2928  1.1270
  115OSM   H17S12016  -0.574   0.445   7.630 -1.4557  0.6515  0.1755
  115OSM   H17T12017  -0.616   0.285   7.671 -0.5142  0.3598  0.9717
  115OSM   C18S12018  -0.679   0.429   7.823  0.2155 -0.4165  0.3458
  115OSM   H18S12019  -0.736   0.352   7.880  1.2235 -0.9012  0.7302
  115OSM   H18T12020  -0.746   0.517   7.830 -0.9493 -1.3562  1.4611
  115OSM   H18U12021  -0.578   0.438   7.869  0.0942  2.8794  0.1827
  115OSM    C1F12022   0.185   0.830   6.437  0.2109  0.9017 -1.0060
  115OSM     OF12023   0.174   0.924   6.360 -0.2716 -0.1384 -0.5316
  115OSM    C2F12024   0.284   0.828   6.548 -0.4100 -0.5571  0.4829
  115OSM    H2F12025   0.243   0.818   6.650 -0.0829  0.6060  0.7487
  115OSM    H2G12026   0.334   0.927   6.552 -0.6643 -0.3971 -0.1051
  115OSM    C3F12027   0.391   0.717   6.538 -0.9002  0.8673  0.3256
  115OSM    H3F12028   0.469   0.716   6.459  1.7961  1.2255  2.7871
  115OSM    H3G12029   0.340   0.620   6.522 -0.4594  0.4610  1.3335
  115OSM    C4F12030   0.456   0.697   6.673  0.2752  1.1100  0.8391
  115OSM    H4F12031   0.506   0.598   6.679 -1.8953 -0.1105  0.0514
  115OSM    H4G12032   0.373   0.702   6.747  1.5944  1.9881  2.3372
  115OSM    C5F12033   0.565   0.803   6.707 -0.7415  0.3812 -0.0241
  115OSM    H5F12034   0.533   0.902   6.669 -2.1962  0.1064  0.4218
  115OSM    H5G12035   0.660   0.789   6.650 -0.6544  2.4008 -0.4554
  115OSM    C6F12036   0.603   0.807   6.855  0.5220  0.3233 -0.1471
  115OSM    H6F12037   0.705   0.847   6.868  0.6501  0.6909 -1.9944
  115OSM    H6G12038   0.600   0.704   6.898 -0.6936  0.6735  0.6608
  115OSM    C7F12039   0.524   0.902   6.946 -0.0133 -0.3194 -0.5953
  115OSM    H7F12040   0.420   0.863   6.945  0.2094 -0.9472  0.0029
  115OSM    H7G12041   0.521   1.002   6.896 -1.7585  0.6828  1.3204
  115OSM    C8F12042   0.574   0.926   7.088  0.0817  0.1978 -0.1845
  115OSM    H8F12043   0.521   1.014   7.131 -1.6204 -0.7054 -0.3838
  115OSM    H8G12044   0.684   0.944   7.088  0.7467 -3.1703  0.4466
  115OSM    C9F12045   0.534   0.813   7.175  0.0508  0.1328 -0.6507
  115OSM    H9F12046   0.515   0.719   7.123 -0.0223 -1.4550  2.0406
  115OSM   C10F12047   0.530   0.812   7.312 -0.6090 -0.7562 -0.1936
  115OSM   H10F12048   0.471   0.730   7.356 -1.3058  0.9198  2.2450
  115OSM   C11F12049   0.568   0.924   7.406 -0.3313  0.7359  0.0183
  115OSM   H11F12050   0.472   0.956   7.453 -0.5379  2.6114 -1.5496
  115OSM   H11G12051   0.616   1.015   7.363 -1.3422  0.0831 -2.7336
  115OSM   C12F12052   0.656   0.861   7.521 -0.5981  0.4895  0.1434
  115OSM   H12F12053   0.699   0.943   7.582  0.6354  0.4364 -0.6193
  115OSM   H12G12054   0.742   0.811   7.472 -0.1125  1.2969  0.1635
  115OSM   C13F12055   0.593   0.764   7.622 -0.2543 -0.4451  0.2109
  115OSM   H13F12056   0.556   0.667   7.581 -1.1764 -0.5755  1.3070
  115OSM   H13G12057   0.498   0.806   7.662  0.1462  0.4533  0.2471
  115OSM   C14F12058   0.692   0.738   7.741 -0.0272  0.3999 -0.3336
  115OSM   H14F12059   0.798   0.751   7.710 -0.8024  1.9680 -2.5708
  115OSM   H14G12060   0.675   0.636   7.780 -0.5029  0.8894  0.7970
  115OSM   C15F12061   0.671   0.830   7.861 -0.2706 -0.2791 -0.1240
  115OSM   H15F12062   0.567   0.825   7.901 -0.2903 -1.1749 -0.2695
  115OSM   H15G12063   0.706   0.934   7.843  0.0721 -0.6767 -2.0247
  115OSM   C16F12064   0.761   0.777   7.972  0.0176  0.4983 -0.2767
  115OSM   H16F12065   0.865   0.786   7.933 -0.6105  0.3054 -2.0860
  115OSM   H16G12066   0.741   0.669   7.987  1.2670  0.3904  0.8713
  115OSM   C17F12067   0.738   0.848   8.108 -0.0479 -0.8532  0.7063
  115OSM   H17F12068   0.637   0.831   8.150 -0.0399  0.4037  1.2698
  115OSM   H17G12069   0.757   0.957   8.098 -0.2131 -0.7552  1.4086
  115OSM   C18F12070   0.837   0.794   8.209 -0.0117  0.1608 -0.0133
  115OSM   H18F12071   0.815   0.686   8.214 -1.1925  0.3067 -1.3638
  115OSM   H18G12072   0.829   0.846   8.307 -0.0138  2.2998 -1.0878
  115OSM   H18H12073   0.942   0.812   8.178 -0.5897 -0.1356 -2.3734
  116OSM      N12074   1.911   5.244   6.090  0.2500 -0.0555 -0.1995
  116OSM    C1512075   1.906   5.365   6.005  0.3195  0.8340  0.0428
  116OSM   H15A12076   1.955   5.334   5.913  1.7244  3.1803 -0.0862
  116OSM   H15B12077   1.961   5.450   6.042  0.8926  0.7503 -0.5809
  116OSM   H15C12078   1.808   5.398   5.975  0.7299  1.6206 -0.4542
  116OSM    C1412079   1.823   5.136   6.022 -0.0015  0.5479 -0.3515
  116OSM   H14A12080   1.725   5.180   6.014 -0.6539 -1.2153 -3.7345
  116OSM   H14B12081   1.831   5.044   6.076  3.0188  1.2376  0.5596
  116OSM   H14C12082   1.856   5.111   5.922  0.4846  0.0076 -0.0612
  116OSM    C1312083   2.050   5.184   6.107 -0.1873 -0.1691  0.4490
  116OSM   H13A12084   2.047   5.089   6.158  1.7857 -0.9167 -0.7261
  116OSM   H13B12085   2.128   5.248   6.147  1.3399  0.1606 -2.7447
  116OSM   H13C12086   2.091   5.156   6.011  2.3772 -1.4250  1.8261
  116OSM    C1212087   1.858   5.290   6.228 -0.0729 -0.2343  0.2277
  116OSM   H12A12088   1.765   5.344   6.220  0.4621  0.6686 -0.0851
  116OSM   H12B12089   1.931   5.357   6.272  0.2717  0.7125 -1.6713
  116OSM    C1112090   1.824   5.177   6.325 -0.0198 -0.1448  0.1740
  116OSM   H11A12091   1.824   5.217   6.429  2.2872  0.9529 -0.1674
  116OSM   H11B12092   1.912   5.111   6.335  2.4601  2.3509 -2.8684
  116OSM      P12093   1.569   5.189   6.296 -0.1233  0.0337  0.3443
  116OSM    O1312094   1.558   5.286   6.181  0.6964  0.1879  0.2602
  116OSM    O1412095   1.454   5.097   6.322 -0.0482 -0.3894  0.9169
  116OSM    O1112096   1.581   5.269   6.427 -0.1108  0.2549  0.0363
  116OSM    O1212097   1.703   5.111   6.287  0.1403 -0.3358  0.2486
  116OSM    C1S12098   1.548   5.216   6.549 -0.7778  0.2303 -0.3691
  116OSM    H1S12099   1.591   5.116   6.567 -0.0011  0.3571 -1.4385
  116OSM    H1T12100   1.438   5.211   6.568 -0.6724  1.5169  0.7746
  116OSM     NF12101   1.620   5.258   6.782  0.0262 -0.1383  0.0251
  116OSM    HNF12102   1.547   5.274   6.849 -0.6473  0.0712 -0.7475
  116OSM    C2S12103   1.614   5.317   6.652 -0.0610 -0.1071  0.6199
  116OSM    H2S12104   1.715   5.340   6.614  0.0175 -0.9732  0.2838
  116OSM    C3S12105   1.526   5.445   6.654  0.6161 -0.6571 -0.4407
  116OSM    H3S12106   1.423   5.424   6.691  1.0142  0.3594  1.3791
  116OSM     O312107   1.520   5.514   6.531 -0.4467 -0.1359 -0.2995
  116OSM    HO312108   1.549   5.449   6.468 -0.2006 -1.4704  1.1416
  116OSM    C4S12109   1.578   5.541   6.756  0.0618 -0.2441  0.3420
  116OSM    H4S12110   1.519   5.521   6.846 -1.1609 -1.8062 -0.7396
  116OSM    C5S12111   1.672   5.639   6.744  0.1205  0.1331 -0.4585
  116OSM    H5S12112   1.707   5.678   6.648  2.5377 -0.3601  0.1701
  116OSM    C6S12113   1.708   5.741   6.854  0.9108 -0.7237  0.9774
  116OSM    H6S12114   1.646   5.832   6.840  0.2599 -1.2646  0.2368
  116OSM    H6T12115   1.808   5.785   6.836 -1.0826  3.4740 -1.3185
  116OSM    C7S12116   1.712   5.680   6.989 -0.0125  0.1617 -0.0425
  116OSM    H7S12117   1.781   5.592   6.991 -3.2635 -2.5856  1.9945
  116OSM    H7T12118   1.609   5.655   7.021 -1.0213  1.7570 -1.9115
  116OSM    C8S12119   1.749   5.778   7.099  0.0164 -0.6770  0.0784
  116OSM    H8S12120   1.699   5.876   7.086  1.8452  0.3028  0.1114
  116OSM    H8T12121   1.859   5.791   7.104 -0.0530 -0.5031  2.4082
  116OSM    C9S12122   1.711   5.747   7.244  0.2742 -0.5849 -0.8782
  116OSM    H9S12123   1.734   5.639   7.257  1.5976 -0.2924 -0.5352
  116OSM    H9T12124   1.605   5.777   7.258  0.9655  1.0243  1.5373
  116OSM   C10S12125   1.783   5.832   7.351 -0.3832 -0.7356 -0.0142
  116OSM   H10S12126   1.789   5.935   7.308  0.9165 -1.5271 -1.8513
  116OSM   H10T12127   1.893   5.820   7.358 -0.0972  1.2505 -0.3015
  116OSM   C11S12128   1.734   5.815   7.492 -0.9172  0.3932 -0.0923
  116OSM   H11S12129   1.756   5.709   7.515  0.8929  0.7307 -0.1002
  116OSM   H11T12130   1.625   5.831   7.508 -0.6284  2.0321  0.4586
  116OSM   C12S12131   1.800   5.905   7.594  0.5729  0.1768  0.2146
  116OSM   H12S12132   1.745   6.002   7.589  0.9053  0.4939  1.9790
  116OSM   H12T12133   1.908   5.918   7.572  0.2783 -0.5853 -1.9056
  116OSM   C13S12134   1.799   5.847   7.737  0.4093 -0.2549  0.6414
  116OSM   H13S12135   1.839   5.919   7.812  1.6662 -1.5866  1.2931
  116OSM   H13T12136   1.866   5.760   7.731  0.5496 -0.0883 -0.4918
  116OSM   C14S12137   1.656   5.817   7.780  0.3971  0.1496 -0.6453
  116OSM   H14S12138   1.605   5.751   7.707 -0.8096  0.4355 -0.0778
  116OSM   H14T12139   1.596   5.911   7.776  1.3705  0.8211  0.0311
  116OSM   C15S12140   1.649   5.779   7.933 -0.4911  0.2554  1.4456
  116OSM   H15S12141   1.709   5.686   7.947 -0.5007  0.0373  0.1468
  116OSM   H15T12142   1.542   5.751   7.946 -0.8291  1.0875  0.5706
  116OSM   C16S12143   1.692   5.895   8.026 -0.1127  0.3457  0.3002
  116OSM   H16S12144   1.659   5.982   7.966  0.2567 -0.1600 -0.6612
  116OSM   H16T12145   1.803   5.907   8.033 -0.1123 -0.2959  2.1200
  116OSM   C17S12146   1.631   5.881   8.167 -0.2251  0.4756 -0.3553
  116OSM   H17S12147   1.521   5.870   8.151 -0.4191  2.7677 -0.9814
  116OSM   H17T12148   1.639   5.977   8.223  1.3347 -0.0608  0.3972
  116OSM   C18S12149   1.696   5.764   8.247 -0.1913 -0.0589  0.1636
  116OSM   H18S12150   1.806   5.767   8.234 -0.2888 -1.3564 -1.3082
  116OSM   H18T12151   1.660   5.668   8.206  1.1730 -0.8661  0.8036
  116OSM   H18U12152   1.665   5.771   8.353 -0.0265  2.4523  0.1185
  116OSM    C1F12153   1.709   5.168   6.810  0.8497  0.1519  0.1588
  116OSM     OF12154   1.788   5.135   6.720  0.0544  0.5159 -0.5722
  116OSM    C2F12155   1.704   5.096   6.943 -0.0403 -0.8526 -0.0122
  116OSM    H2F12156   1.692   4.989   6.917  0.2520 -0.7022 -0.8015
  116OSM    H2G12157   1.619   5.135   7.003 -2.4553 -1.5468 -2.7824
  116OSM    C3F12158   1.838   5.113   7.013 -0.2466  0.1042  0.2856
  116OSM    H3F12159   1.916   5.062   6.953  0.6044 -0.3004  1.6951
  116OSM    H3G12160   1.832   5.060   7.111 -1.9290 -1.3222 -0.5279
  116OSM    C4F12161   1.887   5.257   7.031  0.7249  0.2756 -0.4433
  116OSM    H4F12162   1.795   5.311   7.061  1.1417  0.8596 -0.1944
  116OSM    H4G12163   1.911   5.306   6.934  0.5924  1.8019  0.2716
  116OSM    C5F12164   2.003   5.283   7.125  0.1879 -0.2952 -0.1938
  116OSM    H5F12165   2.105   5.300   7.084  0.7890 -2.0159  0.4900
  116OSM    H5G12166   2.010   5.183   7.174  0.2244 -1.0699 -1.7401
  116OSM    C6F12167   1.964   5.392   7.229 -0.2580 -0.0529  0.7056
  116OSM    H6F12168   1.859   5.388   7.266 -0.4385 -3.4119  0.1184
  116OSM    H6G12169   1.974   5.498   7.197 -1.6403  0.2758  1.2570
  116OSM    C7F12170   2.058   5.389   7.353  0.1403 -0.0833 -0.2388
  116OSM    H7F12171   2.160   5.411   7.315  0.2415 -1.8082 -1.0503
  116OSM    H7G12172   2.064   5.287   7.395  0.5870  0.3993  0.9049
  116OSM    C8F12173   2.020   5.491   7.463 -0.6207 -0.3808 -0.8875
  116OSM    H8F12174   1.996   5.590   7.419 -0.5770 -0.5534 -1.3072
  116OSM    H8G12175   2.113   5.504   7.522 -0.7165  0.9877 -1.0149
  116OSM    C9F12176   1.909   5.438   7.552  0.1380 -0.1815  0.3976
  116OSM    H9F12177   1.826   5.389   7.500  0.0970  0.3101 -0.0123
  116OSM   C10F12178   1.921   5.430   7.688  0.3273  0.0669  0.4772
  116OSM   H10F12179   1.833   5.408   7.751  0.0894  0.1679  0.1806
  116OSM   C11F12180   2.039   5.464   7.778  0.5759 -1.2183  0.7282
  116OSM   H11F12181   2.065   5.571   7.769 -1.3238 -0.8228 -0.8081
  116OSM   H11G12182   2.128   5.400   7.761  3.4328  2.1681  1.7922
  116OSM   C12F12183   1.995   5.448   7.924 -0.3310  0.6601 -0.0481
  116OSM   H12F12184   1.885   5.445   7.944 -0.0960 -1.6329  1.3329
  116OSM   H12G12185   2.020   5.536   7.988  0.4835  1.7744 -1.8290
  116OSM   C13F12186   2.049   5.321   7.991 -0.3622  0.6441 -0.1235
  116OSM   H13F12187   2.160   5.317   7.994 -0.1811 -0.1297 -3.3827
  116OSM   H13G12188   2.011   5.242   7.923 -2.2139  0.0650  1.4882
  116OSM   C14F12189   1.986   5.296   8.134  0.2734 -0.1599 -0.1650
  116OSM   H14F12190   1.980   5.192   8.171 -4.2496 -0.3675 -0.9904
  116OSM   H14G12191   1.877   5.304   8.114  0.4864 -0.7747 -1.7849
  116OSM   C15F12192   2.046   5.389   8.244  0.9191 -0.4599  0.1395
  116OSM   H15F12193   2.040   5.494   8.208  0.8633 -0.7334 -0.6706
  116OSM   H15G12194   2.154   5.366   8.254  1.6414  1.4713 -2.3284
  116OSM   C16F12195   1.987   5.374   8.391 -1.1638  0.5130  0.3030
  116OSM   H16F12196   2.064   5.407   8.463 -0.0883  0.3569 -0.7452
  116OSM   H16G12197   1.980   5.265   8.410 -1.0134  0.3784 -0.3612
  116OSM   C17F12198   1.861   5.455   8.414  1.2913  0.0123 -0.5986
  116OSM   H17F12199   1.795   5.445   8.325 -1.4525  3.3717  0.8245
  116OSM   H17G12200   1.885   5.563   8.403 -0.3094  0.1266 -5.7542
  116OSM   C18F12201   1.787   5.427   8.541 -0.0380  0.3717  0.4861
  116OSM   H18F12202   1.693   5.487   8.541 -0.8507 -0.7135 -3.0656
  116OSM   H18G12203   1.852   5.453   8.628  1.8208  0.5739 -0.9067
  116OSM   H18H12204   1.759   5.320   8.551  2.6010 -0.4150  0.2845
  117OSM      N12205   5.736   6.096   5.811 -0.2989  0.0814 -0.1622
  117OSM    C1512206   5.680   6.161   5.684  0.3447 -0.2498 -0.3558
  117OSM   H15A12207   5.636   6.080   5.629 -1.0058 -0.6550  1.2423
  117OSM   H15B12208   5.760   6.202   5.623  0.0363 -0.8508 -1.1876
  117OSM   H15C12209   5.610   6.238   5.714  1.4961  0.6339  0.2002
  117OSM    C1412210   5.806   5.979   5.764  0.0452 -0.0870 -0.0383
  117OSM   H14A12211   5.879   5.995   5.686 -0.7300 -0.9007 -0.9758
  117OSM   H14B12212   5.742   5.906   5.716 -2.3953  3.0203 -1.8901
  117OSM   H14C12213   5.861   5.931   5.843  1.2282 -0.4254 -1.0372
  117OSM    C1312214   5.832   6.202   5.872 -0.3470 -0.0013 -0.0307
  117OSM   H13A12215   5.881   6.166   5.961  0.6218 -0.0615 -0.5802
  117OSM   H13B12216   5.776   6.291   5.899  0.4894 -0.1832  2.5902
  117OSM   H13C12217   5.906   6.238   5.802 -0.4260 -0.3519 -0.2970
  117OSM    C1212218   5.626   6.063   5.904 -0.4249  0.1493  0.0513
  117OSM   H12A12219   5.568   5.984   5.859 -0.8485 -0.6771  1.9622
  117OSM   H12B12220   5.550   6.138   5.919 -1.0307 -0.2583 -0.9191
  117OSM    C1112221   5.664   6.020   6.053 -0.2222 -1.0265  0.1894
  117OSM   H11A12222   5.733   5.934   6.039  0.1126 -0.6611 -0.4590
  117OSM   H11B12223   5.580   5.972   6.108  0.2331  1.3586  3.2819
  117OSM      P12224   5.647   6.248   6.174 -0.2134 -0.1475  0.1140
  117OSM    O1312225   5.740   6.352   6.216  0.2116  0.1929  0.2458
  117OSM    O1412226   5.537   6.286   6.081 -0.7399  0.4795 -0.5992
  117OSM    O1112227   5.576   6.198   6.307 -0.3401 -0.2506 -0.4484
  117OSM    O1212228   5.733   6.125   6.123 -0.1982 -0.5595 -0.1874
  117OSM    C1S12229   5.642   6.118   6.411 -0.1315  0.3552 -0.5214
  117OSM    H1S12230   5.747   6.097   6.383  0.3361 -2.0327  2.4890
  117OSM    H1T12231   5.587   6.022   6.426  1.2204 -0.2419  0.8276
  117OSM     NF12232   5.742   6.103   6.643  0.0930 -0.0826  0.2226
  117OSM    HNF12233   5.692   6.055   6.715  1.0448 -1.4554  0.0135
  117OSM    C2S12234   5.656   6.185   6.554  0.2118  0.6402  0.1615
  117OSM    H2S12235   5.710   6.281   6.541  0.4537  0.5091  0.1828
  117OSM    C3S12236   5.515   6.213   6.612 -0.4334 -0.7040  0.0534
  117OSM    H3S12237   5.472   6.113   6.635 -2.3473 -0.1426 -0.8969
  117OSM     O312238   5.425   6.281   6.521 -0.1914  0.4362 -0.2027
  117OSM    HO312239   5.464   6.246   6.440  0.0259  1.3044 -0.4821
  117OSM    C4S12240   5.526   6.299   6.742 -0.2325  0.3886  0.0955
  117OSM    H4S12241   5.551   6.241   6.833  3.9337  1.5590 -0.0977
  117OSM    C5S12242   5.501   6.428   6.765  0.0164 -0.2140 -0.4627
  117OSM    H5S12243   5.466   6.497   6.687  1.0613 -0.9928 -1.6532
  117OSM    C6S12244   5.513   6.483   6.900 -0.5186 -0.2010 -0.6315
  117OSM    H6S12245   5.594   6.558   6.909 -0.3303 -0.4358 -0.3527
  117OSM    H6T12246   5.533   6.409   6.980 -0.5239  1.0232  0.5424
  117OSM    C7S12247   5.388   6.562   6.938 -0.5588  0.1979 -0.5715
  117OSM    H7S12248   5.310   6.483   6.936  1.1228 -1.5350 -0.9120
  117OSM    H7T12249   5.366   6.634   6.856 -1.8055 -0.6468 -0.9946
  117OSM    C8S12250   5.403   6.625   7.079  0.0370  0.1363  0.7400
  117OSM    H8S12251   5.404   6.736   7.070  0.0668 -0.0196 -2.2373
  117OSM    H8T12252   5.493   6.586   7.131 -0.7363 -0.3905  1.7095
  117OSM    C9S12253   5.270   6.599   7.161 -0.1679  0.1454  0.2900
  117OSM    H9S12254   5.248   6.490   7.159  0.7178 -0.0665  1.1906
  117OSM    H9T12255   5.182   6.642   7.108 -1.4860 -2.4951  0.1496
  117OSM   C10S12256   5.277   6.639   7.314  0.2698  0.1249  0.7295
  117OSM   H10S12257   5.177   6.662   7.356 -0.2459 -0.8087  0.0606
  117OSM   H10T12258   5.328   6.737   7.323  0.4418 -0.0965  2.2600
  117OSM   C11S12259   5.348   6.532   7.397 -0.6269 -0.0876 -0.4141
  117OSM   H11S12260   5.431   6.475   7.350 -0.4201  1.2897 -1.7836
  117OSM   H11T12261   5.271   6.456   7.425 -0.9928 -1.0886 -3.7158
  117OSM   C12S12262   5.415   6.584   7.528 -0.1865  0.2746 -0.4966
  117OSM   H12S12263   5.451   6.686   7.505  1.0763  0.1812  0.8785
  117OSM   H12T12264   5.499   6.512   7.540 -0.6850 -0.1375  0.6070
  117OSM   C13S12265   5.328   6.584   7.665 -0.3640  0.7611  0.6836
  117OSM   H13S12266   5.264   6.493   7.659  0.7895 -0.1060  1.1039
  117OSM   H13T12267   5.262   6.673   7.674 -0.4194  0.7869  0.0832
  117OSM   C14S12268   5.421   6.576   7.785 -0.0076  0.0164 -0.0100
  117OSM   H14S12269   5.501   6.651   7.796 -0.0559  0.1270 -0.4131
  117OSM   H14T12270   5.486   6.486   7.777  0.6266  0.6145 -1.9714
  117OSM   C15S12271   5.346   6.593   7.917 -0.1878 -0.5308 -0.0620
  117OSM   H15S12272   5.288   6.499   7.930  1.6233 -2.0998 -2.3985
  117OSM   H15T12273   5.267   6.671   7.913 -1.1196 -1.3956  0.7420
  117OSM   C16S12274   5.453   6.611   8.030 -0.6897 -0.0076 -0.0708
  117OSM   H16S12275   5.515   6.700   8.005  3.4908 -2.2066  1.5829
  117OSM   H16T12276   5.527   6.528   8.031 -1.7263 -0.9492  0.4787
  117OSM   C17S12277   5.391   6.628   8.170  0.2999 -0.0415 -0.4819
  117OSM   H17S12278   5.462   6.603   8.252  0.3389 -0.4592 -0.6397
  117OSM   H17T12279   5.305   6.559   8.185  1.4840 -1.5046 -0.1127
  117OSM   C18S12280   5.354   6.775   8.198 -0.0630  0.5940  0.4537
  117OSM   H18S12281   5.300   6.792   8.293  1.6878  1.1197  1.3936
  117OSM   H18T12282   5.288   6.816   8.118  0.9488  0.6181 -0.4008
  117OSM   H18U12283   5.445   6.837   8.183 -0.4144  1.1817  0.7391
  117OSM    C1F12284   5.874   6.088   6.632  0.5139  0.1698 -0.1429
  117OSM     OF12285   5.942   6.152   6.554  0.1067 -0.4974  0.5410
  117OSM    C2F12286   5.933   5.997   6.719 -0.9341 -0.2782  0.0704
  117OSM    H2F12287   5.942   5.904   6.659 -1.0774 -0.3472  0.1552
  117OSM    H2G12288   5.889   5.975   6.818 -0.5333 -0.1174  0.2861
  117OSM    C3F12289   6.075   6.051   6.754 -0.0127 -0.1103  1.0136
  117OSM    H3F12290   6.061   6.147   6.808  1.3161  0.7549 -0.1095
  117OSM    H3G12291   6.128   6.086   6.663 -4.4164  1.0229 -1.4062
  117OSM    C4F12292   6.167   5.957   6.830 -1.0541 -0.3360 -0.0937
  117OSM    H4F12293   6.273   5.990   6.824 -1.2268  0.1429 -0.5718
  117OSM    H4G12294   6.164   5.856   6.784 -0.9189  0.9909 -3.2363
  117OSM    C5F12295   6.137   5.944   6.982  0.2327  0.0573 -0.1553
  117OSM    H5F12296   6.197   5.859   7.021  1.9587  1.9737  1.6445
  117OSM    H5G12297   6.031   5.915   6.999  0.5015 -0.8053  0.1148
  117OSM    C6F12298   6.184   6.068   7.065  0.2676  0.3636  0.6788
  117OSM    H6F12299   6.114   6.154   7.056 -0.6837 -0.3769  0.8169
  117OSM    H6G12300   6.281   6.107   7.029  1.4106  0.5591  3.6960
  117OSM    C7F12301   6.187   6.028   7.216  0.1428 -0.5137  0.6879
  117OSM    H7F12302   6.247   5.935   7.207 -0.8452 -1.0531 -0.5197
  117OSM    H7G12303   6.085   6.006   7.253  0.5349 -2.6966  0.5954
  117OSM    C8F12304   6.236   6.136   7.304 -0.3186 -0.1526  0.0209
  117OSM    H8F12305   6.178   6.225   7.273 -0.0518  0.1974  0.5105
  117OSM    H8G12306   6.343   6.153   7.278 -1.0967  3.1692 -1.4764
  117OSM    C9F12307   6.196   6.113   7.448  0.1041 -0.6845 -0.6991
  117OSM    H9F12308   6.089   6.094   7.459  0.2988 -1.5052 -0.1401
  117OSM   C10F12309   6.260   6.129   7.563 -0.2318  0.2438  0.0955
  117OSM   H10F12310   6.224   6.095   7.661  1.2205 -0.7142  0.3151
  117OSM   C11F12311   6.400   6.175   7.582 -0.6732  0.7458 -0.2556
  117OSM   H11F12312   6.400   6.266   7.645  0.3440  0.6634 -0.1284
  117OSM   H11G12313   6.447   6.201   7.484  0.0606 -0.5030 -0.2559
  117OSM   C12F12314   6.513   6.075   7.633 -0.8767  0.5630  0.0622
  117OSM   H12F12315   6.472   6.011   7.714 -1.1638 -0.9340 -1.2203
  117OSM   H12G12316   6.598   6.137   7.667  0.0467 -0.7061  0.1243
  117OSM   C13F12317   6.574   5.976   7.528  0.1451  0.4303  0.5983
  117OSM   H13F12318   6.607   6.051   7.454 -2.1749  1.7396  0.7841
  117OSM   H13G12319   6.486   5.924   7.484  1.5448 -0.5054 -1.2159
  117OSM   C14F12320   6.686   5.888   7.584 -0.5432 -0.0355 -0.1283
  117OSM   H14F12321   6.654   5.844   7.681 -0.1678  1.9215  0.9506
  117OSM   H14G12322   6.776   5.948   7.609  2.1614 -4.8302  3.3334
  117OSM   C15F12323   6.727   5.765   7.499  0.1833 -0.2014  0.2023
  117OSM   H15F12324   6.669   5.671   7.506  1.8307 -1.2325  0.5283
  117OSM   H15G12325   6.826   5.737   7.541 -0.1668 -0.2983  0.9867
  117OSM   C16F12326   6.763   5.801   7.349 -0.0163 -0.2966 -0.9265
  117OSM   H16F12327   6.852   5.866   7.353 -0.4577  0.3569  3.0460
  117OSM   H16G12328   6.686   5.866   7.302  1.3129  1.3206 -0.9481
  117OSM   C17F12329   6.793   5.679   7.258 -0.0715 -0.1579  0.5559
  117OSM   H17F12330   6.881   5.621   7.296  0.7768  0.7281  0.0017
  117OSM   H17G12331   6.698   5.623   7.263  1.1592 -2.9281 -2.9661
  117OSM   C18F12332   6.816   5.720   7.110 -0.1581 -0.6209  0.2950
  117OSM   H18F12333   6.817   5.619   7.062 -0.6172 -0.6083  0.2510
  117OSM   H18G12334   6.924   5.742   7.098  0.0074 -1.0227  0.9297
  117OSM   H18H12335   6.746   5.781   7.050  1.0808 -0.4579 -1.0409
  118OSM      N12336   2.480   2.006   6.265  0.6626  0.3058  0.3795
  118OSM    C1512337   2.572   2.118   6.246 -0.0100 -0.6346  0.4107
  118OSM   H15A12338   2.521   2.213   6.253 -0.0105 -0.5768 -0.2929
  118OSM   H15B12339   2.612   2.099   6.147 -1.4187 -0.7407 -0.1631
  118OSM   H15C12340   2.651   2.118   6.319 -1.0787 -0.0925  1.6059
  118OSM    C1412341   2.553   1.873   6.284 -0.5269 -0.7403  0.7039
  118OSM   H14A12342   2.615   1.853   6.198  0.4059 -0.1850  1.2293
  118OSM   H14B12343   2.484   1.792   6.302  0.9956 -2.0839  0.6586
  118OSM   H14C12344   2.617   1.885   6.370  0.6380  1.3107 -0.3669
  118OSM    C1312345   2.397   2.023   6.387  0.6863 -0.0085 -0.3197
  118OSM   H13A12346   2.467   2.042   6.467  0.0901 -2.4154  0.8586
  118OSM   H13B12347   2.335   1.936   6.402  1.6077 -0.3072  2.1832
  118OSM   H13C12348   2.328   2.104   6.368 -0.0814 -1.3272 -4.0959
  118OSM    C1212349   2.385   1.993   6.155 -0.0512  0.3566 -0.1434
  118OSM   H12A12350   2.320   1.907   6.168 -0.9938  1.2903  1.7631
  118OSM   H12B12351   2.437   1.987   6.061  0.0971 -2.5690  0.0199
  118OSM    C1112352   2.280   2.115   6.132 -1.0193  0.7444  0.3657
  118OSM   H11A12353   2.229   2.098   6.034  1.1914  0.4219 -0.8024
  118OSM   H11B12354   2.345   2.204   6.128  0.7285 -0.3613  2.1847
  118OSM      P12355   2.072   2.227   6.243 -0.1235 -0.0588 -0.3755
  118OSM    O1312356   2.108   2.365   6.202  0.1602 -0.0714  0.1042
  118OSM    O1412357   1.965   2.152   6.177 -0.5251 -0.0658  0.4024
  118OSM    O1112358   2.034   2.252   6.396  0.0281  0.7901  1.2288
  118OSM    O1212359   2.191   2.128   6.244  1.1726 -0.4705  0.3882
  118OSM    C1S12360   2.119   2.320   6.487 -0.9193  0.1205 -0.3075
  118OSM    H1S12361   2.146   2.424   6.462  0.4435 -0.2558 -0.4619
  118OSM    H1T12362   2.218   2.269   6.491 -0.1543  1.5884  0.0364
  118OSM     NF12363   2.160   2.396   6.721 -0.4637  0.5459  0.0555
  118OSM    HNF12364   2.234   2.353   6.771 -1.0013  0.1573  0.5221
  118OSM    C2S12365   2.073   2.315   6.633 -0.4743 -0.2079  0.0899
  118OSM    H2S12366   1.974   2.367   6.633 -0.6261 -0.3486 -2.4790
  118OSM    C3S12367   2.060   2.170   6.672  0.4302 -0.0901  0.3759
  118OSM    H3S12368   2.162   2.127   6.660  1.0900  1.1497  1.2065
  118OSM     O312369   1.969   2.086   6.595  0.0427 -0.1477 -0.0809
  118OSM    HO312370   1.966   2.126   6.508  1.5376  1.2162  0.4290
  118OSM    C4S12371   2.026   2.162   6.821  0.5077  0.6234 -0.6182
  118OSM    H4S12372   1.931   2.193   6.865 -0.3489 -1.6403 -0.7360
  118OSM    C5S12373   2.121   2.123   6.905 -1.0889  0.2244  0.0468
  118OSM    H5S12374   2.220   2.092   6.870  0.4222  1.7656  2.6126
  118OSM    C6S12375   2.099   2.121   7.056  0.3039  0.4505 -0.1505
  118OSM    H6S12376   2.096   2.017   7.095  1.2081  1.2784  2.3532
  118OSM    H6T12377   2.000   2.165   7.081 -0.8892 -2.0351 -0.2005
  118OSM    C7S12378   2.202   2.219   7.122  0.8114 -0.5389 -0.0796
  118OSM    H7S12379   2.184   2.326   7.101 -2.2783 -0.4087  2.4279
  118OSM    H7T12380   2.308   2.190   7.104  1.0452 -0.8808  1.6482
  118OSM    C8S12381   2.195   2.204   7.271  0.8416 -0.2326  0.1585
  118OSM    H8S12382   2.199   2.096   7.298 -1.3737 -0.5910 -0.6950
  118OSM    H8T12383   2.104   2.245   7.319  1.0248  0.2600  0.0960
  118OSM    C9S12384   2.303   2.285   7.350 -0.0191  0.1742  0.5945
  118OSM    H9S12385   2.286   2.271   7.459 -1.9664  0.9062  0.4214
  118OSM    H9T12386   2.280   2.389   7.321 -4.7245 -0.8895 -0.3093
  118OSM   C10S12387   2.452   2.258   7.329 -0.1970  0.2105 -0.3310
  118OSM   H10S12388   2.474   2.287   7.225 -2.2612 -0.0264 -0.8718
  118OSM   H10T12389   2.458   2.148   7.345 -0.5350  0.1536 -0.5941
  118OSM   C11S12390   2.555   2.332   7.426  0.4735 -0.0432  0.0072
  118OSM   H11S12391   2.568   2.438   7.395  2.2237  0.3424  1.8004
  118OSM   H11T12392   2.650   2.277   7.407 -0.7880 -3.0642  1.7103
  118OSM   C12S12393   2.511   2.318   7.568  0.2675 -0.1497  0.5754
  118OSM   H12S12394   2.502   2.209   7.587  0.0753 -0.1695  0.3723
  118OSM   H12T12395   2.419   2.379   7.580 -1.0306 -1.6780 -1.0891
  118OSM   C13S12396   2.623   2.369   7.658 -0.4177  0.6487 -0.1155
  118OSM   H13S12397   2.641   2.477   7.638  2.1088  0.8878  2.6222
  118OSM   H13T12398   2.721   2.317   7.652 -1.1094 -1.0116  1.8841
  118OSM   C14S12399   2.579   2.374   7.804 -0.6154 -0.4489  0.7584
  118OSM   H14S12400   2.524   2.281   7.832  1.8345 -2.3669 -0.4254
  118OSM   H14T12401   2.510   2.461   7.816  1.6850  1.2870  2.2660
  118OSM   C15S12402   2.694   2.389   7.901  0.1336  0.1205 -0.0722
  118OSM   H15S12403   2.767   2.467   7.872 -1.0460  1.6549  0.9516
  118OSM   H15T12404   2.751   2.294   7.909 -1.2820 -0.8338 -0.9525
  118OSM   C16S12405   2.648   2.434   8.043 -0.0231 -0.0953 -0.0413
  118OSM   H16S12406   2.721   2.391   8.115 -2.4134  0.8260  3.1772
  118OSM   H16T12407   2.553   2.379   8.054  0.1444 -1.1683 -3.0183
  118OSM   C17S12408   2.636   2.584   8.064  0.0301  0.1754 -0.9669
  118OSM   H17S12409   2.581   2.634   7.982 -2.3017 -0.4236  0.1514
  118OSM   H17T12410   2.737   2.631   8.064 -0.1741  0.6304  0.1670
  118OSM   C18S12411   2.571   2.637   8.193  0.1109  0.4172  0.4375
  118OSM   H18S12412   2.582   2.747   8.186  0.5936  0.2593 -2.3717
  118OSM   H18T12413   2.624   2.596   8.281 -1.3614 -0.0417  1.1361
  118OSM   H18U12414   2.463   2.614   8.205  0.2951  0.4425  2.3202
  118OSM    C1F12415   2.162   2.527   6.717 -0.0629  0.7429  0.3148
  118OSM     OF12416   2.071   2.591   6.667  0.2721 -1.0110 -0.2515
  118OSM    C2F12417   2.274   2.595   6.774  0.3563 -0.2455  0.1025
  118OSM    H2F12418   2.278   2.698   6.732  1.0902 -0.2726  0.0895
  118OSM    H2G12419   2.375   2.559   6.745  0.2477  0.9843 -2.0401
  118OSM    C3F12420   2.268   2.602   6.932 -0.5836  0.2303  0.0156
  118OSM    H3F12421   2.308   2.506   6.972 -0.1527 -0.1478 -1.2715
  118OSM    H3G12422   2.161   2.614   6.959 -0.4746  0.5218  0.3270
  118OSM    C4F12423   2.353   2.715   6.987  0.5252  0.0031 -0.3097
  118OSM    H4F12424   2.321   2.800   6.924 -0.4686 -0.5116 -0.5256
  118OSM    H4G12425   2.463   2.696   6.982  0.5722  0.3773 -0.7048
  118OSM    C5F12426   2.329   2.738   7.139  0.7901  0.4876 -0.3138
  118OSM    H5F12427   2.220   2.740   7.161  0.8464  1.9889 -0.0205
  118OSM    H5G12428   2.370   2.841   7.153  1.6613  0.2180 -0.8374
  118OSM    C6F12429   2.412   2.645   7.226 -0.6312  0.8948 -0.0364
  118OSM    H6F12430   2.518   2.662   7.199 -1.0550 -0.7694 -3.2516
  118OSM    H6G12431   2.389   2.539   7.201  0.7427  0.4251  0.5870
  118OSM    C7F12432   2.392   2.671   7.370  0.0673  0.0868  0.0851
  118OSM    H7F12433   2.459   2.603   7.427  1.7679  1.7314  0.1200
  118OSM    H7G12434   2.287   2.636   7.385  0.3943 -1.1117 -0.2954
  118OSM    C8F12435   2.385   2.818   7.425  0.6449  0.3055 -0.9295
  118OSM    H8F12436   2.332   2.821   7.522 -0.5059  1.1327 -1.5662
  118OSM    H8G12437   2.327   2.885   7.358  1.5339  0.8908 -1.1423
  118OSM    C9F12438   2.524   2.867   7.438 -0.5878  0.2071 -0.1025
  118OSM    H9F12439   2.572   2.897   7.344  4.2027 -0.0319  1.9310
  118OSM   C10F12440   2.593   2.891   7.554 -0.1835  0.2612 -0.1014
  118OSM   H10F12441   2.696   2.931   7.548 -0.2103  0.4431  0.5646
  118OSM   C11F12442   2.541   2.864   7.691 -0.1558 -0.6358 -0.9561
  118OSM   H11F12443   2.594   2.776   7.733  1.5962  0.9722  0.3618
  118OSM   H11G12444   2.434   2.835   7.680 -0.1081 -1.5502  0.6913
  118OSM   C12F12445   2.558   2.995   7.780  0.2981  0.0891  0.4517
  118OSM   H12F12446   2.478   3.064   7.745 -0.7708 -0.0023  2.5323
  118OSM   H12G12447   2.646   3.061   7.771 -1.1921  2.3930  1.7677
  118OSM   C13F12448   2.535   2.947   7.919  0.5633  0.6918  1.2652
  118OSM   H13F12449   2.626   2.900   7.961  1.3934  0.1470 -0.9703
  118OSM   H13G12450   2.464   2.862   7.916 -0.0168  1.1839  0.3220
  118OSM   C14F12451   2.490   3.062   8.007  1.0991  0.7077 -0.1562
  118OSM   H14F12452   2.384   3.085   7.983  1.0431  0.1302 -0.4759
  118OSM   H14G12453   2.557   3.151   8.003  1.2190  0.5726 -1.5057
  118OSM   C15F12454   2.480   3.011   8.149 -0.3028 -0.2785  0.3156
  118OSM   H15F12455   2.569   2.952   8.179  0.2581 -0.4702 -1.5993
  118OSM   H15G12456   2.397   2.938   8.151  0.6732 -1.4024  1.3321
  118OSM   C16F12457   2.448   3.110   8.253  0.4530 -0.1269 -0.2584
  118OSM   H16F12458   2.428   3.055   8.348 -3.5894  2.5446  0.7365
  118OSM   H16G12459   2.352   3.158   8.225  0.4343 -0.9479 -1.7120
  118OSM   C17F12460   2.551   3.220   8.291  0.1281  0.4615  0.0639
  118OSM   H17F12461   2.572   3.283   8.202 -1.5595  1.0009  0.0223
  118OSM   H17G12462   2.647   3.169   8.318 -0.1618  0.0484  0.3260
  118OSM   C18F12463   2.503   3.311   8.407 -0.3312 -0.2983  0.5351
  118OSM   H18F12464   2.447   3.254   8.485 -1.2456  1.2183  1.0392
  118OSM   H18G12465   2.417   3.371   8.370 -0.2907 -0.6026 -0.0635
  118OSM   H18H12466   2.589   3.365   8.451  0.2182 -0.6433 -0.1101
  119OSM      N12467   4.231   1.862   5.705 -0.2760  0.2404 -0.6343
  119OSM    C1512468   4.269   1.745   5.624 -0.4572  0.5588  0.1221
  119OSM   H15A12469   4.376   1.737   5.622 -0.5820 -1.6870 -0.0006
  119OSM   H15B12470   4.237   1.755   5.521  0.7093 -2.2046 -0.5996
  119OSM   H15C12471   4.219   1.653   5.652 -0.2631 -0.0846 -1.4787
  119OSM    C1412472   4.080   1.884   5.687 -0.0997 -0.3898  0.0266
  119OSM   H14A12473   4.035   1.947   5.762 -0.0578 -0.1316 -0.1651
  119OSM   H14B12474   4.028   1.789   5.693 -1.7104  0.4895  0.5226
  119OSM   H14C12475   4.053   1.911   5.587  0.3220  1.3098  0.3403
  119OSM    C1312476   4.267   1.832   5.846  0.0946  0.1889 -0.4525
  119OSM   H13A12477   4.375   1.826   5.858 -0.1460 -0.3203  2.1109
  119OSM   H13B12478   4.231   1.733   5.871 -1.2058  1.2691  2.4244
  119OSM   H13C12479   4.227   1.904   5.916  0.2416 -0.8638  0.7441
  119OSM    C1212480   4.304   1.985   5.661 -0.1085 -0.0377 -0.3042
  119OSM   H12A12481   4.264   2.064   5.723 -2.5283  1.7679 -3.8737
  119OSM   H12B12482   4.271   2.023   5.566  1.8341  2.7134 -0.0185
  119OSM    C1112483   4.455   1.984   5.659 -0.7604  0.3671  0.2612
  119OSM   H11A12484   4.495   2.066   5.597  0.2454 -0.2055  0.1403
  119OSM   H11B12485   4.484   1.899   5.594  2.3190  1.6363 -0.1610
  119OSM      P12486   4.536   2.108   5.876  0.3262  0.3789  0.5330
  119OSM    O1312487   4.635   2.088   5.982  0.2672 -0.0144  0.5551
  119OSM    O1412488   4.569   2.221   5.792 -0.4735 -0.5960 -0.1569
  119OSM    O1112489   4.391   2.136   5.933  0.0741  0.0029 -0.1801
  119OSM    O1212490   4.521   1.982   5.788  0.6965  0.0700  0.1081
  119OSM    C1S12491   4.352   2.122   6.070 -0.1598 -0.0040  0.4248
  119OSM    H1S12492   4.435   2.144   6.140 -1.4994  0.7883  1.8194
  119OSM    H1T12493   4.309   2.020   6.085  1.4941 -0.6761  0.8067
  119OSM     NF12494   4.200   2.222   6.248  0.1149 -0.2584 -0.1057
  119OSM    HNF12495   4.126   2.163   6.278  0.3304 -0.1125  0.7315
  119OSM    C2S12496   4.239   2.222   6.110  0.8248 -0.4050  0.2072
  119OSM    H2S12497   4.286   2.322   6.092 -1.0662  0.6167  0.7013
  119OSM    C3S12498   4.112   2.211   6.022  0.4418  0.4600 -0.7325
  119OSM    H3S12499   4.069   2.116   6.059  1.0042  0.0188 -1.1959
  119OSM     O312500   4.134   2.197   5.883 -0.3642  0.0173 -0.3727
  119OSM    HO312501   4.230   2.190   5.886 -0.3935  0.0014  0.9648
  119OSM    C4S12502   4.017   2.328   6.043 -0.0100  1.1197 -0.1117
  119OSM    H4S12503   3.934   2.294   6.107  0.1505  0.8838 -0.0287
  119OSM    C5S12504   4.017   2.454   6.007  0.0900 -0.4224 -0.0814
  119OSM    H5S12505   4.104   2.496   5.953  0.6574  0.0105  1.1349
  119OSM    C6S12506   3.911   2.556   6.051 -0.4774 -0.3124  0.0218
  119OSM    H6S12507   3.819   2.504   6.087 -0.2353 -0.1375  0.8976
  119OSM    H6T12508   3.903   2.632   5.970  1.6658  1.8786  1.7317
  119OSM    C7S12509   3.955   2.645   6.177 -0.6568  0.4277 -1.0754
  119OSM    H7S12510   4.041   2.712   6.158 -0.4867  1.1771  1.8337
  119OSM    H7T12511   3.994   2.576   6.255 -0.7168  0.5746 -0.9150
  119OSM    C8S12512   3.844   2.739   6.229 -0.2203  0.4443 -0.2189
  119OSM    H8S12513   3.749   2.684   6.243 -0.2419  0.6002  0.2519
  119OSM    H8T12514   3.824   2.815   6.151 -0.9100  0.2200 -0.2696
  119OSM    C9S12515   3.878   2.812   6.367 -0.0455  0.1345  0.5534
  119OSM    H9S12516   3.949   2.895   6.345 -1.4718  1.0107 -1.0024
  119OSM    H9T12517   3.918   2.738   6.440 -0.5081 -0.5163  0.1506
  119OSM   C10S12518   3.752   2.888   6.425 -0.4019  0.0850  0.4465
  119OSM   H10S12519   3.677   2.806   6.438 -0.4860 -0.2662 -1.7869
  119OSM   H10T12520   3.708   2.952   6.345 -0.9397 -0.8110 -0.0072
  119OSM   C11S12521   3.761   2.955   6.559 -0.4426 -0.2602  0.4710
  119OSM   H11S12522   3.666   2.998   6.595 -2.3563 -1.3614 -2.7966
  119OSM   H11T12523   3.832   3.037   6.536  1.4974 -1.6052  1.3212
  119OSM   C12S12524   3.817   2.871   6.678  0.0888 -0.7557 -0.3183
  119OSM   H12S12525   3.923   2.840   6.664  0.5795  0.2590  1.0092
  119OSM   H12T12526   3.749   2.784   6.696 -2.3193  1.4021  1.8725
  119OSM   C13S12527   3.807   2.948   6.812 -0.2125 -0.2883 -0.1244
  119OSM   H13S12528   3.715   3.010   6.815  0.2113  0.3078  2.3170
  119OSM   H13T12529   3.896   3.014   6.814  0.3529 -1.0229 -0.7206
  119OSM   C14S12530   3.807   2.852   6.931 -0.4019 -0.5674 -0.1342
  119OSM   H14S12531   3.879   2.773   6.901 -0.2899 -0.4409 -0.2010
  119OSM   H14T12532   3.708   2.802   6.934  0.5225 -2.4887  3.1282
  119OSM   C15S12533   3.818   2.911   7.071 -0.0915 -0.1522 -0.4612
  119OSM   H15S12534   3.765   3.009   7.066  2.2129  1.1022 -1.5051
  119OSM   H15T12535   3.922   2.939   7.098  0.5158 -0.3614 -2.4292
  119OSM   C16S12536   3.766   2.812   7.181 -0.3942 -0.5168 -0.4574
  119OSM   H16S12537   3.819   2.718   7.206  0.7524 -0.2821 -1.8476
  119OSM   H16T12538   3.662   2.784   7.156 -1.1654 -0.2930  2.1995
  119OSM   C17S12539   3.751   2.888   7.310 -0.3010  0.3872  0.5335
  119OSM   H17S12540   3.669   2.962   7.297 -0.0116  0.8214  1.1303
  119OSM   H17T12541   3.847   2.943   7.324  0.3013 -1.1922  3.3034
  119OSM   C18S12542   3.699   2.805   7.427 -0.3386  0.2313  0.4426
  119OSM   H18S12543   3.785   2.754   7.477 -0.4073  0.0214  0.3488
  119OSM   H18T12544   3.619   2.743   7.382 -1.5402  1.4349  0.8666
  119OSM   H18U12545   3.642   2.864   7.502 -1.2430  0.5004 -0.4450
  119OSM    C1F12546   4.290   2.253   6.346 -0.0402 -0.1439  0.5174
  119OSM     OF12547   4.390   2.319   6.319  0.1219  0.2993  0.0709
  119OSM    C2F12548   4.264   2.195   6.475 -0.6335 -0.0881  0.3674
  119OSM    H2F12549   4.170   2.135   6.469  0.3064 -1.5611 -0.1371
  119OSM    H2G12550   4.240   2.283   6.539  0.9197  0.5479  0.1002
  119OSM    C3F12551   4.391   2.128   6.525  0.1245  0.3065 -0.4438
  119OSM    H3F12552   4.488   2.159   6.480  1.4715 -3.4765 -0.5520
  119OSM    H3G12553   4.403   2.021   6.497  0.7390 -0.0222  0.9669
  119OSM    C4F12554   4.387   2.121   6.678 -0.0023 -0.2288 -0.6858
  119OSM    H4F12555   4.292   2.077   6.715  0.0233 -0.0593 -0.4091
  119OSM    H4G12556   4.394   2.220   6.729  0.5572 -1.5876  2.0655
  119OSM    C5F12557   4.512   2.045   6.716 -0.7743 -0.1545  0.8845
  119OSM    H5F12558   4.608   2.065   6.664 -1.9794 -0.1205 -1.4262
  119OSM    H5G12559   4.501   1.937   6.689 -1.4234 -0.6122  2.7643
  119OSM    C6F12560   4.530   2.037   6.871  0.4912  0.1291  0.3558
  119OSM    H6F12561   4.450   1.987   6.930 -0.4849  0.1799 -0.8975
  119OSM    H6G12562   4.543   2.138   6.914 -0.4393  1.9765 -3.3241
  119OSM    C7F12563   4.662   1.965   6.910 -0.1940  0.1839 -0.4005
  119OSM    H7F12564   4.655   1.869   6.854  0.1731 -0.7409  1.1058
  119OSM    H7G12565   4.654   1.939   7.017 -1.2532  0.1079 -0.4786
  119OSM    C8F12566   4.799   2.026   6.883  0.1623 -0.4235  0.1231
  119OSM    H8F12567   4.803   2.122   6.939  1.4706  1.4366 -2.9159
  119OSM    H8G12568   4.811   2.030   6.772  0.4366 -2.1543  0.0643
  119OSM    C9F12569   4.911   1.922   6.921  0.0059  0.1220 -0.2669
  119OSM    H9F12570   4.955   1.878   6.831  0.6537  2.3192 -1.0804
  119OSM   C10F12571   4.972   1.911   7.044  0.3080  0.5170 -0.7338
  119OSM   H10F12572   5.047   1.833   7.063  0.3196 -0.1922 -3.3555
  119OSM   C11F12573   4.935   1.996   7.162 -0.3405  0.1150  0.0632
  119OSM   H11F12574   4.861   2.074   7.134 -3.3326 -1.5845  2.6435
  119OSM   H11G12575   5.028   2.048   7.197 -1.2280  1.2460  0.8147
  119OSM   C12F12576   4.855   1.928   7.278 -0.0965  0.3212  0.0495
  119OSM   H12F12577   4.920   1.847   7.317 -2.2583 -2.1754 -1.2127
  119OSM   H12G12578   4.763   1.889   7.229  1.3089 -0.7675 -1.8293
  119OSM   C13F12579   4.820   2.026   7.388 -0.3677 -0.5759 -0.2664
  119OSM   H13F12580   4.757   2.111   7.352  3.8380  2.8188 -0.3461
  119OSM   H13G12581   4.915   2.076   7.417  0.5278 -1.6379 -1.2668
  119OSM   C14F12582   4.740   1.970   7.506 -0.1433 -0.9010 -0.3480
  119OSM   H14F12583   4.733   2.053   7.579 -4.3527 -1.3656  0.0075
  119OSM   H14G12584   4.797   1.887   7.553 -0.6122 -0.6829  0.6242
  119OSM   C15F12585   4.592   1.932   7.477  0.1461 -0.0704 -0.5522
  119OSM   H15F12586   4.594   1.835   7.424 -0.5835  1.2284 -3.1386
  119OSM   H15G12587   4.548   2.009   7.410 -1.5523  0.2441  0.8291
  119OSM   C16F12588   4.502   1.913   7.607  0.2414  0.0930 -0.1906
  119OSM   H16F12589   4.488   2.007   7.664 -2.3540 -0.6598  0.5554
  119OSM   H16G12590   4.561   1.849   7.675 -0.1579  0.8671  0.9039
  119OSM   C17F12591   4.363   1.858   7.570 -0.4954  0.0753 -0.4968
  119OSM   H17F12592   4.372   1.776   7.496 -2.0743  0.2898 -0.9826
  119OSM   H17G12593   4.310   1.946   7.527 -0.7546  0.3242  0.3151
  119OSM   C18F12594   4.293   1.803   7.696  0.0324 -0.5596  0.1234
  119OSM   H18F12595   4.324   1.697   7.708  1.9841 -0.0146  0.3046
  119OSM   H18G12596   4.185   1.814   7.671  0.0831 -2.3390 -1.0622
  119OSM   H18H12597   4.316   1.851   7.793 -1.5890 -1.9138  1.2351
  120OSM      N12598   1.972   0.462   6.222 -0.4036 -0.2757  0.6494
  120OSM    C1512599   1.920   0.417   6.091  0.3378  0.4999 -0.9188
  120OSM   H15A12600   1.987   0.350   6.040 -0.9889 -1.8444  0.2496
  120OSM   H15B12601   1.902   0.506   6.032  1.1679  2.7852  2.0806
  120OSM   H15C12602   1.830   0.362   6.114 -0.8489  3.2189  1.5817
  120OSM    C1412603   1.988   0.354   6.325  0.1773 -0.2324 -0.5628
  120OSM   H14A12604   2.025   0.389   6.420 -0.5813  1.6607 -0.9208
  120OSM   H14B12605   2.045   0.273   6.282  0.1848  0.2818 -1.5516
  120OSM   H14C12606   1.890   0.314   6.349  0.5062 -0.1626  1.0055
  120OSM    C1312607   2.111   0.513   6.191  0.2792 -0.2089 -0.0433
  120OSM   H13A12608   2.121   0.586   6.111  0.8306 -0.5997 -0.3364
  120OSM   H13B12609   2.179   0.433   6.168  0.6973  0.0550  0.2527
  120OSM   H13C12610   2.148   0.558   6.282  1.1524  0.5465 -0.7551
  120OSM    C1212611   1.865   0.563   6.269  0.3996  0.1387 -0.0765
  120OSM   H12A12612   1.869   0.639   6.192  3.4788 -1.6823 -1.9293
  120OSM   H12B12613   1.897   0.601   6.365  1.6716 -1.0402 -0.0017
  120OSM    C1112614   1.720   0.513   6.288  0.2100 -0.0860  0.0096
  120OSM   H11A12615   1.677   0.468   6.196 -1.8509  1.5638  0.0966
  120OSM   H11B12616   1.654   0.599   6.311 -0.5381 -0.6255 -0.0676
  120OSM      P12617   1.581   0.355   6.447  0.1078  0.0778  0.1100
  120OSM    O1312618   1.495   0.455   6.510  0.3515  0.5030 -0.7358
  120OSM    O1412619   1.519   0.285   6.333 -0.1960  0.1407  0.6238
  120OSM    O1112620   1.634   0.258   6.559  0.4414 -0.0360 -0.1369
  120OSM    O1212621   1.719   0.428   6.400 -0.3026 -0.4303 -0.6393
  120OSM    C1S12622   1.741   0.285   6.643  0.1326  0.2462 -0.4906
  120OSM    H1S12623   1.745   0.391   6.675 -2.2506  0.1408  0.3135
  120OSM    H1T12624   1.835   0.262   6.588  1.6058  2.3276  1.0179
  120OSM     NF12625   1.859   0.224   6.844  0.1409  0.7276  0.2192
  120OSM    HNF12626   1.935   0.161   6.838 -1.5403 -1.2827 -1.1583
  120OSM    C2S12627   1.742   0.195   6.764  1.1927  0.4806 -0.2016
  120OSM    H2S12628   1.648   0.213   6.821 -0.9565 -1.3992 -2.8365
  120OSM    C3S12629   1.746   0.040   6.730  0.1138  0.6626  0.4818
  120OSM    H3S12630   1.846   0.015   6.688 -0.0518  1.1771 -0.2583
  120OSM     O312631   1.646  -0.002   6.635 -0.0828 -0.8301  0.0834
  120OSM    HO312632   1.605   0.079   6.606 -1.6979 -1.6155  0.0582
  120OSM    C4S12633   1.724  -0.045   6.852  0.1841  0.2262  0.3057
  120OSM    H4S12634   1.616  -0.053   6.872 -0.0580 -2.0557 -1.4969
  120OSM    C5S12635   1.821  -0.111   6.918 -0.2398 -0.7511 -0.0107
  120OSM    H5S12636   1.926  -0.098   6.891  0.0815 -1.6116  0.7810
  120OSM    C6S12637   1.786  -0.185   7.042 -0.1449 -0.5867  0.5908
  120OSM    H6S12638   1.835  -0.285   7.045  0.9145 -0.1229 -0.5419
  120OSM    H6T12639   1.677  -0.205   7.048 -0.3163  0.6030  2.5472
  120OSM    C7S12640   1.828  -0.112   7.172  0.6113  0.1387 -0.1694
  120OSM    H7S12641   1.791  -0.171   7.258 -0.6529  0.9260 -0.1498
  120OSM    H7T12642   1.785  -0.010   7.175  1.8310  0.6918  3.6227
  120OSM    C8S12643   1.976  -0.100   7.179 -0.3001 -0.2065 -0.4866
  120OSM    H8S12644   2.021  -0.056   7.087  2.3623 -0.4395  0.6118
  120OSM    H8T12645   2.015  -0.204   7.181 -2.9537 -1.3301 -1.9877
  120OSM    C9S12646   2.018  -0.030   7.309 -0.0019 -0.2627 -0.7604
  120OSM    H9S12647   1.963   0.066   7.313 -0.8866 -0.7082 -1.6998
  120OSM    H9T12648   2.128  -0.013   7.306 -0.3750  3.2861  1.0483
  120OSM   C10S12649   1.992  -0.122   7.433  0.9465 -0.6997 -0.1750
  120OSM   H10S12650   2.037  -0.220   7.410 -3.2629 -2.3611 -2.3357
  120OSM   H10T12651   1.883  -0.137   7.448  1.0945 -0.8461  0.8796
  120OSM   C11S12652   2.047  -0.062   7.566  0.0149 -0.0330  0.6737
  120OSM   H11S12653   2.022   0.046   7.558  3.3142  0.6990 -3.3671
  120OSM   H11T12654   2.158  -0.068   7.570  0.1691  0.0562 -1.7848
  120OSM   C12S12655   1.990  -0.128   7.694  0.1599  0.2081  0.3209
  120OSM   H12S12656   2.044  -0.225   7.696  0.7736  0.4290 -2.1834
  120OSM   H12T12657   1.883  -0.155   7.684  0.2783 -0.2495  0.2757
  120OSM   C13S12658   2.036  -0.050   7.823 -0.1223  0.2006  0.0142
  120OSM   H13S12659   1.985   0.048   7.830 -0.0235  0.3170 -0.8564
  120OSM   H13T12660   2.146  -0.046   7.812 -0.1327 -0.3698 -0.3544
  120OSM   C14S12661   1.991  -0.131   7.947 -0.6215 -0.0877  0.5576
  120OSM   H14S12662   2.022  -0.235   7.924 -1.1148 -0.5549  1.8836
  120OSM   H14T12663   1.880  -0.135   7.953 -0.6071 -1.6430  0.1005
  120OSM   C15S12664   2.049  -0.082   8.076 -0.1521 -0.2365 -0.1117
  120OSM   H15S12665   1.986  -0.136   8.150 -1.5990  0.6341 -0.6790
  120OSM   H15T12666   2.034   0.027   8.093 -0.6266 -0.2812 -0.2318
  120OSM   C16S12667   2.196  -0.106   8.091 -0.5458  0.2177  0.2199
  120OSM   H16S12668   2.249  -0.067   8.002 -0.8073 -0.7732 -0.3861
  120OSM   H16T12669   2.215  -0.216   8.095  2.4669  0.6494  0.0008
  120OSM   C17S12670   2.256  -0.041   8.206 -0.5986  0.4051 -0.4733
  120OSM   H17S12671   2.256   0.069   8.187  2.2858  0.2362 -1.9364
  120OSM   H17T12672   2.362  -0.072   8.197 -0.7247  0.0086 -0.6003
  120OSM   C18S12673   2.208  -0.081   8.346 -0.3490  0.0371 -0.6289
  120OSM   H18S12674   2.260  -0.020   8.424 -1.5104 -0.4769  0.5855
  120OSM   H18T12675   2.212  -0.190   8.365 -1.9019  0.0316 -0.2124
  120OSM   H18U12676   2.098  -0.068   8.356 -0.2480 -0.1882  0.9699
  120OSM    C1F12677   1.869   0.334   6.914  0.1060 -0.5663  0.3135
  120OSM     OF12678   1.768   0.401   6.934  0.7245 -0.3671 -0.2852
  120OSM    C2F12679   2.004   0.376   6.962 -0.6643 -0.3244  0.1496
  120OSM    H2F12680   2.067   0.402   6.874  0.1957  1.3357  1.1962
  120OSM    H2G12681   2.045   0.289   7.019 -0.3920 -1.9244 -2.3381
  120OSM    C3F12682   1.994   0.499   7.064 -0.5394  0.5459 -0.0659
  120OSM    H3F12683   1.922   0.502   7.149  1.3902  3.6445  1.6806
  120OSM    H3G12684   1.979   0.596   7.013  0.7048  0.0741 -1.3794
  120OSM    C4F12685   2.134   0.509   7.130 -0.8760 -0.3826 -0.2638
  120OSM    H4F12686   2.146   0.607   7.182 -0.4278 -0.2603 -0.5889
  120OSM    H4G12687   2.222   0.499   7.062 -0.0975  0.3361  0.6015
  120OSM    C5F12688   2.138   0.398   7.240  0.6634 -0.3907 -0.1610
  120OSM    H5F12689   2.189   0.306   7.204  3.2098  0.3944  1.2274
  120OSM    H5G12690   2.033   0.371   7.263  1.0591 -0.9601  1.0738
  120OSM    C6F12691   2.206   0.457   7.371 -0.0497 -0.3145  0.0115
  120OSM    H6F12692   2.164   0.557   7.392 -0.2552 -0.0015 -1.7534
  120OSM    H6G12693   2.313   0.478   7.351 -0.5524  2.1980 -0.2693
  120OSM    C7F12694   2.191   0.368   7.488 -0.4294  0.1563 -0.6838
  120OSM    H7F12695   2.278   0.384   7.555  0.4778  0.2925 -1.8714
  120OSM    H7G12696   2.189   0.263   7.451 -0.5431 -0.7115  1.6334
  120OSM    C8F12697   2.071   0.392   7.579 -0.4482 -0.0520 -0.3737
  120OSM    H8F12698   1.977   0.358   7.531 -0.6784 -1.0901  0.7619
  120OSM    H8G12699   2.065   0.496   7.616  0.1278 -0.2501  0.3038
  120OSM    C9F12700   2.091   0.295   7.692  0.1000  0.2447 -0.1853
  120OSM    H9F12701   2.122   0.197   7.653 -0.7969  0.2589 -0.9740
  120OSM   C10F12702   2.100   0.319   7.827 -0.0975 -0.6818 -0.1934
  120OSM   H10F12703   2.119   0.238   7.900  0.1966 -0.4266  0.0157
  120OSM   C11F12704   2.081   0.458   7.887  1.0779 -0.5422  0.0288
  120OSM   H11F12705   2.014   0.451   7.976 -0.2978 -1.6333 -1.0327
  120OSM   H11G12706   2.037   0.528   7.813 -1.6077 -1.7234  0.3892
  120OSM   C12F12707   2.214   0.513   7.921  0.0501  0.6002  0.1338
  120OSM   H12F12708   2.273   0.545   7.832  0.8940 -1.7532 -0.2328
  120OSM   H12G12709   2.280   0.442   7.975 -0.9603 -0.5382 -0.0903
  120OSM   C13F12710   2.194   0.633   8.015 -0.1007 -0.7983  0.4571
  120OSM   H13F12711   2.109   0.699   7.990 -0.5145 -0.9191  1.5074
  120OSM   H13G12712   2.282   0.701   8.006 -0.9515  0.3662  0.6794
  120OSM   C14F12713   2.196   0.586   8.159  0.3625  0.1916  0.1632
  120OSM   H14F12714   2.289   0.531   8.185 -0.8282 -1.8518  0.2700
  120OSM   H14G12715   2.118   0.507   8.163  1.9406 -1.3889  1.3391
  120OSM   C15F12716   2.149   0.693   8.253 -0.1301  0.3743 -0.7123
  120OSM   H15F12717   2.039   0.700   8.243 -0.3129  0.9661  1.1866
  120OSM   H15G12718   2.188   0.797   8.248  0.1058  0.5156  2.1980
  120OSM   C16F12719   2.168   0.650   8.400  0.2290 -0.4617  0.4798
  120OSM   H16F12720   2.278   0.640   8.413  0.4965  1.9364  0.3949
  120OSM   H16G12721   2.115   0.552   8.408 -2.4212  0.7744 -0.7687
  120OSM   C17F12722   2.112   0.753   8.503  0.5967  0.7086 -0.0938
  120OSM   H17F12723   2.011   0.787   8.470 -0.4010  0.2914  2.3519
  120OSM   H17G12724   2.187   0.834   8.515 -1.2637  2.1840  2.4805
  120OSM   C18F12725   2.092   0.691   8.640  0.0215 -0.7689  0.1549
  120OSM   H18F12726   2.044   0.776   8.694 -0.1846 -1.1735  0.6092
  120OSM   H18G12727   2.190   0.680   8.691  1.3462  0.8933 -1.8850
  120OSM   H18H12728   2.023   0.604   8.647 -1.3534  0.3306  1.0401
  121OSM      N12729   1.731   1.558   6.067 -0.0668  0.3807 -0.2275
  121OSM    C1512730   1.725   1.712   6.047  0.4561 -0.0476  0.6830
  121OSM   H15A12731   1.747   1.761   6.141 -1.2807 -0.8892  1.5923
  121OSM   H15B12732   1.625   1.730   6.009 -0.5696 -3.7715  1.1771
  121OSM   H15C12733   1.803   1.738   5.977  0.7214 -0.4378  0.8299
  121OSM    C1412734   1.650   1.516   6.184  0.6970  0.1396  0.3049
  121OSM   H14A12735   1.659   1.412   6.210 -2.4805 -0.4595 -0.4678
  121OSM   H14B12736   1.544   1.527   6.162  1.1728  0.4413 -2.0727
  121OSM   H14C12737   1.672   1.584   6.264  0.3066  0.4469  0.1577
  121OSM    C1312738   1.667   1.495   5.950  0.6390 -0.4800  0.8618
  121OSM   H13A12739   1.560   1.509   5.947  0.0796 -3.9960  0.3367
  121OSM   H13B12740   1.674   1.387   5.952  1.6139 -0.4272  0.7289
  121OSM   H13C12741   1.712   1.524   5.857  2.1850  1.1416  2.0385
  121OSM    C1212742   1.881   1.518   6.079  0.1914  0.0750  0.7257
  121OSM   H12A12743   1.941   1.571   6.006  2.7440 -2.6183  0.7022
  121OSM   H12B12744   1.887   1.411   6.065 -0.1938 -0.2732  2.9020
  121OSM    C1112745   1.944   1.536   6.221  0.2823 -0.1365 -0.5322
  121OSM   H11A12746   1.942   1.644   6.247  1.5512  0.1105 -1.3567
  121OSM   H11B12747   2.052   1.510   6.220  0.5963  1.0938 -1.0830
  121OSM      P12748   1.942   1.332   6.389  0.5116 -0.0418 -0.4286
  121OSM    O1312749   1.829   1.257   6.448  0.7975  0.3487  0.0079
  121OSM    O1412750   2.025   1.248   6.293  0.4409 -0.5380 -0.2220
  121OSM    O1112751   2.038   1.393   6.494  0.6849  0.1202 -0.9119
  121OSM    O1212752   1.882   1.456   6.314  0.0101 -0.2478 -0.7976
  121OSM    C1S12753   2.018   1.504   6.578  0.2873 -0.5601  0.3765
  121OSM    H1S12754   1.930   1.566   6.551  1.8985  0.9807 -1.6657
  121OSM    H1T12755   2.098   1.575   6.548 -0.4450 -0.4194 -1.3523
  121OSM     NF12756   2.010   1.590   6.809  0.1239  0.2013  0.5339
  121OSM    HNF12757   2.100   1.628   6.830  0.2092 -0.9132  2.4561
  121OSM    C2S12758   2.020   1.469   6.731  0.4493 -0.5170 -0.1490
  121OSM    H2S12759   1.932   1.405   6.756  0.8375 -1.2850 -0.7068
  121OSM    C3S12760   2.145   1.379   6.777 -0.2723 -0.2674 -0.5148
  121OSM    H3S12761   2.236   1.442   6.782 -0.4427 -0.0751  0.2702
  121OSM     O312762   2.179   1.280   6.683  0.3139  0.8119  0.4178
  121OSM    HO312763   2.111   1.284   6.616  0.6383  1.6352  0.1300
  121OSM    C4S12764   2.126   1.319   6.907 -0.3065  0.9561 -0.2409
  121OSM    H4S12765   2.178   1.363   6.994 -0.0137 -1.3791  0.8526
  121OSM    C5S12766   2.055   1.212   6.948  0.2094  0.1815 -0.3397
  121OSM    H5S12767   1.982   1.161   6.885 -1.7854 -0.5783  2.3933
  121OSM    C6S12768   2.053   1.178   7.093 -0.4728 -0.8270 -0.4099
  121OSM    H6S12769   1.948   1.162   7.125 -0.1468 -0.4987  0.8596
  121OSM    H6T12770   2.092   1.258   7.160 -1.0702 -1.3461  0.5705
  121OSM    C7S12771   2.135   1.045   7.137  0.3665  0.0931 -0.1313
  121OSM    H7S12772   2.242   1.051   7.108  1.2907 -0.5548  2.8179
  121OSM    H7T12773   2.094   0.964   7.072 -0.7926  0.3502  0.2557
  121OSM    C8S12774   2.115   0.994   7.282 -0.4242  0.3479  0.6215
  121OSM    H8S12775   2.166   0.896   7.293 -0.7837  0.1969  0.9614
  121OSM    H8T12776   2.011   0.966   7.309 -0.5587  1.1308  0.9261
  121OSM    C9S12777   2.161   1.096   7.387 -0.3454 -0.0709  0.2373
  121OSM    H9S12778   2.106   1.191   7.373 -1.0818 -0.7223 -1.7981
  121OSM    H9T12779   2.271   1.110   7.379 -0.3215  0.6077  1.5835
  121OSM   C10S12780   2.127   1.062   7.527  0.3434  0.8470 -0.1154
  121OSM   H10S12781   2.181   0.974   7.566 -0.6397  0.7313  1.0172
  121OSM   H10T12782   2.019   1.036   7.531  0.2687  1.1860  0.1285
  121OSM   C11S12783   2.144   1.175   7.624 -0.4102  0.5966  0.3651
  121OSM   H11S12784   2.101   1.268   7.580 -0.9942 -0.4032 -1.2543
  121OSM   H11T12785   2.252   1.194   7.638  0.1637 -0.0926 -2.5579
  121OSM   C12S12786   2.083   1.149   7.756  0.3510 -0.2647  0.0013
  121OSM   H12S12787   2.126   1.053   7.792  1.8672  0.4412  0.1789
  121OSM   H12T12788   1.973   1.154   7.747  0.2698  2.2580  1.3692
  121OSM   C13S12789   2.132   1.258   7.857  0.4305  0.0021  0.6125
  121OSM   H13S12790   2.108   1.361   7.823 -2.5505 -0.8770 -0.2814
  121OSM   H13T12791   2.242   1.254   7.870  0.9545  0.7534 -2.8090
  121OSM   C14S12792   2.073   1.248   7.997 -0.3082  0.5008  0.4540
  121OSM   H14S12793   2.120   1.168   8.056  1.7365  1.2304 -0.0943
  121OSM   H14T12794   1.966   1.218   7.993 -0.2867  0.3578  0.9432
  121OSM   C15S12795   2.071   1.383   8.072 -0.3880 -0.5575 -0.5729
  121OSM   H15S12796   1.978   1.433   8.037  1.2637  2.0082 -1.5613
  121OSM   H15T12797   2.152   1.450   8.037 -0.7136  0.5175  0.6431
  121OSM   C16S12798   2.073   1.376   8.226  0.1680  0.1464  0.3120
  121OSM   H16S12799   2.179   1.357   8.254  0.4661 -0.3862 -1.0788
  121OSM   H16T12800   2.004   1.295   8.255  2.4922 -1.8810  0.4527
  121OSM   C17S12801   2.015   1.505   8.285  0.7129 -0.0524  0.3310
  121OSM   H17S12802   1.932   1.524   8.214 -0.0872 -3.4358  0.1757
  121OSM   H17T12803   2.091   1.586   8.280  0.3698  0.1955 -1.7892
  121OSM   C18S12804   1.976   1.480   8.435  0.3207  0.3214  0.2442
  121OSM   H18S12805   1.917   1.573   8.448 -4.4495 -1.9507 -2.3585
  121OSM   H18T12806   2.061   1.460   8.504  2.0447 -0.6696 -2.0136
  121OSM   H18U12807   1.917   1.386   8.441  1.1233 -0.3044 -1.2201
  121OSM    C1F12808   1.900   1.662   6.825  0.5055  0.0209 -1.2481
  121OSM     OF12809   1.803   1.656   6.755  0.4922  0.1342  0.2133
  121OSM    C2F12810   1.917   1.772   6.923 -0.7198  0.4041 -0.1914
  121OSM    H2F12811   1.952   1.864   6.870 -2.3022  1.4877  0.5958
  121OSM    H2G12812   1.984   1.733   7.002 -0.5405  0.1905 -0.4446
  121OSM    C3F12813   1.786   1.809   6.992 -0.4467 -0.4843 -0.7402
  121OSM    H3F12814   1.740   1.731   7.057 -0.0382  1.7353  2.4487
  121OSM    H3G12815   1.707   1.841   6.922 -2.2657 -0.0422  1.3841
  121OSM    C4F12816   1.825   1.921   7.095 -0.0167 -0.8860  0.6798
  121OSM    H4F12817   1.868   2.003   7.034  0.4680 -1.9719 -0.4838
  121OSM    H4G12818   1.909   1.880   7.153  0.4849 -3.9034 -1.9105
  121OSM    C5F12819   1.709   1.953   7.182  0.2900 -0.1994 -0.5172
  121OSM    H5F12820   1.699   1.870   7.255 -1.2725  0.9504  0.6358
  121OSM    H5G12821   1.614   1.965   7.126 -0.2091 -0.8396  0.1686
  121OSM    C6F12822   1.738   2.067   7.286 -0.0742 -0.3217  0.6562
  121OSM    H6F12823   1.649   2.079   7.351 -0.1061 -3.3097  1.3235
  121OSM    H6G12824   1.757   2.159   7.227 -2.2338  0.1611  0.6453
  121OSM    C7F12825   1.844   2.020   7.390  0.0270 -0.0570  0.0590
  121OSM    H7F12826   1.939   1.996   7.337  1.0370  0.5892  1.5240
  121OSM    H7G12827   1.813   1.926   7.440 -0.3801  0.3194  0.5286
  121OSM    C8F12828   1.863   2.124   7.498 -0.3599 -0.1478 -0.1980
  121OSM    H8F12829   1.767   2.169   7.532  0.8027  0.0592  3.1658
  121OSM    H8G12830   1.923   2.198   7.441 -1.0810 -0.6991 -1.7345
  121OSM    C9F12831   1.948   2.087   7.618  0.6900  0.0466 -1.0602
  121OSM    H9F12832   2.054   2.067   7.596  0.6066 -1.1836 -0.4244
  121OSM   C10F12833   1.900   2.065   7.745  0.0963 -0.4194 -0.5149
  121OSM   H10F12834   1.968   2.019   7.818 -1.7827 -1.2113  0.8088
  121OSM   C11F12835   1.759   2.080   7.793  0.3091  0.1500 -0.4803
  121OSM   H11F12836   1.710   1.982   7.812 -1.5898  0.8881 -1.3187
  121OSM   H11G12837   1.691   2.124   7.717 -2.7632 -0.9981  1.3988
  121OSM   C12F12838   1.754   2.162   7.917  0.0788  0.4818  0.7201
  121OSM   H12F12839   1.649   2.196   7.917 -0.1634 -0.1805  2.1095
  121OSM   H12G12840   1.807   2.259   7.925 -1.1953  1.4083 -1.5317
  121OSM   C13F12841   1.771   2.081   8.047  0.0540 -0.6627 -0.8312
  121OSM   H13F12842   1.753   2.149   8.133  2.0712 -0.7628 -0.2790
  121OSM   H13G12843   1.875   2.041   8.050  0.6055  0.7825  0.3314
  121OSM   C14F12844   1.683   1.954   8.062  0.0131 -0.3537  0.3813
  121OSM   H14F12845   1.736   1.881   7.997 -0.1833  0.5311 -0.8160
  121OSM   H14G12846   1.581   1.971   8.023  0.4377 -2.8400 -2.1639
  121OSM   C15F12847   1.675   1.893   8.197  0.5335  0.4875 -0.5904
  121OSM   H15F12848   1.580   1.918   8.247  1.7095  0.3080  1.8542
  121OSM   H15G12849   1.756   1.935   8.261 -0.3844 -1.2516  1.8587
  121OSM   C16F12850   1.683   1.739   8.200 -0.2933  0.0074  0.3025
  121OSM   H16F12851   1.672   1.711   8.307 -1.9285 -3.2355 -0.5828
  121OSM   H16G12852   1.782   1.704   8.164  1.5804  3.4460  1.5939
  121OSM   C17F12853   1.577   1.669   8.115 -0.3650  1.0669  0.0253
  121OSM   H17F12854   1.603   1.670   8.007  0.6533  0.1273  0.2513
  121OSM   H17G12855   1.477   1.717   8.108 -1.1491 -0.3521  1.0379
  121OSM   C18F12856   1.529   1.524   8.167  0.1918 -0.6860 -0.1076
  121OSM   H18F12857   1.442   1.478   8.117 -0.2857 -1.8859  1.7182
  121OSM   H18G12858   1.496   1.523   8.273  1.3098 -0.1118  0.2618
  121OSM   H18H12859   1.618   1.458   8.160  1.2151  0.4415  1.4591
  122OSM      N12860   0.549   1.812   6.041 -0.0007  0.2277  0.0908
  122OSM    C1512861   0.454   1.820   5.926 -0.0289 -0.1165  0.2410
  122OSM   H15A12862   0.511   1.861   5.844  0.1499  0.6631  0.7393
  122OSM   H15B12863   0.378   1.895   5.942  0.5379  0.5884 -0.3187
  122OSM   H15C12864   0.415   1.723   5.899 -0.0306  0.3602 -1.6107
  122OSM    C1412865   0.482   1.768   6.168 -0.3359  0.4691 -0.2017
  122OSM   H14A12866   0.396   1.830   6.186 -0.8317 -0.1777 -0.2791
  122OSM   H14B12867   0.550   1.780   6.251 -0.3979 -0.7881  0.0512
  122OSM   H14C12868   0.452   1.664   6.176  4.2351 -1.2301 -2.0542
  122OSM    C1312869   0.647   1.702   6.002 -0.2499 -0.1748 -0.1259
  122OSM   H13A12870   0.733   1.689   6.066  1.1163 -0.1753 -1.8661
  122OSM   H13B12871   0.669   1.704   5.896  0.3113 -1.7450 -0.0565
  122OSM   H13C12872   0.598   1.608   6.019  0.0418  0.1041  2.6617
  122OSM    C1212873   0.623   1.943   6.064  0.5185 -0.6237  0.0327
  122OSM   H12A12874   0.555   2.013   6.109  1.8839 -0.1792  1.4989
  122OSM   H12B12875   0.661   1.979   5.969 -1.7851  1.3615 -0.2125
  122OSM    C1112876   0.739   1.936   6.170 -0.2476 -0.0343  0.2878
  122OSM   H11A12877   0.698   1.888   6.261 -0.7513 -1.8120 -0.8229
  122OSM   H11B12878   0.757   2.041   6.200  0.6901 -0.2327  0.4410
  122OSM      P12879   0.973   1.818   6.202 -0.0387 -0.4251  0.1480
  122OSM    O1312880   0.949   1.679   6.244  0.4201  0.5634 -0.6490
  122OSM    O1412881   1.096   1.840   6.126  0.1966  0.0460 -0.0425
  122OSM    O1112882   0.966   1.919   6.326 -0.4210  0.1773 -0.2393
  122OSM    O1212883   0.857   1.874   6.113  0.5664  0.8139  0.2160
  122OSM    C1S12884   1.080   1.942   6.413 -0.1371  0.2718 -0.0179
  122OSM    H1S12885   1.139   2.026   6.369  1.5860 -1.4380 -1.1044
  122OSM    H1T12886   1.141   1.850   6.426 -2.3907 -1.1162  1.4217
  122OSM     NF12887   1.164   2.007   6.637 -0.1168  0.0753  0.2225
  122OSM    HNF12888   1.191   1.952   6.715  1.1256  0.7345  0.2704
  122OSM    C2S12889   1.049   1.988   6.559  0.5279  1.0119 -0.6867
  122OSM    H2S12890   0.999   2.088   6.560 -0.5870  0.4966 -1.5832
  122OSM    C3S12891   0.942   1.896   6.631  0.0215  0.1614  0.4656
  122OSM    H3S12892   0.991   1.797   6.646  1.9985  1.0462  0.2176
  122OSM     O312893   0.824   1.876   6.554 -0.0699 -0.0466  0.3434
  122OSM    HO312894   0.842   1.937   6.482  0.3879  0.2178  0.6746
  122OSM    C4S12895   0.905   1.961   6.758 -0.2996  0.0298  0.1973
  122OSM    H4S12896   0.853   2.058   6.745  0.1508  0.3564  0.7530
  122OSM    C5S12897   0.919   1.912   6.887 -0.8800  0.0457  0.1681
  122OSM    H5S12898   0.971   1.816   6.901  0.2922  0.3416 -1.6899
  122OSM    C6S12899   0.881   1.988   7.006 -0.3183  0.3260  0.6705
  122OSM    H6S12900   0.937   1.940   7.089  0.2855  1.4211  0.9242
  122OSM    H6T12901   0.772   1.974   7.023 -0.0361 -1.9889  0.8056
  122OSM    C7S12902   0.902   2.139   7.016 -0.4024  0.0061 -0.6590
  122OSM    H7S12903   0.850   2.194   6.934  1.5231 -0.0718 -2.0178
  122OSM    H7T12904   1.012   2.155   7.009 -0.6796  1.8657 -1.4053
  122OSM    C8S12905   0.855   2.200   7.154 -0.1995 -0.8465 -0.2986
  122OSM    H8S12906   0.889   2.134   7.235  0.4140  0.2658  0.3651
  122OSM    H8T12907   0.745   2.216   7.151  0.1078  1.6927 -0.6213
  122OSM    C9S12908   0.918   2.344   7.155 -0.5285 -0.0662  0.2038
  122OSM    H9S12909   0.890   2.404   7.067 -0.7430  0.3024  0.5214
  122OSM    H9T12910   1.029   2.335   7.164 -0.7277 -3.5864  0.6962
  122OSM   C10S12911   0.864   2.426   7.274 -0.4153 -0.3309 -0.1668
  122OSM   H10S12912   0.753   2.426   7.270 -0.4496 -3.2098 -1.3316
  122OSM   H10T12913   0.895   2.533   7.269 -1.3946 -0.0847 -1.5737
  122OSM   C11S12914   0.901   2.374   7.413  0.1336  0.3597  0.1126
  122OSM   H11S12915   1.012   2.364   7.411  0.0454 -0.8587  0.4906
  122OSM   H11T12916   0.873   2.267   7.420  1.5651 -0.0741 -0.4505
  122OSM   C12S12917   0.859   2.469   7.524  0.7524  0.1758  0.7405
  122OSM   H12S12918   0.887   2.576   7.512  0.3603  0.1249 -0.7287
  122OSM   H12T12919   0.901   2.443   7.624 -0.9459  0.7542  1.6470
  122OSM   C13S12920   0.704   2.460   7.552 -0.2835  0.2858  0.1378
  122OSM   H13S12921   0.685   2.356   7.588 -1.8442 -0.4773 -2.6523
  122OSM   H13T12922   0.658   2.467   7.451 -0.2844  0.6702  0.1621
  122OSM   C14S12923   0.650   2.565   7.639 -0.0236  0.0112 -0.0076
  122OSM   H14S12924   0.543   2.546   7.662  0.4213  0.4503  2.7371
  122OSM   H14T12925   0.638   2.665   7.591 -0.5881 -0.0089  0.0840
  122OSM   C15S12926   0.721   2.593   7.778  0.8267 -0.1195 -0.8488
  122OSM   H15S12927   0.672   2.682   7.821 -1.2427 -0.5495 -2.1554
  122OSM   H15T12928   0.822   2.625   7.746  1.3116 -1.8037 -1.0796
  122OSM   C16S12929   0.718   2.477   7.868 -0.3159  0.3500 -0.6286
  122OSM   H16S12930   0.741   2.378   7.822 -0.5188  0.1849 -0.3820
  122OSM   H16T12931   0.620   2.455   7.915 -1.3156  3.1695 -1.2413
  122OSM   C17S12932   0.810   2.496   7.994 -0.3726 -0.1018 -0.0392
  122OSM   H17S12933   0.767   2.588   8.039 -0.3784 -0.0785 -0.0926
  122OSM   H17T12934   0.911   2.512   7.950  0.1250  0.5437  1.2628
  122OSM   C18S12935   0.809   2.381   8.098 -0.6599  0.1602 -0.3926
  122OSM   H18S12936   0.775   2.285   8.054 -1.4960  0.6479 -0.8328
  122OSM   H18T12937   0.729   2.414   8.169 -0.2188  1.4454 -0.4616
  122OSM   H18U12938   0.907   2.384   8.151 -1.9961  0.8716  2.2474
  122OSM    C1F12939   1.266   2.088   6.605 -0.9374  0.0668  0.7705
  122OSM     OF12940   1.264   2.175   6.514  0.3429  0.1359 -0.2505
  122OSM    C2F12941   1.386   2.068   6.692 -0.3130  0.3872  0.3589
  122OSM    H2F12942   1.476   2.095   6.632  0.7963 -2.1376  0.7743
  122OSM    H2G12943   1.389   1.962   6.724 -0.9582 -0.1011 -1.1188
  122OSM    C3F12944   1.391   2.158   6.814  0.1871  0.2685 -0.3517
  122OSM    H3F12945   1.362   2.264   6.799  1.2321  0.5900 -0.1595
  122OSM    H3G12946   1.494   2.158   6.856 -0.1527 -1.2678  0.5589
  122OSM    C4F12947   1.309   2.101   6.934 -0.5394  0.1496  0.1949
  122OSM    H4F12948   1.334   1.993   6.941 -2.2727 -0.7196 -3.9068
  122OSM    H4G12949   1.202   2.098   6.907 -0.7102  0.6562  0.7952
  122OSM    C5F12950   1.325   2.190   7.056  0.2119  0.6957 -0.4043
  122OSM    H5F12951   1.286   2.293   7.044  1.3464  1.0061 -1.6614
  122OSM    H5G12952   1.432   2.201   7.084 -0.2715  2.4168  0.9791
  122OSM    C6F12953   1.260   2.116   7.178 -1.0411 -0.1374 -0.4959
  122OSM    H6F12954   1.309   2.018   7.191 -1.5608 -0.4319 -0.7252
  122OSM    H6G12955   1.154   2.098   7.148 -1.0934  2.0954 -1.8790
  122OSM    C7F12956   1.284   2.191   7.306  0.0747  0.1592 -0.4406
  122OSM    H7F12957   1.233   2.289   7.295  0.6889  0.4617 -0.6491
  122OSM    H7G12958   1.387   2.211   7.342 -0.7587  0.1986  2.0883
  122OSM    C8F12959   1.220   2.103   7.415 -0.3473  0.7828  0.5412
  122OSM    H8F12960   1.235   1.994   7.398 -2.0388  0.1040  2.8349
  122OSM    H8G12961   1.112   2.114   7.394 -0.3715  0.7677  0.6522
  122OSM    C9F12962   1.258   2.153   7.548 -0.2728  0.4718  0.5959
  122OSM    H9F12963   1.180   2.215   7.596  0.9186  1.5061  1.2435
  122OSM   C10F12964   1.364   2.103   7.609 -0.4332  0.0535 -0.2847
  122OSM   H10F12965   1.389   2.128   7.713  1.6538 -0.8090 -0.5131
  122OSM   C11F12966   1.466   2.011   7.541  0.0712  0.5185  0.4837
  122OSM   H11F12967   1.567   2.051   7.562  0.4303  0.0189 -0.2700
  122OSM   H11G12968   1.468   2.016   7.430 -2.5319 -4.1222 -0.0598
  122OSM   C12F12969   1.473   1.869   7.596 -0.7396 -0.8822 -0.5553
  122OSM   H12F12970   1.386   1.806   7.566 -2.0865 -0.3644  1.9881
  122OSM   H12G12971   1.485   1.879   7.706  0.4352 -1.8788 -0.5664
  122OSM   C13F12972   1.596   1.779   7.560 -0.2513  0.2857  0.1197
  122OSM   H13F12973   1.686   1.830   7.601 -0.3093  0.6847 -0.2406
  122OSM   H13G12974   1.625   1.751   7.457  0.8795  0.2896  0.4234
  122OSM   C14F12975   1.587   1.645   7.643 -0.3358  0.1754  0.2946
  122OSM   H14F12976   1.501   1.590   7.599  0.6454  1.2685 -3.2863
  122OSM   H14G12977   1.558   1.679   7.745 -0.6919 -1.3030  0.7166
  122OSM   C15F12978   1.710   1.559   7.637  0.3970  0.1544 -0.3475
  122OSM   H15F12979   1.777   1.569   7.549 -1.2188 -2.7560 -2.0838
  122OSM   H15G12980   1.684   1.451   7.645  1.2586 -0.0267  0.0452
  122OSM   C16F12981   1.789   1.568   7.768  0.1491 -0.6399  0.0609
  122OSM   H16F12982   1.857   1.481   7.777  0.1219 -1.0132 -2.5726
  122OSM   H16G12983   1.724   1.564   7.858  1.0858  1.1892  0.8618
  122OSM   C17F12984   1.872   1.702   7.781  0.0861  0.8202  0.4435
  122OSM   H17F12985   1.794   1.782   7.781 -2.4636 -1.5105  0.1938
  122OSM   H17G12986   1.932   1.718   7.689  1.3626 -1.6687  0.7668
  122OSM   C18F12987   1.971   1.709   7.897  0.8332 -0.2387  0.0518
  122OSM   H18F12988   2.061   1.650   7.871  0.2656 -2.6482  2.9502
  122OSM   H18G12989   1.925   1.673   7.992 -0.2649 -0.1892 -0.4419
  122OSM   H18H12990   2.000   1.813   7.921 -1.5827  0.6570 -0.5744
  123OSM      N12991   0.954   6.089   6.215 -1.0007  0.0699  0.1443
  123OSM    C1512992   0.874   6.125   6.098  0.2089  0.6692  0.1280
  123OSM   H15A12993   0.801   6.046   6.088  2.4862 -1.2243 -4.2137
  123OSM   H15B12994   0.923   6.121   6.002  2.4570  0.4466  1.2252
  123OSM   H15C12995   0.823   6.216   6.126 -1.4992 -1.2893  4.2534
  123OSM    C1412996   1.030   5.962   6.181 -0.4153  0.0573  0.4434
  123OSM   H14A12997   1.074   5.915   6.267 -1.5771 -2.4859 -0.2683
  123OSM   H14B12998   1.114   5.976   6.115 -0.4910 -0.2047  0.2889
  123OSM   H14C12999   0.967   5.891   6.130  0.2074  0.5129 -1.0145
  123OSM    C1313000   1.050   6.203   6.249  0.5890 -0.0385 -0.1151
  123OSM   H13A13001   1.126   6.212   6.172  0.0596  3.9883 -0.3728
  123OSM   H13B13002   1.106   6.175   6.337  1.6498 -0.4256 -0.8901
  123OSM   H13C13003   1.004   6.300   6.264 -0.8089 -0.7458  0.3073
  123OSM    C1213004   0.852   6.063   6.333 -0.1119 -0.3342  0.1233
  123OSM   H12A13005   0.811   6.158   6.363 -1.2055 -0.4372 -0.9548
  123OSM   H12B13006   0.897   6.023   6.423 -2.1405 -0.0820  1.3129
  123OSM    C1113007   0.736   5.972   6.301 -0.1205  0.0443 -0.1562
  123OSM   H11A13008   0.672   6.019   6.223 -0.8642  0.3963  0.6429
  123OSM   H11B13009   0.668   5.972   6.389  0.2005  0.0711  0.0941
  123OSM      P13010   0.820   5.738   6.361  0.2076 -0.3114  0.3612
  123OSM    O1313011   0.703   5.650   6.396 -0.6256  1.0418 -0.0034
  123OSM    O1413012   0.946   5.676   6.318  0.2056  0.6123  0.2442
  123OSM    O1113013   0.844   5.833   6.490 -0.5448  0.7938 -0.1283
  123OSM    O1213014   0.776   5.843   6.255  0.6935  0.0524 -0.6003
  123OSM    C1S13015   0.916   5.769   6.607 -0.0887 -0.3530  0.7169
  123OSM    H1S13016   1.020   5.749   6.574 -0.0775 -0.9629  1.1107
  123OSM    H1T13017   0.878   5.668   6.636 -1.5348 -0.7909 -2.2903
  123OSM     NF13018   1.037   5.818   6.816 -0.3699 -0.3136 -0.4930
  123OSM    HNF13019   1.004   5.780   6.902  0.7047  1.0811  0.5938
  123OSM    C2S13020   0.942   5.866   6.719  0.8102 -0.6797 -0.4345
  123OSM    H2S13021   0.992   5.957   6.680  2.9276 -1.6855 -0.2291
  123OSM    C3S13022   0.810   5.920   6.786  0.2787 -1.1597  0.0814
  123OSM    H3S13023   0.766   5.832   6.838 -1.8037  0.2083  0.7495
  123OSM     O313024   0.712   5.959   6.692  0.5131 -0.2193 -0.4280
  123OSM    HO313025   0.744   5.914   6.614 -0.7557  1.3854 -1.9543
  123OSM    C4S13026   0.839   6.034   6.878  0.0661  0.4119  0.2810
  123OSM    H4S13027   0.853   6.133   6.832  2.0263  0.0073 -0.0720
  123OSM    C5S13028   0.844   6.010   7.010  0.3609 -0.3259  0.2723
  123OSM    H5S13029   0.837   5.904   7.040  0.5623  0.2192  2.3635
  123OSM    C6S13030   0.872   6.108   7.121 -0.1959  1.0799 -0.1613
  123OSM    H6S13031   0.961   6.078   7.180  1.0912  3.1314 -0.9676
  123OSM    H6T13032   0.790   6.093   7.195  0.5313 -2.0238  0.1475
  123OSM    C7S13033   0.889   6.251   7.082 -0.3757 -0.0927 -0.2380
  123OSM    H7S13034   0.794   6.279   7.032 -1.1776 -0.0876  1.2160
  123OSM    H7T13035   0.969   6.246   7.006  0.7463  1.7131  0.7697
  123OSM    C8S13036   0.916   6.358   7.189 -0.4446 -0.1486 -1.1302
  123OSM    H8S13037   0.821   6.377   7.244  1.9106 -0.1828  3.4596
  123OSM    H8T13038   0.946   6.452   7.139  0.7978  0.1449  0.1149
  123OSM    C9S13039   1.020   6.324   7.300  0.4522  0.8960 -0.4465
  123OSM    H9S13040   1.115   6.305   7.247  0.2283  1.9086 -1.2305
  123OSM    H9T13041   0.993   6.230   7.353  0.5724 -0.9491 -3.4582
  123OSM   C10S13042   1.051   6.443   7.393 -0.0716  0.1459  0.4021
  123OSM   H10S13043   0.950   6.465   7.435 -1.8941 -3.0029 -1.9076
  123OSM   H10T13044   1.082   6.527   7.327  0.5969  1.8848  2.8105
  123OSM   C11S13045   1.151   6.420   7.492  0.2841  0.7087 -0.6727
  123OSM   H11S13046   1.178   6.515   7.544 -1.6310  0.2312  1.3361
  123OSM   H11T13047   1.240   6.371   7.447 -0.3090  0.5610 -1.7025
  123OSM   C12S13048   1.106   6.315   7.594  0.6334 -0.3886 -0.4481
  123OSM   H12S13049   1.103   6.217   7.542 -0.5277 -0.5513 -0.1136
  123OSM   H12T13050   1.005   6.352   7.623  1.2793  0.7839  0.4222
  123OSM   C13S13051   1.197   6.302   7.718  0.0647 -0.2113 -0.7694
  123OSM   H13S13052   1.215   6.393   7.781  0.1783 -1.4028  0.9844
  123OSM   H13T13053   1.296   6.258   7.694 -0.5410 -2.5318  0.7351
  123OSM   C14S13054   1.148   6.200   7.826 -0.5245  0.0446  0.1123
  123OSM   H14S13055   1.236   6.193   7.894 -1.6509  0.0721  1.6238
  123OSM   H14T13056   1.144   6.099   7.779 -0.5241  1.7626 -4.0210
  123OSM   C15S13057   1.031   6.252   7.909  0.3906 -0.4733 -0.0947
  123OSM   H15S13058   0.948   6.281   7.841  2.6797  2.0396 -2.0676
  123OSM   H15T13059   1.064   6.346   7.957 -0.6410 -0.4791  0.6546
  123OSM   C16S13060   0.991   6.160   8.031 -0.0434 -0.1532 -0.1156
  123OSM   H16S13061   1.088   6.109   8.050  0.1487 -0.2012 -1.1412
  123OSM   H16T13062   0.915   6.085   8.000 -0.6305 -0.9241  2.8573
  123OSM   C17S13063   0.949   6.229   8.154  1.2072  0.3281 -0.1990
  123OSM   H17S13064   0.891   6.154   8.213  0.7588 -0.3928 -1.5268
  123OSM   H17T13065   0.882   6.309   8.118  0.7542 -0.6592 -1.6299
  123OSM   C18S13066   1.059   6.278   8.250  0.3890 -0.0001  0.3288
  123OSM   H18S13067   1.007   6.326   8.335 -2.3756 -0.5260 -0.9506
  123OSM   H18T13068   1.128   6.354   8.207  4.0782 -3.2592 -0.0409
  123OSM   H18U13069   1.120   6.186   8.263  0.8306 -0.2671 -2.8494
  123OSM    C1F13070   1.173   5.822   6.788 -0.7789 -0.1691 -0.1131
  123OSM     OF13071   1.211   5.898   6.702 -0.1468 -0.4102  0.2203
  123OSM    C2F13072   1.271   5.727   6.860 -0.1618 -0.9252  0.0294
  123OSM    H2F13073   1.350   5.700   6.787  0.1461 -0.2923  0.1184
  123OSM    H2G13074   1.206   5.640   6.884 -1.0350 -0.1362  0.6076
  123OSM    C3F13075   1.353   5.783   6.982 -0.2784 -0.5288  0.3786
  123OSM    H3F13076   1.427   5.859   6.949 -2.5914  0.6524 -2.5938
  123OSM    H3G13077   1.410   5.698   7.023  1.4216 -0.1605 -1.0893
  123OSM    C4F13078   1.258   5.849   7.084  0.6888  0.2111 -0.3247
  123OSM    H4F13079   1.171   5.790   7.121  0.4803  1.1899  0.8157
  123OSM    H4G13080   1.209   5.936   7.037  0.2702  0.6339  0.8361
  123OSM    C5F13081   1.337   5.905   7.200  0.4037  0.4280  0.3519
  123OSM    H5F13082   1.415   5.972   7.158  0.0911 -0.8631 -2.4618
  123OSM    H5G13083   1.394   5.822   7.248  1.4662  0.4638 -0.7837
  123OSM    C6F13084   1.263   5.986   7.310 -0.5163  0.2254  0.1306
  123OSM    H6F13085   1.171   5.933   7.342  0.5429 -2.0940 -0.4279
  123OSM    H6G13086   1.241   6.071   7.242 -1.9310 -0.0952  0.1571
  123OSM    C7F13087   1.336   6.034   7.428 -0.1028  0.4963  0.4961
  123OSM    H7F13088   1.294   6.125   7.475  1.5813  1.5078  0.0943
  123OSM    H7G13089   1.442   6.059   7.407  0.5578 -1.6015  1.0171
  123OSM    C8F13090   1.342   5.925   7.549 -0.0924  0.3514 -0.4916
  123OSM    H8F13091   1.400   5.975   7.629 -1.0375  0.5155  0.1131
  123OSM    H8G13092   1.409   5.842   7.519  1.7119  1.1654  1.0551
  123OSM    C9F13093   1.205   5.893   7.606  1.0393 -0.3434 -0.2776
  123OSM    H9F13094   1.121   5.922   7.541 -0.8320  0.2854  2.2808
  123OSM   C10F13095   1.166   5.837   7.723  0.2530  0.4493  0.9545
  123OSM   H10F13096   1.058   5.823   7.739 -0.5208  0.1164 -3.4626
  123OSM   C11F13097   1.258   5.779   7.825  0.2628  0.6803  0.1963
  123OSM   H11F13098   1.365   5.794   7.797  0.0637  2.4851  0.2816
  123OSM   H11G13099   1.246   5.669   7.830  0.2925  0.5663 -1.5178
  123OSM   C12F13100   1.239   5.826   7.969  0.4075  0.1979 -0.8437
  123OSM   H12F13101   1.255   5.935   7.981 -2.1662  0.9416 -3.1331
  123OSM   H12G13102   1.306   5.777   8.042 -1.4452 -2.8713 -1.0435
  123OSM   C13F13103   1.094   5.811   8.014 -0.2501 -0.3905  0.1127
  123OSM   H13F13104   1.066   5.703   8.004  1.8656 -0.7530 -3.8397
  123OSM   H13G13105   1.024   5.866   7.947 -0.0025 -0.7766 -0.4777
  123OSM   C14F13106   1.083   5.836   8.169 -0.2749 -0.4568  0.2923
  123OSM   H14F13107   1.105   5.945   8.184  0.2067 -0.5369  0.1981
  123OSM   H14G13108   1.173   5.787   8.213 -0.3363 -0.0685  0.8781
  123OSM   C15F13109   0.954   5.797   8.229  1.4384  0.1215 -0.0077
  123OSM   H15F13110   0.956   5.686   8.228 -0.0560  0.0801 -0.8785
  123OSM   H15G13111   0.873   5.835   8.164  0.1653 -0.2527  1.3180
  123OSM   C16F13112   0.947   5.842   8.375  0.3013 -0.5845  0.6066
  123OSM   H16F13113   0.962   5.951   8.388 -0.3275 -0.0674 -2.3332
  123OSM   H16G13114   1.029   5.796   8.433  1.7446  0.2103 -0.7225
  123OSM   C17F13115   0.811   5.799   8.436  0.0288  0.0721 -0.1289
  123OSM   H17F13116   0.808   5.690   8.419 -1.8396 -0.1148  1.2093
  123OSM   H17G13117   0.723   5.842   8.384 -0.0884  1.8502  1.4268
  123OSM   C18F13118   0.807   5.823   8.591 -0.1195  0.2705 -0.8331
  123OSM   H18F13119   0.720   5.774   8.640 -0.5023  0.7693 -1.0064
  123OSM   H18G13120   0.807   5.933   8.602 -0.3286  0.4814 -2.6689
  123OSM   H18H13121   0.890   5.782   8.652 -0.1948  1.9697  0.4947
  124OSM      N13122   6.535   2.101   5.955 -0.3883 -0.2644 -0.5130
  124OSM    C1513123   6.463   2.234   5.942 -0.0430 -0.3384 -0.1982
  124OSM   H15A13124   6.464   2.265   5.839 -1.1863  1.1384  0.2143
  124OSM   H15B13125   6.518   2.307   6.000 -0.0510 -1.2113  0.9469
  124OSM   H15C13126   6.360   2.226   5.973 -0.7395 -0.7524 -2.4875
  124OSM    C1413127   6.469   1.998   5.881  0.1842 -0.2987  0.1677
  124OSM   H14A13128   6.533   1.917   5.850  0.6213 -0.6255  1.8227
  124OSM   H14B13129   6.425   2.041   5.792 -0.8383 -0.3718  0.6169
  124OSM   H14C13130   6.387   1.950   5.932 -1.2607  0.1799 -1.5789
  124OSM    C1313131   6.670   2.120   5.885  0.0263  0.0095 -0.9022
  124OSM   H13A13132   6.643   2.124   5.780 -1.3664 -2.9449 -0.7761
  124OSM   H13B13133   6.735   2.037   5.906 -2.1058 -1.6902 -0.6855
  124OSM   H13C13134   6.714   2.216   5.907  0.4120 -0.4049  0.2016
  124OSM    C1213135   6.555   2.067   6.101  0.2850 -1.0139  0.1518
  124OSM   H12A13136   6.461   2.060   6.154 -0.5058 -1.3271 -1.2426
  124OSM   H12B13137   6.611   2.145   6.150  1.8921 -1.8219 -0.3517
  124OSM    C1113138   6.645   1.950   6.143 -0.2595 -0.0502 -0.5423
  124OSM   H11A13139   6.621   1.868   6.073 -0.6589 -0.2482 -0.1743
  124OSM   H11B13140   6.618   1.917   6.246 -0.2737 -0.8146 -0.7845
  124OSM      P13141   6.902   1.884   6.133 -0.6860  0.4731 -0.0143
  124OSM    O1313142   6.884   1.785   6.029 -0.0411  0.7994  0.3282
  124OSM    O1413143   7.022   1.972   6.131 -0.4835  0.1699  0.1400
  124OSM    O1113144   6.868   1.818   6.272  0.8522 -0.2863  0.4308
  124OSM    O1213145   6.784   1.987   6.128 -0.2355  0.1371 -0.1248
  124OSM    C1S13146   6.978   1.792   6.358  0.0325 -0.0072  0.2602
  124OSM    H1S13147   7.057   1.867   6.339 -1.3584  1.7586  1.1024
  124OSM    H1T13148   7.022   1.692   6.338 -1.1394 -0.5598  0.3587
  124OSM     NF13149   7.063   1.765   6.579 -0.4439  0.0786  0.1813
  124OSM    HNF13150   7.065   1.677   6.627  0.6997 -0.4399 -0.7628
  124OSM    C2S13151   6.944   1.803   6.506  0.5792  0.3069 -0.4414
  124OSM    H2S13152   6.919   1.909   6.530  1.0602  0.3558 -0.1457
  124OSM    C3S13153   6.818   1.718   6.540  0.1979 -0.1306 -0.2746
  124OSM    H3S13154   6.837   1.614   6.504  0.2668  0.6073 -2.5440
  124OSM     O313155   6.699   1.764   6.473  0.3326  0.2790 -0.1097
  124OSM    HO313156   6.734   1.814   6.399 -0.3389  2.7624  1.1655
  124OSM    C4S13157   6.790   1.724   6.685  0.1541 -0.3062 -0.1250
  124OSM    H4S13158   6.738   1.817   6.714  2.1480  0.8780 -0.1880
  124OSM    C5S13159   6.814   1.627   6.777 -0.1552 -0.3681 -0.1219
  124OSM    H5S13160   6.857   1.531   6.745 -2.8437 -1.8051  0.2499
  124OSM    C6S13161   6.791   1.639   6.925  0.7407 -0.2081  0.1585
  124OSM    H6S13162   6.700   1.578   6.943  1.6837 -1.6563  0.2636
  124OSM    H6T13163   6.754   1.740   6.951 -1.7536 -0.3828 -2.2675
  124OSM    C7S13164   6.906   1.605   7.020 -0.1573  0.1523 -0.3488
  124OSM    H7S13165   6.999   1.667   7.017  0.3013 -0.4157  1.1686
  124OSM    H7T13166   6.932   1.497   7.013 -1.4717 -0.1074 -1.7971
  124OSM    C8S13167   6.863   1.625   7.167  0.6222  0.6610 -0.0521
  124OSM    H8S13168   6.797   1.714   7.175 -1.6088 -0.9555  0.4954
  124OSM    H8T13169   6.955   1.626   7.228 -0.1450 -0.1587  1.1663
  124OSM    C9S13170   6.785   1.506   7.222 -0.2492 -0.0738 -0.5642
  124OSM    H9S13171   6.853   1.418   7.213 -1.1224 -0.8207 -0.1420
  124OSM    H9T13172   6.689   1.492   7.168  0.0659 -0.9416 -0.9225
  124OSM   C10S13173   6.760   1.538   7.374 -0.5822  0.4582 -0.0406
  124OSM   H10S13174   6.723   1.639   7.402  1.0706  1.4102 -1.1372
  124OSM   H10T13175   6.864   1.535   7.412 -0.0657 -2.0532 -1.4212
  124OSM   C11S13176   6.672   1.431   7.442 -0.2021  0.2537 -0.2975
  124OSM   H11S13177   6.711   1.338   7.395 -2.1867 -1.9437  2.1141
  124OSM   H11T13178   6.566   1.441   7.410 -1.2408  0.5636  2.8964
  124OSM   C12S13179   6.667   1.438   7.597  0.2824  0.3104  0.0967
  124OSM   H12S13180   6.601   1.519   7.632 -3.3665 -2.3021 -0.2125
  124OSM   H12T13181   6.770   1.460   7.632  0.5575 -1.6061  0.6278
  124OSM   C13S13182   6.608   1.311   7.661  0.1507 -0.0834  1.1790
  124OSM   H13S13183   6.671   1.222   7.642 -1.9423 -1.4127  0.1177
  124OSM   H13T13184   6.507   1.286   7.621 -0.8920  0.5009  3.3127
  124OSM   C14S13185   6.596   1.317   7.816  0.4557 -0.1578 -0.2243
  124OSM   H14S13186   6.528   1.403   7.835 -1.4195 -1.5072 -0.5622
  124OSM   H14T13187   6.699   1.347   7.844  1.3150 -0.9188 -2.3722
  124OSM   C15S13188   6.554   1.188   7.887  0.4730 -0.4136  0.5273
  124OSM   H15S13189   6.600   1.096   7.844  3.2065  1.5846 -1.1343
  124OSM   H15T13190   6.446   1.194   7.865  0.4973  2.7608  0.8317
  124OSM   C16S13191   6.599   1.184   8.025  0.8218 -0.1491 -0.4162
  124OSM   H16S13192   6.543   1.256   8.088  1.8150 -1.3391  1.9463
  124OSM   H16T13193   6.706   1.201   8.046  0.5649 -0.2231  1.0562
  124OSM   C17S13194   6.588   1.044   8.085 -0.3131  0.1611 -0.2872
  124OSM   H17S13195   6.657   0.972   8.036  0.0537  0.8334 -0.7654
  124OSM   H17T13196   6.483   1.015   8.062  0.2787 -2.1537 -0.3973
  124OSM   C18S13197   6.604   1.045   8.242 -0.0844  0.1216  0.9051
  124OSM   H18S13198   6.521   1.103   8.288 -0.9811 -1.0036  0.7271
  124OSM   H18T13199   6.707   1.070   8.275  0.2722 -0.4499  0.2378
  124OSM   H18U13200   6.582   0.942   8.277 -0.9791  0.0793  0.2313
  124OSM    C1F13201   7.182   1.837   6.571  0.4621 -0.0672 -0.1863
  124OSM     OF13202   7.188   1.946   6.517 -0.0684  0.1554  0.0949
  124OSM    C2F13203   7.308   1.767   6.619  0.5346 -0.5422  0.2148
  124OSM    H2F13204   7.377   1.762   6.533 -1.0313  0.3108 -1.1436
  124OSM    H2G13205   7.285   1.660   6.638  0.2967 -0.3969  0.7764
  124OSM    C3F13206   7.358   1.835   6.750 -0.5965 -0.0306  0.1864
  124OSM    H3F13207   7.363   1.944   6.726  1.1247 -0.3422 -1.0561
  124OSM    H3G13208   7.464   1.819   6.777 -0.2943 -3.3456 -2.2921
  124OSM    C4F13209   7.264   1.797   6.864  0.2521 -0.0327 -0.7080
  124OSM    H4F13210   7.230   1.692   6.878 -0.5854  0.1382 -1.4163
  124OSM    H4G13211   7.168   1.853   6.860 -0.3878 -0.4511  3.6921
  124OSM    C5F13212   7.325   1.834   7.002 -0.1568  0.7389  0.4789
  124OSM    H5F13213   7.366   1.937   7.001  3.4658 -0.5332 -1.2638
  124OSM    H5G13214   7.410   1.765   7.021 -0.9766 -0.8363 -1.1953
  124OSM    C6F13215   7.221   1.818   7.114 -0.3636 -0.4938  0.3022
  124OSM    H6F13216   7.171   1.719   7.102  1.5019 -1.2685 -1.5790
  124OSM    H6G13217   7.151   1.903   7.099  1.3864  0.8843 -0.2710
  124OSM    C7F13218   7.276   1.813   7.253 -0.0975 -0.1231  0.4186
  124OSM    H7F13219   7.327   1.908   7.282 -0.6376  0.5320 -0.7110
  124OSM    H7G13220   7.353   1.733   7.256  2.4936  2.2147  2.2670
  124OSM    C8F13221   7.170   1.780   7.361 -0.2871  0.3846  0.8089
  124OSM    H8F13222   7.109   1.695   7.323  1.5264 -0.0115 -1.4648
  124OSM    H8G13223   7.101   1.867   7.364  0.3946  1.1111 -1.6648
  124OSM    C9F13224   7.246   1.769   7.490 -0.3171 -0.1673 -0.4701
  124OSM    H9F13225   7.337   1.829   7.500  0.2176 -1.1636  1.1734
  124OSM   C10F13226   7.213   1.684   7.590  0.4484  0.1218 -0.1919
  124OSM   H10F13227   7.278   1.680   7.679 -0.1137  2.4960  0.3833
  124OSM   C11F13228   7.089   1.600   7.604 -0.0061 -0.2611 -0.0899
  124OSM   H11F13229   7.109   1.491   7.597 -0.6584 -0.3458 -0.6526
  124OSM   H11G13230   7.016   1.629   7.525  0.0143  0.1832  0.0543
  124OSM   C12F13231   7.016   1.627   7.746  0.8600  0.8172  0.9209
  124OSM   H12F13232   6.926   1.562   7.735  1.9596 -0.5943 -0.1506
  124OSM   H12G13233   6.999   1.736   7.747  0.3076  0.7921 -1.1545
  124OSM   C13F13234   7.087   1.560   7.866  0.8196  0.0299 -0.3922
  124OSM   H13F13235   7.184   1.611   7.884  1.4101 -1.2094  0.0763
  124OSM   H13G13236   7.123   1.458   7.841  1.1588  0.2624 -0.8632
  124OSM   C14F13237   7.016   1.569   7.999  0.3008  0.3743 -0.0586
  124OSM   H14F13238   6.907   1.553   7.991 -0.0434 -0.1847  3.6461
  124OSM   H14G13239   7.026   1.670   8.044 -1.4566  0.8218 -0.6034
  124OSM   C15F13240   7.059   1.449   8.091 -0.5541  0.4029  0.2735
  124OSM   H15F13241   7.064   1.354   8.035  1.6947  0.0621  0.9693
  124OSM   H15G13242   6.990   1.432   8.177  0.9186 -2.6015  1.0148
  124OSM   C16F13243   7.198   1.471   8.144 -0.2228 -0.1310  1.0779
  124OSM   H16F13244   7.196   1.569   8.197  0.0913  0.9363 -0.7839
  124OSM   H16G13245   7.274   1.469   8.063  0.9523  0.2105  2.1522
  124OSM   C17F13246   7.228   1.371   8.256 -0.0607  0.1018 -0.1603
  124OSM   H17F13247   7.228   1.269   8.212  2.4264  0.3936 -1.0383
  124OSM   H17G13248   7.144   1.378   8.329  0.8572  1.4222  0.8242
  124OSM   C18F13249   7.359   1.404   8.335  1.0067  0.7756 -0.6074
  124OSM   H18F13250   7.395   1.328   8.407 -0.5220  0.6139  0.0221
  124OSM   H18G13251   7.345   1.495   8.396 -1.1131  0.1919 -0.1495
  124OSM   H18H13252   7.445   1.420   8.265  3.5424 -3.4067  1.1286
  125OSM      N13253   4.837   0.684   5.971 -0.0069 -0.4880 -0.2960
  125OSM    C1513254   4.932   0.768   6.053 -0.7775 -1.3177 -0.2112
  125OSM   H15A13255   4.877   0.846   6.104  1.5032 -1.5759  2.9426
  125OSM   H15B13256   5.001   0.817   5.986 -1.2172  0.0110  0.2546
  125OSM   H15C13257   4.986   0.721   6.134 -1.3311  2.8464  2.9402
  125OSM    C1413258   4.740   0.778   5.907  0.0586  0.0255  0.7231
  125OSM   H14A13259   4.671   0.717   5.851  0.7397  0.6161 -0.8181
  125OSM   H14B13260   4.788   0.830   5.826  1.3108  0.3068  1.6023
  125OSM   H14C13261   4.694   0.843   5.980 -2.7690 -0.0503 -0.8649
  125OSM    C1313262   4.915   0.603   5.880  0.5996 -0.1603 -0.6515
  125OSM   H13A13263   4.998   0.564   5.937  0.0039 -2.1221 -1.0376
  125OSM   H13B13264   4.946   0.663   5.795 -0.1887 -0.2273 -0.9959
  125OSM   H13C13265   4.855   0.524   5.837 -1.5198  0.3263  1.2318
  125OSM    C1213266   4.769   0.590   6.062  0.2356 -0.0889  0.0465
  125OSM   H12A13267   4.845   0.561   6.133  2.3979  0.0568 -2.1058
  125OSM   H12B13268   4.732   0.508   6.003 -0.0103 -0.0708  0.1733
  125OSM    C1113269   4.643   0.628   6.146 -0.2748 -0.4025 -0.3068
  125OSM   H11A13270   4.602   0.541   6.203  1.6712  0.0240  1.8763
  125OSM   H11B13271   4.571   0.666   6.071 -1.1520 -0.6776  0.3735
  125OSM      P13272   4.598   0.858   6.269  0.0381  0.3130 -0.3490
  125OSM    O1313273   4.673   0.939   6.371  0.1849  0.1986 -0.4111
  125OSM    O1413274   4.566   0.934   6.146  0.3068 -0.1150 -0.0825
  125OSM    O1113275   4.461   0.817   6.335  0.2745  0.5844  0.0523
  125OSM    O1213276   4.677   0.725   6.253  0.3313  0.0803 -0.0907
  125OSM    C1S13277   4.453   0.715   6.435 -0.3973  0.3156 -0.0861
  125OSM    H1S13278   4.546   0.682   6.486  0.9202  0.3943 -2.3161
  125OSM    H1T13279   4.416   0.620   6.391  2.7527 -1.3524  0.5419
  125OSM     NF13280   4.336   0.686   6.658 -0.4577  0.1295  0.8807
  125OSM    HNF13281   4.270   0.611   6.659  0.1931 -0.4817  0.1770
  125OSM    C2S13282   4.344   0.767   6.538 -0.2703 -0.0398 -0.9166
  125OSM    H2S13283   4.374   0.871   6.563  0.8318 -0.6465  0.4469
  125OSM    C3S13284   4.201   0.780   6.468  0.1207 -0.3674  0.4728
  125OSM    H3S13285   4.183   0.675   6.436  4.0787 -1.5213  1.4206
  125OSM     O313286   4.210   0.861   6.348 -0.2269 -0.8287  0.6136
  125OSM    HO313287   4.305   0.876   6.351 -0.3851  0.2626  0.8287
  125OSM    C4S13288   4.088   0.828   6.560  0.1941  0.3379  0.3374
  125OSM    H4S13289   4.029   0.746   6.603  1.7859 -1.1319 -0.1333
  125OSM    C5S13290   4.065   0.959   6.580  0.1504 -0.3147 -0.0073
  125OSM    H5S13291   4.124   1.039   6.534 -1.5435 -0.2964 -2.3683
  125OSM    C6S13292   3.953   1.013   6.661 -0.0722 -0.2392 -1.1760
  125OSM    H6S13293   3.884   0.933   6.697  0.0519  0.3935  0.5497
  125OSM    H6T13294   3.890   1.077   6.595  0.0020  0.9646 -0.1231
  125OSM    C7S13295   3.990   1.104   6.783  0.3717  0.7863  0.0784
  125OSM    H7S13296   4.076   1.169   6.756  2.1010 -2.2292 -2.4131
  125OSM    H7T13297   4.033   1.044   6.866  1.3989 -0.1451 -1.0856
  125OSM    C8S13298   3.879   1.194   6.827  0.2954 -0.3603  0.3659
  125OSM    H8S13299   3.783   1.143   6.851  0.5820 -2.1570 -1.9820
  125OSM    H8T13300   3.868   1.270   6.747  0.7684 -1.8057 -1.1378
  125OSM    C9S13301   3.926   1.276   6.952 -0.1453 -0.3715  0.0494
  125OSM    H9S13302   3.869   1.370   6.968  1.1831 -0.0043  3.7250
  125OSM    H9T13303   4.037   1.284   6.952 -0.1603  0.2565 -2.2379
  125OSM   C10S13304   3.895   1.195   7.084 -0.3325  0.0206  0.0293
  125OSM   H10S13305   3.947   1.097   7.089  0.8941  0.7198  2.0408
  125OSM   H10T13306   3.787   1.168   7.078 -1.2202  3.1275  0.2160
  125OSM   C11S13307   3.928   1.286   7.205 -0.5344  0.1702 -0.0314
  125OSM   H11S13308   3.864   1.373   7.231 -0.9393 -0.3865  0.8856
  125OSM   H11T13309   4.017   1.339   7.166 -1.2387  2.7183  1.5785
  125OSM   C12S13310   3.981   1.203   7.326 -0.9687 -0.0726 -0.1457
  125OSM   H12S13311   4.031   1.277   7.393 -1.0347 -0.0577 -0.1128
  125OSM   H12T13312   4.063   1.136   7.295  1.0657  3.1304 -2.3247
  125OSM   C13S13313   3.877   1.140   7.402 -0.3220 -0.3521  0.3321
  125OSM   H13S13314   3.830   1.062   7.338  1.5981 -1.7458  0.5121
  125OSM   H13T13315   3.798   1.217   7.415 -1.3482 -0.8589 -2.2918
  125OSM   C14S13316   3.917   1.084   7.536  0.2571 -0.6201 -0.4590
  125OSM   H14S13317   3.946   1.170   7.599 -2.6433  0.6126 -0.6668
  125OSM   H14T13318   3.996   1.006   7.530 -1.0642 -1.9571 -1.6428
  125OSM   C15S13319   3.799   1.016   7.607  0.2269  0.3909  0.3901
  125OSM   H15S13320   3.797   0.917   7.557  2.4422 -1.0233  2.8193
  125OSM   H15T13321   3.701   1.063   7.583 -0.6166 -2.1310 -1.5683
  125OSM   C16S13322   3.818   0.987   7.759  0.1082 -0.3643 -0.6377
  125OSM   H16S13323   3.902   0.914   7.766  2.4502  2.1750 -0.4136
  125OSM   H16T13324   3.719   0.948   7.789 -2.8421  5.1221 -1.8876
  125OSM   C17S13325   3.845   1.108   7.844  0.1963 -0.9109 -0.6481
  125OSM   H17S13326   3.755   1.172   7.844  0.0070 -1.0895  1.7493
  125OSM   H17T13327   3.922   1.177   7.803 -0.1816  0.2731  0.5767
  125OSM   C18S13328   3.858   1.068   7.993 -0.6634 -0.4078 -0.1208
  125OSM   H18S13329   3.902   0.966   8.004 -2.5359 -1.1063  1.4255
  125OSM   H18T13330   3.758   1.075   8.040 -0.8843  1.8593 -0.8107
  125OSM   H18U13331   3.913   1.144   8.052 -2.9724  1.5215 -0.3058
  125OSM    C1F13332   4.436   0.692   6.744  0.2467  0.4810  0.5137
  125OSM     OF13333   4.532   0.765   6.732 -0.5773  0.4038  0.6548
  125OSM    C2F13334   4.438   0.594   6.861  0.3606  0.5131  0.2186
  125OSM    H2F13335   4.527   0.528   6.850  0.9310  1.3529 -0.3083
  125OSM    H2G13336   4.347   0.530   6.858 -0.3639  1.2284  3.5948
  125OSM    C3F13337   4.456   0.655   7.003 -0.2092  0.0904 -0.1526
  125OSM    H3F13338   4.353   0.693   7.022 -0.5632 -0.8776 -0.0834
  125OSM    H3G13339   4.520   0.745   7.010 -2.5724  1.7614  1.5692
  125OSM    C4F13340   4.479   0.539   7.102  0.3437 -0.1622 -0.0770
  125OSM    H4F13341   4.569   0.477   7.081  1.3587  0.7068  1.4651
  125OSM    H4G13342   4.399   0.463   7.096 -1.3879  1.3955  1.9626
  125OSM    C5F13343   4.493   0.596   7.243  0.4144  0.4010 -0.3785
  125OSM    H5F13344   4.397   0.644   7.275 -0.3113 -0.8723 -0.5611
  125OSM    H5G13345   4.565   0.679   7.257  1.3840 -0.5673  0.5160
  125OSM    C6F13346   4.536   0.481   7.337  0.0672  0.1156  0.2154
  125OSM    H6F13347   4.611   0.413   7.290  0.5192 -0.7142  2.0638
  125OSM    H6G13348   4.445   0.424   7.363 -1.5235  1.8624 -1.2713
  125OSM    C7F13349   4.588   0.547   7.462 -0.2762  0.8711  0.2602
  125OSM    H7F13350   4.521   0.633   7.484 -0.8560  0.5342 -0.1628
  125OSM    H7G13351   4.690   0.589   7.448  1.2177 -1.3627  3.1879
  125OSM    C8F13352   4.592   0.445   7.574 -0.6049 -0.3003 -0.4841
  125OSM    H8F13353   4.659   0.361   7.546  0.2589  0.3595 -0.4403
  125OSM    H8G13354   4.493   0.396   7.589 -1.0003  0.8027  0.7189
  125OSM    C9F13355   4.638   0.495   7.711 -0.3943  0.1537  0.0538
  125OSM    H9F13356   4.744   0.525   7.713  0.9160 -3.8784 -0.1658
  125OSM   C10F13357   4.576   0.488   7.829  0.4626  0.2287  0.1274
  125OSM   H10F13358   4.626   0.528   7.918 -0.5158  0.8828  0.3920
  125OSM   C11F13359   4.443   0.434   7.866  1.0695  0.5064  0.0337
  125OSM   H11F13360   4.362   0.443   7.790  0.8410  0.0740  0.2230
  125OSM   H11G13361   4.402   0.481   7.958  0.6739 -1.0248  0.6692
  125OSM   C12F13362   4.484   0.292   7.906  0.4826  0.8343  0.0505
  125OSM   H12F13363   4.560   0.296   7.986  0.3825  1.6574  0.1215
  125OSM   H12G13364   4.531   0.240   7.820 -1.5929 -1.7705  0.3681
  125OSM   C13F13365   4.362   0.223   7.966  0.9771 -0.2000 -0.0790
  125OSM   H13F13366   4.363   0.114   7.948 -3.0285 -0.5742  1.1211
  125OSM   H13G13367   4.271   0.258   7.914 -0.3921 -2.4774  0.6614
  125OSM   C14F13368   4.361   0.241   8.114  0.2038 -0.0017  0.2057
  125OSM   H14F13369   4.365   0.352   8.129  1.2225  0.2105 -1.4315
  125OSM   H14G13370   4.451   0.204   8.168 -0.2305  1.0772  1.7579
  125OSM   C15F13371   4.248   0.176   8.186  0.1879 -0.1248  0.1561
  125OSM   H15F13372   4.243   0.221   8.287 -0.4592  2.1032 -0.8070
  125OSM   H15G13373   4.273   0.068   8.181  1.4293  0.1699 -0.5193
  125OSM   C16F13374   4.106   0.207   8.134  0.6175 -0.2864  0.1658
  125OSM   H16F13375   4.088   0.174   8.030 -0.0765 -1.2296  0.5640
  125OSM   H16G13376   4.103   0.317   8.120 -2.1541 -0.4373 -0.9044
  125OSM   C17F13377   3.996   0.178   8.234  0.4979  0.4702 -1.0225
  125OSM   H17F13378   4.007   0.243   8.323 -0.1169  0.0844 -0.6573
  125OSM   H17G13379   4.011   0.074   8.268 -0.3807  0.1567 -1.5569
  125OSM   C18F13380   3.856   0.202   8.178 -0.3304  0.2320  0.3478
  125OSM   H18F13381   3.847   0.154   8.078 -0.6154 -1.2931  1.0750
  125OSM   H18G13382   3.831   0.309   8.164  0.9734  0.4358 -0.6243
  125OSM   H18H13383   3.780   0.155   8.244 -0.3653 -0.1820  0.0240
  126OSM      N13384   1.462   4.758   6.560  0.0739 -0.2799 -0.2609
  126OSM    C1513385   1.541   4.625   6.561 -0.2779 -0.3074 -0.3534
  126OSM   H15A13386   1.508   4.554   6.635 -1.8636 -0.4334 -1.1321
  126OSM   H15B13387   1.645   4.647   6.579 -0.3687  2.1079 -2.2340
  126OSM   H15C13388   1.535   4.585   6.461 -0.3453 -0.9476 -0.1014
  126OSM    C1413389   1.530   4.847   6.667 -0.0697  0.0963  0.0384
  126OSM   H14A13390   1.632   4.868   6.638 -0.4032  0.1731 -1.1350
  126OSM   H14B13391   1.530   4.795   6.762 -3.4734 -0.9711 -0.4269
  126OSM   H14C13392   1.464   4.931   6.680 -2.0575 -1.3455 -0.1746
  126OSM    C1313393   1.483   4.826   6.430  0.0001 -0.5190  0.7833
  126OSM   H13A13394   1.440   4.926   6.428  0.4350 -0.3246  1.1597
  126OSM   H13B13395   1.433   4.777   6.347 -1.7049  2.1036  0.1171
  126OSM   H13C13396   1.588   4.839   6.412 -0.1323 -1.0617 -0.5501
  126OSM    C1213397   1.319   4.739   6.593 -0.8430  0.4212  0.5111
  126OSM   H12A13398   1.314   4.679   6.683 -0.6358  1.0516  0.9476
  126OSM   H12B13399   1.274   4.675   6.518  1.5736 -0.2723 -0.4357
  126OSM    C1113400   1.234   4.869   6.604  0.0760  0.0553 -0.2965
  126OSM   H11A13401   1.133   4.828   6.627 -0.3758  0.8702 -0.8155
  126OSM   H11B13402   1.233   4.923   6.507  0.6077  2.6140  1.0310
  126OSM      P13403   1.201   5.084   6.767  0.3589  0.2796 -0.4530
  126OSM    O1313404   1.264   5.141   6.891  0.2443 -0.1466  0.2747
  126OSM    O1413405   1.190   5.175   6.650  0.3492 -0.2549  0.3948
  126OSM    O1113406   1.056   5.026   6.800  0.0402  0.0525 -0.1572
  126OSM    O1213407   1.277   4.948   6.722  0.4384 -0.1606  0.3020
  126OSM    C1S13408   1.034   4.914   6.884  0.0693  0.0099 -0.0395
  126OSM    H1S13409   1.106   4.833   6.859  0.2024  0.6711 -1.9090
  126OSM    H1T13410   0.938   4.867   6.854 -0.4374  0.8495  0.2210
  126OSM     NF13411   1.027   4.824   7.106 -0.6524 -0.8585 -0.2976
  126OSM    HNF13412   0.936   4.822   7.147 -0.2398 -0.6776  0.6378
  126OSM    C2S13413   1.056   4.947   7.040 -0.6966 -0.2430 -0.5755
  126OSM    H2S13414   1.163   4.975   7.054 -1.0032  0.4655  0.4200
  126OSM    C3S13415   0.980   5.072   7.090 -0.1523  0.3100  0.1681
  126OSM    H3S13416   0.873   5.057   7.064 -0.0952  0.6474 -0.2765
  126OSM     O313417   1.025   5.202   7.047  0.6041 -0.4510 -0.6083
  126OSM    HO313418   1.106   5.175   7.003  0.6130 -2.8695  0.6883
  126OSM    C4S13419   0.997   5.068   7.233 -0.5273  0.1736 -0.6084
  126OSM    H4S13420   1.101   5.051   7.264 -0.4125  0.7785 -0.6372
  126OSM    C5S13421   0.895   5.072   7.319 -0.1555  0.1356 -0.0717
  126OSM    H5S13422   0.794   5.088   7.278 -0.1551 -0.5064 -0.3197
  126OSM    C6S13423   0.896   5.051   7.469 -0.4903  0.6343  0.1551
  126OSM    H6S13424   0.840   4.956   7.486 -1.3503  1.0158 -0.4715
  126OSM    H6T13425   0.833   5.125   7.522 -2.1026  0.3210 -1.2414
  126OSM    C7S13426   1.041   5.044   7.525 -0.0971  0.0338  0.2887
  126OSM    H7S13427   1.102   5.129   7.485  1.0725 -0.2741  1.3503
  126OSM    H7T13428   1.087   4.953   7.481  2.2399  0.8633  0.8749
  126OSM    C8S13429   1.038   5.027   7.677  0.3218 -0.4107 -0.1623
  126OSM    H8S13430   0.959   5.092   7.719  0.4167 -1.2840  1.5022
  126OSM    H8T13431   1.137   5.064   7.713  1.2373 -2.4535 -0.3881
  126OSM    C9S13432   1.028   4.883   7.718  0.0366 -0.4040  0.5385
  126OSM    H9S13433   1.123   4.826   7.712 -0.4077 -1.1437  0.4177
  126OSM    H9T13434   0.953   4.837   7.650 -1.5401  1.9088  0.5888
  126OSM   C10S13435   0.970   4.869   7.861  0.3768  0.2664 -0.0125
  126OSM   H10S13436   0.966   4.763   7.894  0.3978  0.0336 -0.7339
  126OSM   H10T13437   0.869   4.916   7.862 -0.8201 -1.9520 -2.5826
  126OSM   C11S13438   1.051   4.946   7.970  0.7932  0.7996  0.7590
  126OSM   H11S13439   1.085   5.045   7.931 -0.4795  1.1786  0.5712
  126OSM   H11T13440   1.138   4.880   7.991  0.2937  0.1471  0.8037
  126OSM   C12S13441   0.959   4.970   8.093 -0.1029  0.0277 -0.0308
  126OSM   H12S13442   0.864   5.027   8.078 -0.8163 -1.0747  0.1850
  126OSM   H12T13443   1.004   5.042   8.165 -2.3935  0.7371  0.8101
  126OSM   C13S13444   0.923   4.838   8.168 -0.4465 -0.1931  0.1037
  126OSM   H13S13445   1.012   4.772   8.156  0.3161  1.0275 -1.2244
  126OSM   H13T13446   0.846   4.795   8.100 -1.0937  0.9998  0.0670
  126OSM   C14S13447   0.858   4.847   8.309 -0.6798 -0.6962  0.0980
  126OSM   H14S13448   0.773   4.917   8.295 -0.1037  0.1415  0.7241
  126OSM   H14T13449   0.929   4.899   8.377  0.2701  0.9536 -2.0349
  126OSM   C15S13450   0.808   4.717   8.357  0.0752  0.0777  0.3075
  126OSM   H15S13451   0.895   4.649   8.365 -1.1730 -1.7387 -0.7691
  126OSM   H15T13452   0.747   4.684   8.270 -1.2363  0.5885  0.9906
  126OSM   C16S13453   0.722   4.712   8.490 -0.5689 -0.0004  0.2063
  126OSM   H16S13454   0.622   4.757   8.478 -0.9135 -1.0337 -0.9267
  126OSM   H16T13455   0.769   4.776   8.568 -1.1827 -0.2611  0.8016
  126OSM   C17S13456   0.717   4.575   8.546 -0.4457  0.6411 -0.2966
  126OSM   H17S13457   0.699   4.504   8.463  1.5568 -1.1934  0.7237
  126OSM   H17T13458   0.639   4.560   8.625  0.9933  0.2598  1.1122
  126OSM   C18S13459   0.852   4.525   8.598  0.0808 -0.1203 -0.3311
  126OSM   H18S13460   0.873   4.569   8.697 -2.6775  2.7621 -0.8670
  126OSM   H18T13461   0.946   4.546   8.542 -1.1248  2.3761 -1.6077
  126OSM   H18U13462   0.856   4.414   8.604  0.3779 -0.0513  0.8514
  126OSM    C1F13463   1.104   4.723   7.108  0.7834 -0.2385 -0.3440
  126OSM     OF13464   1.215   4.732   7.058 -0.1076  0.1231 -0.4727
  126OSM    C2F13465   1.052   4.597   7.178  0.4575 -0.0663  0.3383
  126OSM    H2F13466   0.947   4.577   7.147 -0.1153 -2.3543  3.3974
  126OSM    H2G13467   1.039   4.619   7.286  0.8091  0.2217  0.3260
  126OSM    C3F13468   1.137   4.468   7.158 -0.7057  0.1552 -0.3900
  126OSM    H3F13469   1.245   4.488   7.175 -0.8986  0.0333  1.0640
  126OSM    H3G13470   1.130   4.427   7.055 -1.3841 -0.1761 -0.2118
  126OSM    C4F13471   1.096   4.358   7.253 -0.0010 -0.2390  0.3585
  126OSM    H4F13472   0.989   4.335   7.232 -0.3136  0.4973  1.0641
  126OSM    H4G13473   1.090   4.396   7.358 -0.0065 -1.2288  0.7314
  126OSM    C5F13474   1.187   4.244   7.256  0.0117 -0.7889 -0.2101
  126OSM    H5F13475   1.285   4.280   7.293 -0.4867  0.2729  0.1338
  126OSM    H5G13476   1.184   4.203   7.153 -0.3831 -2.0926  0.3042
  126OSM    C6F13477   1.153   4.136   7.357  0.3782  0.0167  0.1026
  126OSM    H6F13478   1.043   4.120   7.347  0.6531 -1.7339 -0.4010
  126OSM    H6G13479   1.172   4.171   7.460  0.5625 -0.8826  0.3835
  126OSM    C7F13480   1.223   4.005   7.325 -0.7148 -0.3855  0.2158
  126OSM    H7F13481   1.333   4.022   7.339 -0.6749 -1.5513  1.5754
  126OSM    H7G13482   1.216   3.971   7.220 -0.4793  1.3961 -0.4192
  126OSM    C8F13483   1.178   3.900   7.427 -0.6625  0.7920 -0.9666
  126OSM    H8F13484   1.067   3.893   7.424 -0.5221 -3.1295 -2.2015
  126OSM    H8G13485   1.215   3.931   7.527 -0.6900 -3.4421  0.5654
  126OSM    C9F13486   1.221   3.756   7.402 -0.5271  0.4029  0.4352
  126OSM    H9F13487   1.163   3.685   7.342  3.0683 -0.9410 -1.7650
  126OSM   C10F13488   1.325   3.699   7.455  0.2902  0.1655  0.2265
  126OSM   H10F13489   1.344   3.592   7.438 -0.5506 -0.3169  2.0480
  126OSM   C11F13490   1.417   3.768   7.556  0.2023  1.1645 -0.9923
  126OSM   H11F13491   1.443   3.873   7.528 -0.0414  0.9656 -1.9897
  126OSM   H11G13492   1.512   3.711   7.567 -0.2157  0.5582 -0.4474
  126OSM   C12F13493   1.359   3.770   7.702 -0.0660  0.2569  0.3985
  126OSM   H12F13494   1.356   3.660   7.718  0.4799  0.0150 -1.0159
  126OSM   H12G13495   1.253   3.801   7.708  0.0073  0.3991  1.1108
  126OSM   C13F13496   1.418   3.864   7.803 -0.4198  0.0012 -0.3356
  126OSM   H13F13497   1.419   3.965   7.755  2.3523 -0.2081 -0.8801
  126OSM   H13G13498   1.517   3.828   7.837  0.4067  2.2260 -0.1834
  126OSM   C14F13499   1.338   3.873   7.934 -0.2533 -0.1769 -0.1752
  126OSM   H14F13500   1.299   3.773   7.963  2.9026 -2.2536 -2.4121
  126OSM   H14G13501   1.255   3.947   7.923 -0.7017 -0.6468 -0.0158
  126OSM   C15F13502   1.424   3.915   8.052  0.2491  0.6511  0.2351
  126OSM   H15F13503   1.455   4.020   8.037 -0.3120  0.5722 -1.7857
  126OSM   H15G13504   1.517   3.856   8.061  0.6847  1.6401  3.5852
  126OSM   C16F13505   1.337   3.889   8.183 -0.5423 -0.2362 -0.3836
  126OSM   H16F13506   1.327   3.779   8.194  0.2202 -0.4382 -1.5198
  126OSM   H16G13507   1.240   3.943   8.184 -0.6324 -0.2904  2.4430
  126OSM   C17F13508   1.421   3.917   8.308 -0.0652  0.4718  0.4375
  126OSM   H17F13509   1.430   4.028   8.318 -0.1117  0.4295  0.9982
  126OSM   H17G13510   1.522   3.876   8.290 -0.0410  0.1950  1.1934
  126OSM   C18F13511   1.371   3.868   8.444  0.3258  0.3550 -0.7710
  126OSM   H18F13512   1.349   3.759   8.444  0.0010  0.4179 -0.9185
  126OSM   H18G13513   1.270   3.910   8.467  1.3626  2.1269  0.8016
  126OSM   H18H13514   1.440   3.891   8.527  0.7845 -1.7398 -0.5140
  127OSM      N13515   0.214   6.481   6.131  0.0869 -0.7889  0.0167
  127OSM    C1513516   0.293   6.541   6.024 -0.3438 -0.1720  0.3364
  127OSM   H15A13517   0.390   6.495   6.029  0.1912  0.6654 -1.5517
  127OSM   H15B13518   0.297   6.648   6.036 -1.0892 -0.3031  1.9705
  127OSM   H15C13519   0.254   6.519   5.925  1.3593 -0.9548 -0.1945
  127OSM    C1413520   0.072   6.534   6.124 -0.1626 -1.0504 -0.5085
  127OSM   H14A13521   0.066   6.638   6.150  0.5968 -1.1115 -0.0584
  127OSM   H14B13522   0.014   6.495   6.207  1.6090 -0.4398  1.0815
  127OSM   H14C13523   0.024   6.510   6.031  0.1244 -1.3664 -0.5763
  127OSM    C1313524   0.208   6.332   6.129  0.4574  0.4293  0.2526
  127OSM   H13A13525   0.164   6.305   6.034  1.2897  0.8247 -0.2545
  127OSM   H13B13526   0.143   6.289   6.203 -1.1736 -0.9580 -1.8838
  127OSM   H13C13527   0.307   6.293   6.147  1.4448  1.6204 -2.1909
  127OSM    C1213528   0.273   6.530   6.263  0.1048  0.0370 -0.3015
  127OSM   H12A13529   0.214   6.490   6.344  1.6868  1.2650  1.5295
  127OSM   H12B13530   0.269   6.636   6.280 -0.2954 -0.3118  2.0711
  127OSM    C1113531   0.416   6.484   6.302 -0.1024 -0.1250  1.0957
  127OSM   H11A13532   0.444   6.561   6.377 -0.9727  2.2682 -0.8909
  127OSM   H11B13533   0.487   6.504   6.220 -2.2801  0.7530 -0.6686
  127OSM      P13534   0.510   6.240   6.322  0.1914  0.2635  0.2735
  127OSM    O1313535   0.442   6.120   6.377  0.3448 -0.2550  0.0063
  127OSM    O1413536   0.555   6.237   6.177  0.0303  0.4562 -0.1378
  127OSM    O1113537   0.629   6.271   6.421 -0.3390 -0.5934 -0.1325
  127OSM    O1213538   0.409   6.358   6.348 -0.1766 -0.1298 -0.5151
  127OSM    C1S13539   0.592   6.342   6.540 -0.0930  0.5828 -0.6693
  127OSM    H1S13540   0.503   6.310   6.598  0.5729  0.4431  0.3146
  127OSM    H1T13541   0.597   6.453   6.526  2.1124  0.8197  1.1941
  127OSM     NF13542   0.674   6.378   6.780  0.3030 -0.2008 -0.1920
  127OSM    HNF13543   0.739   6.445   6.817  3.7632 -1.8626 -2.7660
  127OSM    C2S13544   0.715   6.333   6.651  0.2014  0.7533 -0.2613
  127OSM    H2S13545   0.737   6.225   6.658 -0.5790  0.4263 -2.2640
  127OSM    C3S13546   0.846   6.396   6.605 -1.1050  0.5656  0.2590
  127OSM    H3S13547   0.834   6.506   6.604 -0.1808  0.6790  0.6464
  127OSM     O313548   0.878   6.370   6.466 -0.4249  0.0890  0.5579
  127OSM    HO313549   0.800   6.317   6.446  0.2090 -1.5511  2.1569
  127OSM    C4S13550   0.968   6.358   6.688 -0.1495 -0.2377  0.8591
  127OSM    H4S13551   0.975   6.412   6.784 -0.7868 -1.5572  1.6731
  127OSM    C5S13552   1.061   6.260   6.666 -0.4670 -0.1690 -0.4055
  127OSM    H5S13553   1.063   6.202   6.573  0.2875 -1.0788  0.1602
  127OSM    C6S13554   1.179   6.244   6.769  0.4111 -0.3478  0.3870
  127OSM    H6S13555   1.256   6.185   6.714 -1.3230 -1.5317 -0.8477
  127OSM    H6T13556   1.141   6.176   6.848 -0.2869  2.0585  2.2418
  127OSM    C7S13557   1.238   6.370   6.833  0.4510  0.2175  0.6302
  127OSM    H7S13558   1.156   6.427   6.882  0.0380 -0.7880  1.1420
  127OSM    H7T13559   1.269   6.440   6.753 -2.0808  1.8330  0.9629
  127OSM    C8S13560   1.340   6.322   6.933  0.7805  0.4067 -0.1459
  127OSM    H8S13561   1.425   6.271   6.882 -0.9054 -2.1010 -0.6718
  127OSM    H8T13562   1.297   6.241   6.996  1.0897 -0.9458 -1.6064
  127OSM    C9S13563   1.386   6.440   7.026 -0.1211 -0.8660  0.5043
  127OSM    H9S13564   1.296   6.505   7.038  0.2891  0.1675 -1.5322
  127OSM    H9T13565   1.465   6.494   6.970 -1.3365  0.0719 -0.3702
  127OSM   C10S13566   1.438   6.392   7.159  0.1706  0.3728  0.0708
  127OSM   H10S13567   1.524   6.326   7.139 -1.7420 -1.4439 -2.8356
  127OSM   H10T13568   1.359   6.337   7.215  0.2452  1.0930  0.9143
  127OSM   C11S13569   1.467   6.512   7.245  0.3362 -0.4877  0.1935
  127OSM   H11S13570   1.379   6.577   7.263  1.2308  0.5276  1.0738
  127OSM   H11T13571   1.553   6.570   7.205  1.4844 -1.1264  1.6182
  127OSM   C12S13572   1.515   6.472   7.393  0.6840  0.1592 -0.1957
  127OSM   H12S13573   1.599   6.399   7.388  2.3400  1.9745  0.0749
  127OSM   H12T13574   1.430   6.428   7.449  0.7743 -0.1313 -0.2833
  127OSM   C13S13575   1.560   6.589   7.484 -0.1088  0.2475 -0.5860
  127OSM   H13S13576   1.467   6.643   7.512 -0.5368 -1.7393  2.2779
  127OSM   H13T13577   1.640   6.645   7.432  0.5208  2.1767  2.1971
  127OSM   C14S13578   1.616   6.553   7.620 -0.0550 -0.1616  0.4025
  127OSM   H14S13579   1.653   6.645   7.669 -0.7553 -0.7846  2.2268
  127OSM   H14T13580   1.708   6.493   7.606  0.6180  0.2783  2.5079
  127OSM   C15S13581   1.519   6.481   7.724 -0.2376  0.0053  0.1380
  127OSM   H15S13582   1.490   6.390   7.668 -3.0955  1.9761 -1.8934
  127OSM   H15T13583   1.420   6.531   7.735  0.6318  1.7410  0.5198
  127OSM   C16S13584   1.578   6.445   7.865  0.2789 -0.0213 -0.1975
  127OSM   H16S13585   1.621   6.535   7.914 -0.5667  0.7641 -0.8503
  127OSM   H16T13586   1.663   6.380   7.836 -0.9168 -2.5850  1.6866
  127OSM   C17S13587   1.479   6.377   7.958 -0.3274  0.3612 -0.3320
  127OSM   H17S13588   1.422   6.296   7.907 -0.6892  0.2337  0.2663
  127OSM   H17T13589   1.417   6.454   8.010 -0.2454 -0.6486  1.3227
  127OSM   C18S13590   1.557   6.301   8.068 -0.3308  0.7878 -0.1558
  127OSM   H18S13591   1.606   6.382   8.127 -0.7434  0.6699  0.3579
  127OSM   H18T13592   1.639   6.237   8.030  0.2722  1.4410  0.0128
  127OSM   H18U13593   1.495   6.248   8.143  0.7535  1.2881  1.1407
  127OSM    C1F13594   0.574   6.332   6.861 -0.1433 -1.3531  0.6173
  127OSM     OF13595   0.508   6.238   6.824 -0.8287  0.2977 -0.6141
  127OSM    C2F13596   0.533   6.406   6.982  0.3907  0.3472 -0.2379
  127OSM    H2F13597   0.497   6.509   6.960 -0.8649 -0.0361 -0.0260
  127OSM    H2G13598   0.625   6.416   7.043 -0.2609  2.1834  0.4954
  127OSM    C3F13599   0.426   6.328   7.060  0.2412 -0.5915  0.6323
  127OSM    H3F13600   0.460   6.225   7.081  1.6492 -0.6068 -1.4344
  127OSM    H3G13601   0.330   6.327   7.004 -0.4540 -0.3081  1.7852
  127OSM    C4F13602   0.385   6.388   7.192  0.8303  0.3993  0.1749
  127OSM    H4F13603   0.297   6.338   7.238 -0.8393  1.4928 -1.6908
  127OSM    H4G13604   0.351   6.492   7.176 -2.9047 -0.6575  0.3958
  127OSM    C5F13605   0.497   6.390   7.296  0.2893  0.5540  0.1332
  127OSM    H5F13606   0.454   6.438   7.387  0.4088  1.8653 -0.4780
  127OSM    H5G13607   0.582   6.451   7.259  1.1772 -1.4053 -1.1706
  127OSM    C6F13608   0.545   6.245   7.329 -1.0427  0.2297  0.8546
  127OSM    H6F13609   0.580   6.203   7.232 -2.9182  0.1104  0.1973
  127OSM    H6G13610   0.463   6.174   7.352 -1.1033 -0.5388 -1.5132
  127OSM    C7F13611   0.644   6.233   7.448  0.9491 -0.1523 -0.1559
  127OSM    H7F13612   0.590   6.278   7.534  1.2825 -0.7974  0.4029
  127OSM    H7G13613   0.729   6.302   7.430 -0.5126  2.5610  2.5205
  127OSM    C8F13614   0.686   6.082   7.483 -0.1674 -0.8807 -0.1999
  127OSM    H8F13615   0.720   6.036   7.388 -1.0149 -1.7442 -0.1045
  127OSM    H8G13616   0.598   6.021   7.515 -1.4702  0.4910 -1.0299
  127OSM    C9F13617   0.789   6.078   7.591  0.0748 -0.0994 -0.7440
  127OSM    H9F13618   0.882   6.135   7.577 -0.0159  0.1101 -0.5094
  127OSM   C10F13619   0.785   6.008   7.706 -0.3059 -0.3641 -0.7163
  127OSM   H10F13620   0.871   6.020   7.774 -0.1379  3.5071 -1.3547
  127OSM   C11F13621   0.673   5.919   7.761  0.6964  0.7467 -0.6046
  127OSM   H11F13622   0.726   5.823   7.780  0.3411  1.1799  3.4945
  127OSM   H11G13623   0.593   5.917   7.684  0.3338  3.2164 -0.3739
  127OSM   C12F13624   0.626   5.966   7.898  0.5196  0.2150 -0.1670
  127OSM   H12F13625   0.570   6.060   7.878  1.3649  0.5712 -0.9252
  127OSM   H12G13626   0.712   5.997   7.961  0.0204 -1.3452  1.3651
  127OSM   C13F13627   0.547   5.859   7.966  0.0816 -0.0537 -0.2529
  127OSM   H13F13628   0.608   5.766   7.959  0.8123  0.5195 -1.9120
  127OSM   H13G13629   0.457   5.842   7.904  0.5834 -0.1497 -0.9751
  127OSM   C14F13630   0.491   5.885   8.110 -1.0977  0.3738 -0.1597
  127OSM   H14F13631   0.411   5.962   8.110 -1.4951 -0.0009  1.6812
  127OSM   H14G13632   0.576   5.921   8.171 -1.3315 -0.0759  0.4363
  127OSM   C15F13633   0.447   5.757   8.178  0.5699 -0.4528 -0.1014
  127OSM   H15F13634   0.530   5.692   8.213 -1.2944 -2.8240  0.1796
  127OSM   H15G13635   0.374   5.708   8.111  2.6842 -0.3215 -2.6793
  127OSM   C16F13636   0.378   5.800   8.310  0.2324  0.3397  0.0199
  127OSM   H16F13637   0.289   5.858   8.278 -1.3319 -3.0866 -2.3968
  127OSM   H16G13638   0.436   5.858   8.386 -0.4468 -3.3231  3.7283
  127OSM   C17F13639   0.318   5.678   8.384 -0.1462  0.1511 -0.0102
  127OSM   H17F13640   0.228   5.641   8.331 -1.1726 -0.0724  1.8016
  127OSM   H17G13641   0.274   5.711   8.480  2.3371  1.9954  0.6138
  127OSM   C18F13642   0.419   5.570   8.420  0.0226  0.1224  0.4928
  127OSM   H18F13643   0.491   5.609   8.494  0.5236 -0.4722  0.3245
  127OSM   H18G13644   0.470   5.534   8.328 -1.3600 -0.2064 -0.1801
  127OSM   H18H13645   0.372   5.480   8.465 -0.8507 -0.0110 -0.6235
  128OSM      N13646   0.179   4.215   6.391 -0.0685  0.0807 -0.7845
  128OSM    C1513647   0.213   4.290   6.511  0.4504 -0.3656  0.1786
  128OSM   H15A13648   0.123   4.276   6.570 -0.1602 -0.0733 -0.6617
  128OSM   H15B13649   0.213   4.397   6.494 -1.4774 -0.2256  0.8348
  128OSM   H15C13650   0.303   4.259   6.561  0.8028  1.1349  0.5208
  128OSM    C1413651   0.071   4.300   6.319 -0.1942  0.0573 -0.2325
  128OSM   H14A13652   0.105   4.402   6.311 -1.5259  0.7475  1.9021
  128OSM   H14B13653  -0.021   4.296   6.376 -1.1344  0.7886 -1.6321
  128OSM   H14C13654   0.049   4.254   6.224  2.1945  1.6863 -1.6678
  128OSM    C1313655   0.310   4.202   6.317  0.7050  0.0110 -0.0289
  128OSM   H13A13656   0.352   4.298   6.290  2.2710 -0.9881 -1.3929
  128OSM   H13B13657   0.305   4.149   6.223  0.0608  0.5167 -0.2931
  128OSM   H13C13658   0.375   4.144   6.380 -0.2113 -0.6660  0.3180
  128OSM    C1213659   0.140   4.075   6.429  0.6302 -0.0810 -0.6961
  128OSM   H12A13660   0.209   4.032   6.500 -1.9390 -0.0956  2.0256
  128OSM   H12B13661   0.150   4.009   6.344  3.1774  0.2916 -0.7525
  128OSM    C1113662   0.011   4.052   6.510 -0.1076 -0.1269  0.1895
  128OSM   H11A13663   0.010   4.110   6.605  2.1276  2.5163 -1.2471
  128OSM   H11B13664  -0.010   3.944   6.530 -2.0110  0.7544  3.8924
  128OSM      P13665  -0.170   4.046   6.311 -0.0763  0.3045  0.0695
  128OSM    O1313666  -0.270   4.146   6.253  0.4002 -0.2645  0.1222
  128OSM    O1413667  -0.070   3.988   6.217 -0.2999  0.1238 -0.2708
  128OSM    O1113668  -0.254   3.939   6.389 -0.1497 -0.9744 -0.6109
  128OSM    O1213669  -0.098   4.105   6.437 -0.4518  0.1092 -0.6471
  128OSM    C1S13670  -0.315   3.950   6.516 -0.0923  0.4943 -0.3806
  128OSM    H1S13671  -0.401   4.020   6.505  0.3155  1.2969  1.2279
  128OSM    H1T13672  -0.246   3.999   6.589  2.3213 -2.3157 -0.5786
  128OSM     NF13673  -0.431   3.842   6.710 -0.0241 -0.4844 -0.2036
  128OSM    HNF13674  -0.384   3.801   6.788 -1.4270 -0.7442  0.5390
  128OSM    C2S13675  -0.360   3.820   6.585  0.0998  0.3711 -0.0092
  128OSM    H2S13676  -0.436   3.766   6.524 -0.0689 -1.0627  1.3992
  128OSM    C3S13677  -0.242   3.726   6.609 -0.3351  0.4200  0.8192
  128OSM    H3S13678  -0.179   3.767   6.691 -0.0465  0.1432  0.7387
  128OSM     O313679  -0.159   3.713   6.493 -0.7124  0.5012  0.3136
  128OSM    HO313680  -0.188   3.787   6.439 -2.2924 -0.3768 -0.0903
  128OSM    C4S13681  -0.294   3.591   6.654 -0.0881 -0.4537 -0.0238
  128OSM    H4S13682  -0.345   3.546   6.568  0.1478  1.3130 -1.1625
  128OSM    C5S13683  -0.256   3.525   6.761  0.6122 -0.1268  0.4250
  128OSM    H5S13684  -0.186   3.565   6.835 -0.2767  1.8248  0.2797
  128OSM    C6S13685  -0.312   3.396   6.805  0.1996 -0.1819  0.4216
  128OSM    H6S13686  -0.379   3.415   6.892 -0.7739 -0.9250 -0.1368
  128OSM    H6T13687  -0.233   3.323   6.833 -0.0029 -0.3701  0.5044
  128OSM    C7S13688  -0.411   3.323   6.714 -0.2084 -0.0091  0.0589
  128OSM    H7S13689  -0.361   3.282   6.623 -2.4325  1.2572 -1.8701
  128OSM    H7T13690  -0.487   3.393   6.674  2.2567  2.7935 -0.0371
  128OSM    C8S13691  -0.469   3.200   6.785  0.5995  0.1809 -0.1407
  128OSM    H8S13692  -0.507   3.137   6.702  0.5495  1.4706 -1.1424
  128OSM    H8T13693  -0.559   3.235   6.841  0.9484  0.6680  0.1343
  128OSM    C9S13694  -0.381   3.120   6.885 -0.0266  0.9618 -0.9345
  128OSM    H9S13695  -0.361   3.185   6.973 -1.9546 -0.8348  0.9658
  128OSM    H9T13696  -0.287   3.086   6.839 -0.6206 -0.5122 -1.1162
  128OSM   C10S13697  -0.447   2.994   6.933  0.6576 -0.1144 -0.9056
  128OSM   H10S13698  -0.495   2.929   6.857  0.9682 -0.4650 -0.8056
  128OSM   H10T13699  -0.527   3.025   7.004  2.9156  1.1866  1.2208
  128OSM   C11S13700  -0.343   2.916   7.014 -0.6475  0.2312 -0.6599
  128OSM   H11S13701  -0.235   2.921   6.990  0.0165  1.0422  2.1435
  128OSM   H11T13702  -0.369   2.809   6.998  0.7707 -0.1778 -0.3669
  128OSM   C12S13703  -0.367   2.948   7.156  0.2809 -0.0474 -0.0476
  128OSM   H12S13704  -0.474   2.933   7.181  0.1680 -0.7060 -0.8870
  128OSM   H12T13705  -0.350   3.058   7.167 -0.2282 -0.0396  0.6963
  128OSM   C13S13706  -0.268   2.881   7.248 -0.3295 -0.7366 -0.0229
  128OSM   H13S13707  -0.161   2.900   7.228 -0.5647 -0.6289 -1.2363
  128OSM   H13T13708  -0.283   2.771   7.249  0.6375 -0.8772 -0.2190
  128OSM   C14S13709  -0.284   2.940   7.390 -0.6631  0.2833 -0.2508
  128OSM   H14S13710  -0.392   2.958   7.409 -0.2633  2.8380 -0.0685
  128OSM   H14T13711  -0.241   3.042   7.398 -1.7838  0.8216 -0.8613
  128OSM   C15S13712  -0.231   2.849   7.505 -0.8877  0.0940  0.0644
  128OSM   H15S13713  -0.121   2.836   7.510 -0.7118  1.7961  1.2414
  128OSM   H15T13714  -0.272   2.747   7.485 -1.4097  0.3492 -0.2009
  128OSM   C16S13715  -0.294   2.886   7.642 -0.4770  0.1515 -0.2018
  128OSM   H16S13716  -0.405   2.877   7.636 -0.3118 -1.4318 -1.9525
  128OSM   H16T13717  -0.265   2.988   7.674  2.1790 -0.1687 -1.3353
  128OSM   C17S13718  -0.262   2.791   7.761  0.2941 -0.4378  0.0461
  128OSM   H17S13719  -0.152   2.801   7.779  0.3243 -0.9884  0.1833
  128OSM   H17T13720  -0.279   2.687   7.726  2.5056 -0.2947 -1.7019
  128OSM   C18S13721  -0.328   2.822   7.895 -0.2486  0.1684  0.3630
  128OSM   H18S13722  -0.434   2.844   7.872  0.0209 -0.7435 -1.9681
  128OSM   H18T13723  -0.286   2.915   7.941 -0.5495  0.4413  0.0953
  128OSM   H18U13724  -0.322   2.740   7.969  1.0696 -0.8455 -0.8337
  128OSM    C1F13725  -0.531   3.925   6.736  0.6732 -0.0621  0.7739
  128OSM     OF13726  -0.588   3.988   6.646 -0.1009 -0.2258  0.2376
  128OSM    C2F13727  -0.559   3.933   6.880 -0.5369  0.3143  0.1213
  128OSM    H2F13728  -0.459   3.939   6.929 -0.8578 -0.1986  0.8542
  128OSM    H2G13729  -0.603   3.836   6.914  0.9994 -1.1195 -1.7792
  128OSM    C3F13730  -0.646   4.047   6.916  0.1123  0.1636 -0.1716
  128OSM    H3F13731  -0.734   4.071   6.852  0.6320  0.7913 -0.6729
  128OSM    H3G13732  -0.588   4.142   6.924 -0.8398  0.8261 -0.8016
  128OSM    C4F13733  -0.715   4.025   7.048 -0.3575 -0.0811 -0.3029
  128OSM    H4F13734  -0.748   3.919   7.058 -1.1651  0.1520 -0.4243
  128OSM    H4G13735  -0.809   4.082   7.062 -0.3518  0.1408 -1.0881
  128OSM    C5F13736  -0.607   4.027   7.166  0.3119  0.3062  0.1220
  128OSM    H5F13737  -0.551   4.123   7.171  0.8994 -0.1010  2.6710
  128OSM    H5G13738  -0.527   3.953   7.146 -0.4079 -0.7213  0.9801
  128OSM    C6F13739  -0.672   3.994   7.303  0.0197  0.2756  0.1193
  128OSM    H6F13740  -0.607   4.025   7.387 -0.8335 -0.2894  1.0082
  128OSM    H6G13741  -0.684   3.884   7.307  0.0833  0.2007 -1.3312
  128OSM    C7F13742  -0.808   4.061   7.327  0.4651  0.6755 -0.1866
  128OSM    H7F13743  -0.838   4.034   7.431 -0.5779 -0.8908 -0.8563
  128OSM    H7G13744  -0.881   4.015   7.257  0.5876 -0.7018  0.5509
  128OSM    C8F13745  -0.819   4.213   7.313  0.1969 -0.0311  0.0590
  128OSM    H8F13746  -0.752   4.249   7.233 -0.0060 -1.3324 -0.7158
  128OSM    H8G13747  -0.784   4.245   7.414 -1.3404 -2.2053  1.3801
  128OSM    C9F13748  -0.963   4.248   7.287  0.9106 -0.7502  0.4080
  128OSM    H9F13749  -1.006   4.192   7.202 -0.9335 -1.7620  1.9263
  128OSM   C10F13750  -1.036   4.333   7.367 -0.3280 -0.7677  1.0799
  128OSM   H10F13751  -1.135   4.364   7.329  0.8823 -0.5480 -2.1922
  128OSM   C11F13752  -0.994   4.418   7.481  0.6386  0.8525 -0.2250
  128OSM   H11F13753  -1.020   4.524   7.464  0.8420  1.2710  1.8253
  128OSM   H11G13754  -0.884   4.417   7.496  0.6103 -1.2841  0.0938
  128OSM   C12F13755  -1.041   4.381   7.620 -0.4433 -1.2194 -0.2143
  128OSM   H12F13756  -1.150   4.361   7.624 -1.2492  2.5315  0.4592
  128OSM   H12G13757  -1.037   4.469   7.688 -0.2086  0.5798 -2.4402
  128OSM   C13F13758  -0.976   4.268   7.692  0.0389 -0.2961  0.2301
  128OSM   H13F13759  -0.980   4.173   7.634 -2.5365 -0.2766  0.2418
  128OSM   H13G13760  -1.040   4.243   7.780 -1.4184 -2.2555 -1.2959
  128OSM   C14F13761  -0.827   4.296   7.733  0.2661  0.1790  0.6066
  128OSM   H14F13762  -0.831   4.378   7.808 -1.4647 -1.6861  2.7300
  128OSM   H14G13763  -0.765   4.317   7.644  2.2483 -1.6069  1.4946
  128OSM   C15F13764  -0.769   4.172   7.801 -0.3578 -0.0680  0.3090
  128OSM   H15F13765  -0.852   4.121   7.854 -0.6930 -2.0904 -2.0010
  128OSM   H15G13766  -0.690   4.197   7.875 -0.2915 -0.2686  0.3065
  128OSM   C16F13767  -0.689   4.079   7.705  0.8267  0.3489  0.1409
  128OSM   H16F13768  -0.634   4.147   7.635  0.1512  0.8428  0.0754
  128OSM   H16G13769  -0.750   4.012   7.639 -0.0823  1.1182  0.1701
  128OSM   C17F13770  -0.593   3.989   7.770  0.2531 -0.3996 -0.6302
  128OSM   H17F13771  -0.523   4.056   7.823  0.9371 -0.0093 -1.9696
  128OSM   H17G13772  -0.536   3.931   7.694  1.0039  1.5665 -1.6585
  128OSM   C18F13773  -0.634   3.903   7.891 -0.2414 -0.0946  0.7636
  128OSM   H18F13774  -0.685   3.964   7.968 -1.4535  0.3349 -0.3439
  128OSM   H18G13775  -0.543   3.858   7.937 -0.3787 -0.0254  1.1014
  128OSM   H18H13776  -0.702   3.822   7.857  1.7637 -0.7717 -2.0858
  129OSM      N13777   3.660   5.243   6.212 -0.5977 -0.1555  0.1312
  129OSM    C1513778   3.590   5.111   6.215 -0.4082  0.4111 -0.7389
  129OSM   H15A13779   3.612   5.046   6.131 -0.9169 -1.6969  0.6885
  129OSM   H15B13780   3.482   5.114   6.211 -0.3699  3.2754 -2.7598
  129OSM   H15C13781   3.620   5.056   6.303 -1.6102  0.4945 -0.2586
  129OSM    C1413782   3.610   5.321   6.089  0.1480  0.3710 -0.3344
  129OSM   H14A13783   3.637   5.275   5.995  0.4322  1.9656 -1.0721
  129OSM   H14B13784   3.655   5.419   6.078  0.8023 -0.0266 -1.3763
  129OSM   H14C13785   3.503   5.335   6.095  0.1876  0.4975  0.1475
  129OSM    C1313786   3.631   5.325   6.333  0.1224  0.1832 -0.3066
  129OSM   H13A13787   3.525   5.346   6.334  0.0194 -0.3153  0.3297
  129OSM   H13B13788   3.679   5.422   6.327  0.3620  0.1304  0.6279
  129OSM   H13C13789   3.652   5.274   6.426 -1.4164 -0.7831 -0.4556
  129OSM    C1213790   3.817   5.222   6.202  0.7886  0.1250  0.0758
  129OSM   H12A13791   3.848   5.183   6.297  0.4867  3.1793  1.5596
  129OSM   H12B13792   3.865   5.318   6.193 -0.1509  0.6856  0.8487
  129OSM    C1113793   3.855   5.124   6.097 -0.3647 -0.0010 -0.8231
  129OSM   H11A13794   3.956   5.156   6.064  0.1313 -0.4736  0.1867
  129OSM   H11B13795   3.789   5.154   6.013  1.5121  3.4474 -1.2382
  129OSM      P13796   3.958   4.915   6.214  0.3938  0.1140 -0.0326
  129OSM    O1313797   3.908   4.787   6.271 -0.5501  0.1199 -0.2707
  129OSM    O1413798   4.064   4.918   6.121  0.0975  0.2872  0.1893
  129OSM    O1113799   4.005   5.012   6.334  0.0192 -0.7480  0.0397
  129OSM    O1213800   3.838   4.987   6.147 -0.7000  0.5423  0.0438
  129OSM    C1S13801   3.941   5.024   6.459  0.2907 -0.4445 -0.4819
  129OSM    H1S13802   3.833   5.001   6.450  0.0692  0.8880 -1.6812
  129OSM    H1T13803   3.954   5.131   6.486  0.1700 -0.4479 -0.4118
  129OSM     NF13804   3.943   4.960   6.705 -0.0241  0.1225 -0.3131
  129OSM    HNF13805   4.004   4.996   6.775  1.8158  0.3987 -1.9805
  129OSM    C2S13806   4.016   4.951   6.574 -0.0085 -0.4351 -0.3214
  129OSM    H2S13807   4.017   4.842   6.553  1.7474 -0.3265 -0.9340
  129OSM    C3S13808   4.162   4.993   6.584  0.5594 -0.3707 -0.0927
  129OSM    H3S13809   4.172   5.097   6.620  4.4804 -0.5951 -0.0549
  129OSM     O313810   4.232   4.978   6.463 -0.3950 -0.0563 -0.0195
  129OSM    HO313811   4.171   4.978   6.389 -0.6381 -0.8831  0.1662
  129OSM    C4S13812   4.222   4.897   6.690 -0.0068  0.3751  0.2018
  129OSM    H4S13813   4.190   4.792   6.679  2.5328 -0.4472 -0.1545
  129OSM    C5S13814   4.301   4.933   6.794  0.0342  0.0544 -0.0169
  129OSM    H5S13815   4.342   5.034   6.800  2.1710 -0.6541 -1.3397
  129OSM    C6S13816   4.348   4.848   6.910 -0.2973  0.2672 -0.4227
  129OSM    H6S13817   4.422   4.897   6.977 -2.1422  0.2616  1.7706
  129OSM    H6T13818   4.403   4.757   6.879 -0.6193  0.5193 -1.7834
  129OSM    C7S13819   4.229   4.807   6.998  0.2437 -0.0017  0.0481
  129OSM    H7S13820   4.261   4.729   7.070  1.6710  0.0013 -0.5534
  129OSM    H7T13821   4.143   4.753   6.952  1.0861 -2.3366  1.0747
  129OSM    C8S13822   4.165   4.926   7.070  0.3567  0.2611  0.4123
  129OSM    H8S13823   4.093   4.970   6.998  1.0051  1.2233  0.3305
  129OSM    H8T13824   4.234   5.012   7.086  1.2137 -0.4557  0.6567
  129OSM    C9S13825   4.076   4.884   7.186 -0.3470  0.1741  0.0720
  129OSM    H9S13826   4.022   4.788   7.176 -1.9141  1.0295 -0.0066
  129OSM    H9T13827   3.997   4.961   7.184  1.2179  1.8696 -2.4352
  129OSM   C10S13828   4.143   4.895   7.322  0.0940 -0.0873  0.3234
  129OSM   H10S13829   4.197   4.991   7.323 -2.2793  1.4061 -2.0186
  129OSM   H10T13830   4.218   4.814   7.335 -1.2840 -1.4138  0.2885
  129OSM   C11S13831   4.035   4.891   7.439  0.1905 -0.6113  0.2489
  129OSM   H11S13832   3.971   4.800   7.434  1.0004 -1.3287  1.9377
  129OSM   H11T13833   3.972   4.982   7.428 -1.7898 -1.8984  0.5251
  129OSM   C12S13834   4.115   4.911   7.570  0.8334  0.8043 -0.4668
  129OSM   H12S13835   4.100   5.017   7.601 -2.8606  0.2805  0.0005
  129OSM   H12T13836   4.224   4.895   7.556  1.4057  3.1958  0.7110
  129OSM   C13S13837   4.063   4.820   7.681  0.7253  0.5245 -0.1066
  129OSM   H13S13838   4.105   4.720   7.657  1.6475  1.1274 -1.1046
  129OSM   H13T13839   3.953   4.818   7.697  1.1292  1.7087  4.0761
  129OSM   C14S13840   4.127   4.861   7.823  0.3517  0.3436  0.4956
  129OSM   H14S13841   4.098   4.964   7.855  0.8345  1.6305 -2.8321
  129OSM   H14T13842   4.237   4.881   7.817  0.8889 -2.3902  0.0118
  129OSM   C15S13843   4.099   4.755   7.923  0.3028  0.9344  0.4834
  129OSM   H15S13844   4.152   4.660   7.903 -0.2190  0.6476  0.4344
  129OSM   H15T13845   3.991   4.732   7.908  0.0261  1.0645  2.1278
  129OSM   C16S13846   4.127   4.787   8.063  0.1541  0.9782  0.2329
  129OSM   H16S13847   4.074   4.881   8.087  2.8545  2.9053 -0.8231
  129OSM   H16T13848   4.231   4.817   8.087  0.3400  1.1727 -0.7757
  129OSM   C17S13849   4.075   4.680   8.162 -0.2300 -0.5441 -0.0704
  129OSM   H17S13850   3.980   4.635   8.125  0.1232  0.0920 -1.8574
  129OSM   H17T13851   4.064   4.739   8.255  1.0798 -1.3194  0.6019
  129OSM   C18S13852   4.179   4.573   8.195  0.0449  0.1902  0.3739
  129OSM   H18S13853   4.213   4.533   8.098  0.8551  1.6303  0.0436
  129OSM   H18T13854   4.139   4.499   8.268  2.9695 -0.1466  1.7745
  129OSM   H18U13855   4.267   4.617   8.247  0.1544  3.1766 -2.0729
  129OSM    C1F13856   3.816   4.916   6.716  0.1508  0.5860 -0.8122
  129OSM     OF13857   3.753   4.864   6.625  0.0847  0.4834 -0.1870
  129OSM    C2F13858   3.760   4.924   6.857  0.3005  0.4827 -1.1187
  129OSM    H2F13859   3.817   4.994   6.922  1.3623 -0.5535 -0.8889
  129OSM    H2G13860   3.758   4.821   6.899  0.7087 -0.0003 -2.2454
  129OSM    C3F13861   3.603   4.941   6.858  0.6630 -0.3372 -0.8244
  129OSM    H3F13862   3.555   4.858   6.802 -1.5274 -0.3370  0.9099
  129OSM    H3G13863   3.575   5.042   6.821 -1.3539 -0.4378  0.2827
  129OSM    C4F13864   3.540   4.929   7.002 -0.2365 -0.4310  0.1863
  129OSM    H4F13865   3.543   4.820   7.019  1.0056 -0.4368  0.0007
  129OSM    H4G13866   3.433   4.957   7.003 -0.5708 -1.6720  1.4531
  129OSM    C5F13867   3.612   4.992   7.122 -0.1977 -0.2892  0.2805
  129OSM    H5F13868   3.601   5.102   7.109  0.0765 -0.3855 -0.9469
  129OSM    H5G13869   3.722   4.974   7.114  0.2236  0.7178  2.8396
  129OSM    C6F13870   3.583   4.932   7.256 -0.1993 -0.9118  0.4301
  129OSM    H6F13871   3.586   4.821   7.257  1.9246 -0.8986  0.9675
  129OSM    H6G13872   3.476   4.954   7.274 -0.9820 -2.3524 -2.0770
  129OSM    C7F13873   3.673   4.987   7.368 -0.3141 -0.2401  0.3837
  129OSM    H7F13874   3.648   5.094   7.387 -0.6030  0.4925 -3.3615
  129OSM    H7G13875   3.780   4.990   7.337 -0.7087  1.8438 -0.9791
  129OSM    C8F13876   3.677   4.907   7.500  0.6457  0.3416  0.4617
  129OSM    H8F13877   3.754   4.954   7.565  0.1305  3.2241 -0.8856
  129OSM    H8G13878   3.706   4.800   7.489 -0.8282  0.0771 -1.2560
  129OSM    C9F13879   3.553   4.901   7.582 -0.6335  0.2316 -0.6793
  129OSM    H9F13880   3.459   4.925   7.531 -1.1344  1.1282  0.6366
  129OSM   C10F13881   3.548   4.887   7.718  0.0739 -0.1565 -0.3025
  129OSM   H10F13882   3.449   4.877   7.764  0.7285 -2.1360  0.7806
  129OSM   C11F13883   3.670   4.858   7.803  0.6005  0.4773  0.0498
  129OSM   H11F13884   3.768   4.895   7.765  0.8582  0.6079  0.8036
  129OSM   H11G13885   3.688   4.749   7.816  2.4036  0.8644  1.1961
  129OSM   C12F13886   3.646   4.923   7.941  1.1027  0.8031  0.0241
  129OSM   H12F13887   3.545   4.901   7.980  1.5210  0.3149  0.8489
  129OSM   H12G13888   3.649   5.033   7.926  0.3349  0.6620 -1.4210
  129OSM   C13F13889   3.751   4.881   8.040 -0.1074 -0.5497 -0.0197
  129OSM   H13F13890   3.841   4.941   8.013  0.2641 -1.0399  0.1076
  129OSM   H13G13891   3.777   4.774   8.025  2.9900  0.0543  0.4483
  129OSM   C14F13892   3.718   4.920   8.187 -0.1754  0.0855  0.6426
  129OSM   H14F13893   3.615   4.884   8.210  0.1750 -1.2456  0.2523
  129OSM   H14G13894   3.714   5.031   8.191  0.8328  0.1654 -0.0776
  129OSM   C15F13895   3.819   4.862   8.287 -0.4942  0.1752 -0.2841
  129OSM   H15F13896   3.917   4.909   8.266 -0.5991  0.2394 -0.6309
  129OSM   H15G13897   3.817   4.752   8.276 -0.2147  0.2264 -0.8755
  129OSM   C16F13898   3.790   4.883   8.427 -0.6090 -0.0810 -0.5870
  129OSM   H16F13899   3.788   4.994   8.438 -0.7805 -0.1668  0.3090
  129OSM   H16G13900   3.868   4.841   8.494 -0.0062  0.3914 -0.9774
  129OSM   C17F13901   3.658   4.831   8.492  0.3125 -0.1172  0.4360
  129OSM   H17F13902   3.647   4.722   8.470  1.4368 -0.1382 -0.0703
  129OSM   H17G13903   3.580   4.893   8.444  1.2570 -0.4022 -1.5579
  129OSM   C18F13904   3.646   4.849   8.644 -0.0447 -0.3967 -0.5555
  129OSM   H18F13905   3.641   4.957   8.668  0.7098 -0.3872 -0.4133
  129OSM   H18G13906   3.736   4.800   8.688 -0.3487 -0.9159 -0.5005
  129OSM   H18H13907   3.554   4.801   8.682 -1.6605  2.9131 -0.0112
  130OSM      N13908   5.649   2.839   6.386  0.1171 -0.4902  0.2898
  130OSM    C1513909   5.649   2.985   6.337  0.2871  0.3858  0.6918
  130OSM   H15A13910   5.751   3.003   6.307 -0.1348  1.0861 -0.4159
  130OSM   H15B13911   5.605   3.059   6.402  1.7455  3.9720 -2.0104
  130OSM   H15C13912   5.602   2.987   6.239 -0.9087 -1.6240  1.1709
  130OSM    C1413913   5.747   2.765   6.302  0.1109 -0.1146  0.6219
  130OSM   H14A13914   5.735   2.659   6.318 -3.4915  0.1633  0.5760
  130OSM   H14B13915   5.849   2.799   6.317  0.5731 -1.5499  0.8691
  130OSM   H14C13916   5.729   2.781   6.197 -1.9542 -0.5803  0.8739
  130OSM    C1313917   5.697   2.822   6.531  0.5556 -0.0311  0.3927
  130OSM   H13A13918   5.621   2.863   6.597 -1.2966 -0.6189 -1.2678
  130OSM   H13B13919   5.784   2.884   6.549  1.1067 -0.4016 -0.8945
  130OSM   H13C13920   5.711   2.723   6.572  0.3048  0.5618  1.9781
  130OSM    C1213921   5.507   2.782   6.366  0.0352 -0.2043 -0.9267
  130OSM   H12A13922   5.438   2.841   6.425 -1.8088 -1.8272 -1.3670
  130OSM   H12B13923   5.499   2.688   6.418  0.5554 -0.7400 -1.7790
  130OSM    C1113924   5.436   2.758   6.231  0.1791  0.2521  0.7967
  130OSM   H11A13925   5.334   2.714   6.240  1.7073 -3.9732 -0.2018
  130OSM   H11B13926   5.488   2.679   6.173 -2.3430 -2.7662  2.3024
  130OSM      P13927   5.329   2.994   6.160 -0.3723  0.0049  0.5675
  130OSM    O1313928   5.391   3.117   6.213 -0.0330  0.4839  0.7320
  130OSM    O1413929   5.256   3.006   6.035 -0.0704 -0.1460  0.2307
  130OSM    O1113930   5.231   2.946   6.269  0.3056  0.1088 -0.5890
  130OSM    O1213931   5.434   2.876   6.150 -0.0704  0.1690  0.2366
  130OSM    C1S13932   5.110   2.871   6.238 -0.1841 -0.2443 -0.4233
  130OSM    H1S13933   5.129   2.778   6.181 -1.7539 -1.3229  0.7403
  130OSM    H1T13934   5.043   2.926   6.169 -1.7386 -1.3678  0.1413
  130OSM     NF13935   4.935   2.726   6.343  0.5401 -0.0194  0.0591
  130OSM    HNF13936   4.844   2.757   6.318  0.8242 -0.9955 -2.5816
  130OSM    C2S13937   5.027   2.829   6.367 -0.0660 -1.4465 -0.0644
  130OSM    H2S13938   5.113   2.795   6.428  1.7321  2.3156 -0.1939
  130OSM    C3S13939   4.961   2.957   6.435 -0.2093 -0.2768  0.7065
  130OSM    H3S13940   4.889   3.014   6.373 -1.4613 -1.0937  1.3758
  130OSM     O313941   5.061   3.059   6.469 -0.2676 -0.2938 -0.1279
  130OSM    HO313942   5.145   3.026   6.435 -0.5008  0.0265 -1.0175
  130OSM    C4S13943   4.888   2.893   6.554 -0.7191  0.1098 -0.0734
  130OSM    H4S13944   4.965   2.854   6.623  2.7925  2.3383 -2.3869
  130OSM    C5S13945   4.761   2.884   6.586  0.0618 -0.3984 -0.1747
  130OSM    H5S13946   4.688   2.929   6.517 -0.2426  0.2513  0.5557
  130OSM    C6S13947   4.705   2.807   6.701 -0.2975  0.0855  0.2203
  130OSM    H6S13948   4.761   2.711   6.704 -1.6751 -0.7407  0.9205
  130OSM    H6T13949   4.599   2.778   6.680 -0.4296  2.1812 -2.5770
  130OSM    C7S13950   4.702   2.874   6.843  0.3388 -0.0375  0.1797
  130OSM    H7S13951   4.633   2.961   6.850 -0.0256 -0.3914  1.1086
  130OSM    H7T13952   4.799   2.926   6.855 -0.0616  0.4683  1.3294
  130OSM    C8S13953   4.665   2.790   6.965  0.3833  0.8931 -0.0225
  130OSM    H8S13954   4.736   2.705   6.955  0.7905  1.2608 -0.2743
  130OSM    H8T13955   4.559   2.759   6.953  0.7260 -0.3348  0.0110
  130OSM    C9S13956   4.680   2.862   7.097  0.2740  0.2328  0.0269
  130OSM    H9S13957   4.622   2.957   7.100 -0.6157 -0.3100  0.8768
  130OSM    H9T13958   4.788   2.882   7.106 -0.0153  1.0352  2.2632
  130OSM   C10S13959   4.623   2.786   7.216 -0.5591 -0.0577 -0.2197
  130OSM   H10S13960   4.672   2.687   7.224  0.4394  0.4705  0.3288
  130OSM   H10T13961   4.515   2.775   7.189 -0.3227  0.7190 -1.5286
  130OSM   C11S13962   4.639   2.861   7.348  0.0670  0.5829 -0.1383
  130OSM   H11S13963   4.615   2.968   7.330  0.3422  0.8116  0.8081
  130OSM   H11T13964   4.748   2.868   7.364 -0.0344  0.8943  0.4400
  130OSM   C12S13965   4.564   2.808   7.473 -0.0773  0.2877  0.0456
  130OSM   H12S13966   4.582   2.698   7.481  1.0411  0.1543 -3.0291
  130OSM   H12T13967   4.458   2.819   7.443 -0.3604  0.5687  1.1264
  130OSM   C13S13968   4.593   2.889   7.603 -0.0468  0.5115 -0.2885
  130OSM   H13S13969   4.513   2.859   7.674 -0.0415 -0.5924 -0.7332
  130OSM   H13T13970   4.576   2.997   7.584 -1.4853  0.0873 -1.6193
  130OSM   C14S13971   4.724   2.869   7.683  0.2538 -0.4645  0.1047
  130OSM   H14S13972   4.814   2.919   7.640  1.8704 -2.7795  0.6121
  130OSM   H14T13973   4.739   2.759   7.680 -1.9229 -0.7993 -0.0277
  130OSM   C15S13974   4.717   2.922   7.827 -0.6120 -0.0486  0.5034
  130OSM   H15S13975   4.633   2.867   7.875 -1.9495 -0.5757 -2.2021
  130OSM   H15T13976   4.695   3.031   7.832 -1.2501 -0.2031  1.2230
  130OSM   C16S13977   4.858   2.899   7.886  0.4320 -0.5738  0.2650
  130OSM   H16S13978   4.880   2.969   7.970  3.3229 -0.1134 -0.7752
  130OSM   H16T13979   4.933   2.932   7.812  0.2824 -0.7855  0.0192
  130OSM   C17S13980   4.879   2.766   7.959 -0.1926  0.1114  0.3457
  130OSM   H17S13981   4.989   2.761   7.973 -0.0779 -3.5637 -0.7046
  130OSM   H17T13982   4.853   2.678   7.895 -0.3107  1.1691 -1.1157
  130OSM   C18S13983   4.818   2.763   8.103  0.3004 -0.1901 -1.1240
  130OSM   H18S13984   4.877   2.835   8.165  2.4066 -1.4082 -1.6017
  130OSM   H18T13985   4.810   2.667   8.157 -0.9264  1.6818  2.3129
  130OSM   H18U13986   4.710   2.789   8.100 -0.0464 -1.4098  0.0363
  130OSM    C1F13987   4.974   2.604   6.323  0.0229  0.3659 -1.1450
  130OSM     OF13988   5.095   2.582   6.320  0.3724  0.2933 -0.3705
  130OSM    C2F13989   4.868   2.498   6.298  0.1734 -0.5513  0.0597
  130OSM    H2F13990   4.917   2.398   6.300  1.4753  0.0571 -0.2170
  130OSM    H2G13991   4.828   2.512   6.196 -1.3144 -2.7938  0.2672
  130OSM    C3F13992   4.752   2.493   6.408 -0.2948  0.1020 -0.4795
  130OSM    H3F13993   4.666   2.439   6.365 -1.3835  1.6383 -0.2963
  130OSM    H3G13994   4.716   2.595   6.432 -0.6958  0.3609 -2.0501
  130OSM    C4F13995   4.801   2.442   6.540  0.1390  0.8930  0.4153
  130OSM    H4F13996   4.874   2.519   6.575 -0.2377  1.5245 -0.1598
  130OSM    H4G13997   4.849   2.344   6.522 -2.2375 -0.0897 -0.9899
  130OSM    C5F13998   4.687   2.426   6.637 -0.2478  0.2347 -0.4193
  130OSM    H5F13999   4.606   2.357   6.605 -0.6206 -0.6199  2.1183
  130OSM    H5G14000   4.635   2.523   6.654 -0.6723 -0.5509  3.7988
  130OSM    C6F14001   4.730   2.390   6.782 -0.2336 -0.2721 -0.6041
  130OSM    H6F14002   4.818   2.451   6.811  1.4536 -3.2126  0.9806
  130OSM    H6G14003   4.787   2.295   6.785  0.9010  0.4088  0.3633
  130OSM    C7F14004   4.621   2.419   6.878 -0.6795  0.3828 -0.1468
  130OSM    H7F14005   4.531   2.355   6.865  0.4710 -1.3898  0.1720
  130OSM    H7G14006   4.582   2.520   6.852 -0.0546  0.7492  0.3240
  130OSM    C8F14007   4.669   2.411   7.027  0.4922  0.0436  0.5462
  130OSM    H8F14008   4.750   2.487   7.025 -1.1816  1.8775 -0.2167
  130OSM    H8G14009   4.702   2.309   7.057  0.1099  0.3188  1.9521
  130OSM    C9F14010   4.558   2.455   7.118  0.4750 -0.7797  0.8418
  130OSM    H9F14011   4.494   2.526   7.063 -2.1203 -3.2003  0.4795
  130OSM   C10F14012   4.523   2.422   7.239 -0.2003 -0.5347 -0.8518
  130OSM   H10F14013   4.434   2.465   7.287  0.5534  0.0043  0.1062
  130OSM   C11F14014   4.605   2.324   7.320 -0.2712  0.3705 -0.3915
  130OSM   H11F14015   4.713   2.323   7.291  0.1387 -1.9831  0.9242
  130OSM   H11G14016   4.572   2.218   7.321  2.9698 -0.7821 -1.5493
  130OSM   C12F14017   4.607   2.356   7.465 -0.1999 -0.3347  0.6025
  130OSM   H12F14018   4.622   2.465   7.478 -1.6373 -0.0710  0.2657
  130OSM   H12G14019   4.696   2.317   7.516  0.8826  2.1673  0.7778
  130OSM   C13F14020   4.472   2.310   7.529  0.6035  0.1421 -1.2567
  130OSM   H13F14021   4.453   2.206   7.497  0.9967 -1.1926  2.3547
  130OSM   H13G14022   4.393   2.380   7.495 -0.2482 -0.4301 -0.4902
  130OSM   C14F14023   4.467   2.308   7.682  1.0768  0.0951 -0.1559
  130OSM   H14F14024   4.555   2.256   7.726  0.1581 -0.7255  0.7538
  130OSM   H14G14025   4.378   2.249   7.712  0.5689  0.2724 -1.2863
  130OSM   C15F14026   4.452   2.445   7.746  0.2800  0.5974  0.3603
  130OSM   H15F14027   4.375   2.501   7.688  1.4618 -1.6105 -3.7654
  130OSM   H15G14028   4.546   2.498   7.721 -0.0883  0.4327 -1.5014
  130OSM   C16F14029   4.440   2.436   7.901 -0.3669 -0.0246  0.2180
  130OSM   H16F14030   4.457   2.330   7.931  0.5788  0.2243  0.5769
  130OSM   H16G14031   4.335   2.444   7.937 -0.6782 -2.0970 -0.0987
  130OSM   C17F14032   4.532   2.529   7.984  0.4540  0.0640 -0.1234
  130OSM   H17F14033   4.504   2.508   8.089  0.4043  0.4953 -0.0468
  130OSM   H17G14034   4.520   2.636   7.955  0.3804  0.1299  0.1519
  130OSM   C18F14035   4.671   2.474   7.963  0.0962  0.0792 -0.3875
  130OSM   H18F14036   4.677   2.366   7.989 -0.2187 -0.2397 -1.5788
  130OSM   H18G14037   4.740   2.532   8.028 -1.5055  2.6038 -0.7904
  130OSM   H18H14038   4.708   2.486   7.859 -1.8021 -1.1221 -1.2719
  131OSM      N14039   5.273   0.841   6.595  0.3321  0.6915  0.7175
  131OSM    C1514040   5.383   0.798   6.503  0.3383  0.2345  0.1840
  131OSM   H15A14041   5.481   0.833   6.534  1.0597  0.1376 -1.8461
  131OSM   H15B14042   5.350   0.835   6.408 -3.6117  1.1051  1.6762
  131OSM   H15C14043   5.387   0.690   6.497 -1.2839  0.1405  0.4270
  131OSM    C1414044   5.302   0.802   6.732  0.4427  0.2203  0.6519
  131OSM   H14A14045   5.214   0.813   6.793 -1.6624 -0.9410 -1.9517
  131OSM   H14B14046   5.369   0.876   6.771 -1.3013  2.0642  0.3098
  131OSM   H14C14047   5.362   0.713   6.744  1.6401  0.3206 -3.2181
  131OSM    C1314048   5.245   0.991   6.567 -0.9864  0.7114  0.0202
  131OSM   H13A14049   5.211   1.011   6.466 -0.5346  0.6146 -0.1552
  131OSM   H13B14050   5.336   1.049   6.574 -0.0782 -0.4230 -1.7385
  131OSM   H13C14051   5.181   1.036   6.641 -1.6385  0.4922 -0.3976
  131OSM    C1214052   5.146   0.769   6.542  0.6871 -0.3621  0.2310
  131OSM   H12A14053   5.108   0.801   6.447  0.6908  1.4415  0.8051
  131OSM   H12B14054   5.065   0.800   6.606 -1.0325 -1.5484 -1.2753
  131OSM    C1114055   5.158   0.614   6.532  0.3189 -0.3936  0.3149
  131OSM   H11A14056   5.055   0.576   6.548 -0.2560  0.3126 -1.5044
  131OSM   H11B14057   5.208   0.579   6.625 -0.5613  0.1913  1.0176
  131OSM      P14058   5.140   0.522   6.286 -0.1968 -0.0268 -0.1349
  131OSM    O1314059   5.003   0.572   6.283  0.2102  0.6561 -0.5389
  131OSM    O1414060   5.221   0.547   6.168 -0.5882  0.7959  0.2732
  131OSM    O1114061   5.125   0.366   6.303  0.3784  0.7760  0.2195
  131OSM    O1214062   5.222   0.569   6.413 -0.1821 -0.8061 -0.0757
  131OSM    C1S14063   5.224   0.261   6.335 -0.3672 -1.1557 -0.5708
  131OSM    H1S14064   5.323   0.293   6.296 -0.1261  1.0325  1.5879
  131OSM    H1T14065   5.197   0.171   6.275 -1.0767 -0.5765 -1.1343
  131OSM     NF14066   5.335   0.144   6.518  0.5668  0.1387  0.2663
  131OSM    HNF14067   5.311   0.048   6.503  0.6653  0.4161 -2.0673
  131OSM    C2S14068   5.231   0.237   6.480 -0.5033 -0.0478 -0.2267
  131OSM    H2S14069   5.245   0.332   6.536  0.4047 -0.1888 -0.1941
  131OSM    C3S14070   5.087   0.186   6.527  0.0796  1.1214 -0.1847
  131OSM    H3S14071   5.070   0.086   6.480 -0.2999  0.2008  1.8281
  131OSM     O314072   4.970   0.266   6.493  0.0259  0.4170  0.1726
  131OSM    HO314073   5.002   0.327   6.426  2.5773  0.2219  1.0930
  131OSM    C4S14074   5.094   0.173   6.678 -0.0174  0.4370 -0.5310
  131OSM    H4S14075   5.090   0.273   6.725 -0.5468  1.9197 -3.5329
  131OSM    C5S14076   5.098   0.058   6.752  0.4318  0.4314  0.0873
  131OSM    H5S14077   5.103  -0.039   6.701 -1.6204 -0.2105  0.9994
  131OSM    C6S14078   5.113   0.040   6.900 -0.6987 -0.0156 -0.1673
  131OSM    H6S14079   5.218   0.010   6.922 -0.2279 -0.4488 -2.6998
  131OSM    H6T14080   5.042  -0.040   6.931  0.2540 -0.0616  2.0565
  131OSM    C7S14081   5.084   0.162   6.991  0.3431 -0.7273 -1.0923
  131OSM    H7S14082   4.976   0.182   6.974 -0.1272 -1.6264  0.6202
  131OSM    H7T14083   5.133   0.249   6.943 -0.5837  0.6860  0.4062
  131OSM    C8S14084   5.101   0.136   7.147 -0.0100 -0.0819  0.2937
  131OSM    H8S14085   5.209   0.140   7.172  0.3126  0.8173 -1.1310
  131OSM    H8T14086   5.076   0.028   7.161  0.5353 -0.1717  0.6199
  131OSM    C9S14087   5.018   0.225   7.236  0.2304  0.2386 -0.4074
  131OSM    H9S14088   4.914   0.202   7.203  0.4169  1.4640 -1.9921
  131OSM    H9T14089   5.036   0.332   7.216  0.7099  0.4832  1.1966
  131OSM   C10S14090   5.025   0.196   7.385 -0.8475  0.2860  0.0646
  131OSM   H10S14091   5.121   0.241   7.418  0.5307 -1.5691 -1.2314
  131OSM   H10T14092   5.018   0.085   7.388  0.5320  0.2082  1.2307
  131OSM   C11S14093   4.909   0.254   7.470  0.2720 -0.5563  0.6665
  131OSM   H11S14094   4.814   0.199   7.454  0.3036 -1.0350  2.0660
  131OSM   H11T14095   4.887   0.351   7.419 -0.6633 -1.6508 -1.1032
  131OSM   C12S14096   4.945   0.247   7.624  0.3246 -0.0311 -0.3979
  131OSM   H12S14097   4.877   0.314   7.681 -0.2108 -3.0039  2.8175
  131OSM   H12T14098   5.050   0.279   7.643  0.4812 -1.2557  1.0123
  131OSM   C13S14099   4.940   0.097   7.670  0.0376 -0.2524 -0.4639
  131OSM   H13S14100   5.002   0.032   7.605  0.7084 -1.2789  1.1574
  131OSM   H13T14101   4.834   0.067   7.658 -1.2213  3.1675  0.6908
  131OSM   C14S14102   4.980   0.075   7.820  0.4941  0.4352  0.2990
  131OSM   H14S14103   5.087   0.103   7.832  2.2092 -5.5245  2.2817
  131OSM   H14T14104   4.976  -0.036   7.829 -2.0370  0.3721 -0.7102
  131OSM   C15S14105   4.897   0.143   7.930 -0.1459 -0.2305  0.5962
  131OSM   H15S14106   4.805   0.080   7.927 -0.5020  0.3139 -0.3630
  131OSM   H15T14107   4.866   0.244   7.894 -1.1425 -0.9954 -0.7670
  131OSM   C16S14108   4.964   0.145   8.065  0.1701 -0.5350  0.4588
  131OSM   H16S14109   5.067   0.183   8.057  0.1657 -0.5762  0.1872
  131OSM   H16T14110   4.971   0.044   8.112  0.3732 -0.5166  0.4700
  131OSM   C17S14111   4.885   0.226   8.171  0.4779  0.1247  0.4399
  131OSM   H17S14112   4.866   0.328   8.131  0.0351 -0.0598  0.1742
  131OSM   H17T14113   4.949   0.249   8.259 -1.1255  0.1795  1.6348
  131OSM   C18S14114   4.755   0.161   8.217  1.1608  0.0157  0.3130
  131OSM   H18S14115   4.774   0.054   8.240 -2.2940 -0.8267 -0.2590
  131OSM   H18T14116   4.682   0.170   8.134  1.5752  1.1570  0.0501
  131OSM   H18U14117   4.718   0.206   8.311 -0.3811 -1.5185  0.4821
  131OSM    C1F14118   5.470   0.170   6.520  0.3390 -0.2373 -0.1914
  131OSM     OF14119   5.515   0.285   6.505  0.1435 -0.0089 -0.2315
  131OSM    C2F14120   5.566   0.058   6.550  0.9053  0.9878  0.5503
  131OSM    H2F14121   5.571  -0.002   6.457  0.7999 -0.3184  1.3688
  131OSM    H2G14122   5.525  -0.012   6.626 -0.9347 -0.7245 -1.8409
  131OSM    C3F14123   5.706   0.110   6.587  0.5576  0.0764  0.1426
  131OSM    H3F14124   5.695   0.177   6.676 -0.6638  1.1201 -0.7558
  131OSM    H3G14125   5.735   0.178   6.504 -4.3166  0.7367 -1.3743
  131OSM    C4F14126   5.812   0.002   6.616 -0.2433 -0.0265 -0.0061
  131OSM    H4F14127   5.914   0.043   6.603 -0.2171 -0.1573 -0.2081
  131OSM    H4G14128   5.806  -0.088   6.551  0.2747 -0.6201  0.7421
  131OSM    C5F14129   5.805  -0.056   6.765 -0.1248  0.0616 -0.5815
  131OSM    H5F14130   5.697  -0.076   6.785 -0.5197 -1.6974 -3.8012
  131OSM    H5G14131   5.843   0.030   6.824 -1.6283 -0.1226  0.7282
  131OSM    C6F14132   5.884  -0.188   6.782  0.4563 -0.5189  0.0699
  131OSM    H6F14133   5.985  -0.181   6.734  1.5240 -1.3625  2.0775
  131OSM    H6G14134   5.822  -0.261   6.725 -2.6100  0.6185  1.7142
  131OSM    C7F14135   5.907  -0.221   6.924 -0.0835  0.4024 -0.0993
  131OSM    H7F14136   5.823  -0.204   6.995  2.1848 -3.3266  3.9453
  131OSM    H7G14137   5.982  -0.149   6.963  1.0650 -0.7973 -0.0263
  131OSM    C8F14138   5.975  -0.357   6.943  0.2169 -0.1988  0.3606
  131OSM    H8F14139   6.001  -0.372   7.050  1.0991  0.6131  0.2820
  131OSM    H8G14140   6.071  -0.358   6.887 -0.0432  0.6310 -0.1154
  131OSM    C9F14141   5.870  -0.458   6.893  0.0632  0.5081  0.1329
  131OSM    H9F14142   5.839  -0.439   6.790 -0.6724  3.6277  0.8165
  131OSM   C10F14143   5.803  -0.555   6.966  0.2368 -0.8158  0.0298
  131OSM   H10F14144   5.734  -0.628   6.923 -2.0059  1.0377  0.2954
  131OSM   C11F14145   5.828  -0.582   7.113  0.4655 -0.0232 -0.1841
  131OSM   H11F14146   5.922  -0.531   7.144  0.2166  0.9600 -0.9985
  131OSM   H11G14147   5.822  -0.688   7.145 -0.8583 -0.4600 -1.7316
  131OSM   C12F14148   5.720  -0.511   7.202 -0.0486  0.1284 -0.1251
  131OSM   H12F14149   5.625  -0.564   7.181 -1.4005  2.2274  0.2999
  131OSM   H12G14150   5.702  -0.404   7.177  1.7388  0.0152 -2.1721
  131OSM   C13F14151   5.753  -0.516   7.356  0.1299 -0.0950 -0.8550
  131OSM   H13F14152   5.659  -0.484   7.406  0.3905 -3.1321  1.8936
  131OSM   H13G14153   5.835  -0.443   7.372 -0.0595  0.0465 -0.5065
  131OSM   C14F14154   5.793  -0.650   7.416  0.3940 -0.3851 -0.3690
  131OSM   H14F14155   5.893  -0.679   7.379 -0.2413 -2.2171 -0.7505
  131OSM   H14G14156   5.719  -0.730   7.394  0.5644 -1.4366  2.5156
  131OSM   C15F14157   5.800  -0.659   7.571  0.7047  0.0704 -0.3230
  131OSM   H15F14158   5.709  -0.621   7.624  0.4687 -1.7631  0.6749
  131OSM   H15G14159   5.886  -0.598   7.605  0.4412 -0.9245  2.3553
  131OSM   C16F14160   5.827  -0.801   7.623  0.0283  0.0600  0.0370
  131OSM   H16F14161   5.906  -0.849   7.562  0.1740  1.3298 -0.8193
  131OSM   H16G14162   5.736  -0.861   7.600  0.7521 -0.9378 -0.2776
  131OSM   C17F14163   5.853  -0.811   7.774  0.3561  0.2096  0.1388
  131OSM   H17F14164   5.947  -0.756   7.797 -0.3020  1.3048  0.3033
  131OSM   H17G14165   5.887  -0.916   7.787 -2.0530 -0.6912 -0.4421
  131OSM   C18F14166   5.741  -0.787   7.869  0.1097  0.6303  0.2242
  131OSM   H18F14167   5.690  -0.690   7.847 -1.1738 -0.0851 -0.0927
  131OSM   H18G14168   5.769  -0.796   7.976  0.4602 -1.9635 -0.0304
  131OSM   H18H14169   5.672  -0.873   7.855  1.4205 -0.5535  0.8422
  132OSM      N14170   0.077   3.463   6.391 -0.5403 -0.5511 -0.0025
  132OSM    C1514171   0.187   3.556   6.340 -0.0520  0.6355  0.6265
  132OSM   H15A14172   0.276   3.539   6.400  0.5025 -1.9674 -0.8040
  132OSM   H15B14173   0.160   3.661   6.349  0.1334  0.8404 -0.9559
  132OSM   H15C14174   0.212   3.543   6.236  0.3746 -1.6147  0.9619
  132OSM    C1414175   0.058   3.502   6.535 -1.0530 -0.5216 -0.6590
  132OSM   H14A14176   0.012   3.599   6.547 -0.3850 -0.2557 -0.2523
  132OSM   H14B14177   0.154   3.503   6.585 -2.1527  0.6433  1.5569
  132OSM   H14C14178  -0.004   3.427   6.581 -2.4471 -0.3874 -2.2272
  132OSM    C1314179  -0.042   3.489   6.309 -0.8359  0.1492 -0.5344
  132OSM   H13A14180  -0.057   3.595   6.322 -0.0413  0.2957 -0.7326
  132OSM   H13B14181  -0.132   3.435   6.331 -1.7658  1.7370 -0.2917
  132OSM   H13C14182  -0.016   3.479   6.205 -1.0612  2.1900 -0.8267
  132OSM    C1214183   0.130   3.322   6.393 -0.3159 -0.1823 -0.2138
  132OSM   H12A14184   0.052   3.259   6.432 -0.3787  0.4910  0.7939
  132OSM   H12B14185   0.206   3.313   6.469  1.6108 -3.5539 -2.2739
  132OSM    C1114186   0.190   3.270   6.264  0.6610 -0.5843  0.3274
  132OSM   H11A14187   0.290   3.317   6.251  0.9236 -1.1039  0.4346
  132OSM   H11B14188   0.125   3.295   6.177 -1.0328  2.1196  2.2121
  132OSM      P14189   0.280   3.049   6.165 -0.3087 -0.2246 -0.1703
  132OSM    O1314190   0.200   2.931   6.134  0.0035 -1.0517  0.1205
  132OSM    O1414191   0.312   3.146   6.055 -0.1029 -0.2290  0.0334
  132OSM    O1114192   0.413   3.005   6.231 -0.4914  0.0933  0.4821
  132OSM    O1214193   0.202   3.126   6.281  0.0570 -0.5719  0.2709
  132OSM    C1S14194   0.478   3.088   6.331 -0.3290  0.5715 -0.5136
  132OSM    H1S14195   0.423   3.177   6.367  2.6251  1.5981  1.8560
  132OSM    H1T14196   0.568   3.139   6.288 -0.7120  0.9786 -0.8431
  132OSM     NF14197   0.560   3.080   6.566  0.0271  0.0709  0.2585
  132OSM    HNF14198   0.659   3.094   6.567  0.3460 -1.7495 -0.5068
  132OSM    C2S14199   0.510   2.999   6.455 -0.2994  0.1793 -0.5559
  132OSM    H2S14200   0.410   2.962   6.487  0.0390 -0.0632  0.2742
  132OSM    C3S14201   0.601   2.881   6.411 -0.1372  0.0534  0.0182
  132OSM    H3S14202   0.691   2.914   6.355 -1.0260  0.8803 -0.9492
  132OSM     O314203   0.542   2.804   6.307 -0.2573 -0.4494 -0.3763
  132OSM    HO314204   0.472   2.862   6.276  0.9130  2.7073  2.2623
  132OSM    C4S14205   0.624   2.793   6.521 -0.3482  0.3389 -0.1278
  132OSM    H4S14206   0.538   2.729   6.548 -0.6020  0.0857 -1.4443
  132OSM    C5S14207   0.728   2.794   6.608  0.8055  0.6586 -0.5757
  132OSM    H5S14208   0.804   2.871   6.592  0.6906  0.6221 -1.3076
  132OSM    C6S14209   0.731   2.706   6.728  0.0845  0.6386 -0.1036
  132OSM    H6S14210   0.836   2.692   6.760  0.4624  2.2956 -0.5352
  132OSM    H6T14211   0.673   2.612   6.715 -3.2525  2.1801  2.1972
  132OSM    C7S14212   0.663   2.769   6.853 -0.5464  0.7659  0.2145
  132OSM    H7S14213   0.557   2.796   6.840 -0.1428  1.8539 -0.9206
  132OSM    H7T14214   0.709   2.867   6.875 -0.5428  1.0432 -0.9603
  132OSM    C8S14215   0.678   2.674   6.977 -0.1886  0.5959 -0.0751
  132OSM    H8S14216   0.787   2.653   6.985 -0.2378  0.0751 -0.6309
  132OSM    H8T14217   0.630   2.580   6.941  3.1524 -1.4820  0.4550
  132OSM    C9S14218   0.594   2.717   7.102 -0.3165 -0.7077  0.5945
  132OSM    H9S14219   0.600   2.628   7.168 -5.0386  0.3279  2.8577
  132OSM    H9T14220   0.494   2.749   7.067  0.0456 -0.0670  0.1175
  132OSM   C10S14221   0.659   2.835   7.176 -0.2895 -0.5761  0.4372
  132OSM   H10S14222   0.610   2.930   7.148  1.2249 -0.0768 -0.6524
  132OSM   H10T14223   0.759   2.854   7.133 -1.0050  2.1868 -0.1630
  132OSM   C11S14224   0.668   2.820   7.330 -0.2425 -0.6614  0.8823
  132OSM   H11S14225   0.722   2.724   7.346 -1.3049 -0.8920  3.7100
  132OSM   H11T14226   0.571   2.806   7.382 -0.1382  1.2861  1.6919
  132OSM   C12S14227   0.740   2.936   7.396 -0.2825 -0.2225 -0.0179
  132OSM   H12S14228   0.686   3.030   7.375  1.0687  0.2136 -1.7875
  132OSM   H12T14229   0.840   2.949   7.350 -0.0605 -1.4829  0.0726
  132OSM   C13S14230   0.769   2.928   7.547 -0.3579  0.5511  0.1317
  132OSM   H13S14231   0.839   2.843   7.559  0.9961  1.5101 -0.7675
  132OSM   H13T14232   0.681   2.907   7.612 -0.6115 -1.0276 -0.6590
  132OSM   C14S14233   0.836   3.056   7.600 -0.1818 -0.2163  0.0537
  132OSM   H14S14234   0.767   3.143   7.594 -0.5943 -0.5086  0.5169
  132OSM   H14T14235   0.923   3.086   7.537 -0.4215  1.8186  0.5947
  132OSM   C15S14236   0.869   3.046   7.749  0.7966 -0.1704 -0.4423
  132OSM   H15S14237   0.769   3.034   7.796 -0.2281 -0.7311 -2.6279
  132OSM   H15T14238   0.917   3.140   7.783  0.6111 -0.0117 -0.6162
  132OSM   C16S14239   0.979   2.942   7.790 -0.4574 -0.4116  0.3693
  132OSM   H16S14240   1.075   2.963   7.737 -0.7192 -1.9793 -0.8054
  132OSM   H16T14241   0.938   2.841   7.771 -1.7831 -0.2070  1.9790
  132OSM   C17S14242   1.003   2.946   7.942 -0.3741 -0.6158  0.3124
  132OSM   H17S14243   1.057   3.039   7.969  0.9981 -1.3074  0.0028
  132OSM   H17T14244   1.076   2.867   7.969  0.7266  0.2355 -0.1018
  132OSM   C18S14245   0.875   2.927   8.021 -0.3307  0.1492 -0.2934
  132OSM   H18S14246   0.806   3.012   8.003 -0.6286  0.1173  0.6532
  132OSM   H18T14247   0.888   2.910   8.130  0.1620 -0.3503 -0.4261
  132OSM   H18U14248   0.820   2.845   7.970 -1.2526  1.1631 -0.9649
  132OSM    C1F14249   0.487   3.159   6.642 -0.2296 -0.1983 -0.0808
  132OSM     OF14250   0.365   3.163   6.632 -0.1011 -0.3334  0.3222
  132OSM    C2F14251   0.560   3.242   6.750 -0.0821 -0.3868 -0.5766
  132OSM    H2F14252   0.472   3.280   6.805  0.3756  0.3269 -0.3213
  132OSM    H2G14253   0.610   3.332   6.708 -0.4399  0.4495  0.7510
  132OSM    C3F14254   0.653   3.160   6.835 -0.0821  0.2262  0.0773
  132OSM    H3F14255   0.735   3.131   6.765 -0.0536 -0.2455  0.2977
  132OSM    H3G14256   0.603   3.067   6.871  0.4686  0.0910  0.5134
  132OSM    C4F14257   0.728   3.241   6.949 -0.7719  0.0080  0.0164
  132OSM    H4F14258   0.777   3.333   6.909 -2.6057  1.8233  1.7382
  132OSM    H4G14259   0.819   3.186   6.980 -1.1540 -0.3575  0.4987
  132OSM    C5F14260   0.652   3.251   7.077  0.2475  0.1922  0.0110
  132OSM    H5F14261   0.637   3.151   7.121  1.3883  0.9530  2.2699
  132OSM    H5G14262   0.557   3.305   7.058 -1.0348 -1.8280  0.3797
  132OSM    C6F14263   0.725   3.343   7.179 -0.3888  0.5968  0.4656
  132OSM    H6F14264   0.735   3.445   7.135  0.7938  0.0255 -0.6573
  132OSM    H6G14265   0.827   3.304   7.196 -0.5357  0.9441  2.2828
  132OSM    C7F14266   0.661   3.363   7.320 -0.1099  0.1519 -0.3842
  132OSM    H7F14267   0.659   3.257   7.353  0.6708 -0.1019 -1.1184
  132OSM    H7G14268   0.557   3.400   7.307 -0.3440  0.1383  1.1988
  132OSM    C8F14269   0.747   3.461   7.404  1.1905 -0.9241 -0.7190
  132OSM    H8F14270   0.745   3.565   7.365 -1.0159 -0.4536  0.4887
  132OSM    H8G14271   0.848   3.422   7.381  2.4648  1.9570 -0.5444
  132OSM    C9F14272   0.719   3.465   7.554 -0.1536 -1.0493  0.9562
  132OSM    H9F14273   0.656   3.382   7.587 -0.2343 -1.3472  0.0839
  132OSM   C10F14274   0.777   3.550   7.636 -0.3823  0.6236 -0.1238
  132OSM   H10F14275   0.763   3.533   7.744 -1.1689 -0.0319 -0.3195
  132OSM   C11F14276   0.877   3.654   7.591  0.4739  0.3720 -0.0975
  132OSM   H11F14277   0.813   3.726   7.535 -0.5912 -1.4639 -1.3515
  132OSM   H11G14278   0.953   3.607   7.526  2.5133  1.5971  1.3056
  132OSM   C12F14279   0.947   3.725   7.710 -0.0406 -0.4429  0.3258
  132OSM   H12F14280   1.010   3.798   7.654  2.4733 -0.0325  3.3591
  132OSM   H12G14281   1.026   3.664   7.759 -0.5897 -1.9577 -0.6315
  132OSM   C13F14282   0.867   3.807   7.812  0.1339 -0.2224  0.1848
  132OSM   H13F14283   0.793   3.740   7.860  1.5705 -3.5411 -1.8746
  132OSM   H13G14284   0.813   3.878   7.746 -3.7013 -3.0009  0.0335
  132OSM   C14F14285   0.950   3.876   7.917 -0.0744  0.8531  0.4978
  132OSM   H14F14286   1.033   3.928   7.865 -0.0349 -0.6966 -1.0965
  132OSM   H14G14287   0.996   3.808   7.992 -1.5016  0.2710  0.8696
  132OSM   C15F14288   0.857   3.956   8.000  0.2645 -1.0022 -0.0066
  132OSM   H15F14289   0.765   3.904   8.034 -0.9490 -0.0814 -1.6892
  132OSM   H15G14290   0.829   4.045   7.939  1.6191 -0.8160 -0.3895
  132OSM   C16F14291   0.917   4.012   8.130 -0.3738 -0.2454  0.5808
  132OSM   H16F14292   0.856   4.097   8.169 -0.9318 -1.5595  2.6862
  132OSM   H16G14293   1.021   4.047   8.110 -1.2819  0.8805 -3.1392
  132OSM   C17F14294   0.924   3.910   8.241 -0.8761  0.3432  0.1393
  132OSM   H17F14295   0.985   3.822   8.211 -0.4999  1.3196 -2.2397
  132OSM   H17G14296   0.819   3.877   8.256 -1.0363  1.8757  3.1502
  132OSM   C18F14297   0.985   3.978   8.368 -0.1122 -0.2751 -0.8257
  132OSM   H18F14298   0.956   4.084   8.382  0.8460  0.2325 -2.4310
  132OSM   H18G14299   1.097   3.978   8.367 -0.1023 -0.1924 -0.1975
  132OSM   H18H14300   0.946   3.921   8.455 -0.3134 -0.8094 -1.2656
  133SAPE     N14301   5.263   2.669  10.594  0.6333  0.2887  0.2129
  133SAPE   HN114302   5.173   2.718  10.613  0.7292 -0.4432  3.0687
  133SAPE   HN214303   5.253   2.568  10.619  2.7742 -0.3312 -1.2079
  133SAPE   HN314304   5.341   2.713  10.646  0.4655  1.3279 -0.3957
  133SAPE   C1214305   5.297   2.670  10.450  0.0743  0.1094  0.3626
  133SAPE  H12A14306   5.318   2.777  10.431 -4.0213  1.2077  0.9128
  133SAPE  H12B14307   5.214   2.635  10.385 -0.7219  1.7274  0.4525
  133SAPE   C1114308   5.417   2.572  10.428 -0.5576 -0.4327  0.5743
  133SAPE  H11A14309   5.455   2.570  10.324 -0.2923 -0.6988  0.6721
  133SAPE  H11B14310   5.381   2.469  10.448  0.5509 -0.7166  1.1995
  133SAPE     P14311   5.602   2.499  10.604  0.0696  0.1214  0.4432
  133SAPE   O1314312   5.750   2.513  10.596 -0.5695  0.1545  0.7189
  133SAPE   O1414313   5.545   2.506  10.739  0.2872  0.2880  0.3615
  133SAPE   O1214314   5.529   2.609  10.511 -0.1558  0.6951 -0.2985
  133SAPE   O1114315   5.562   2.356  10.552 -0.1492  0.5913  0.0603
  133SAPE    C114316   5.625   2.259  10.465 -0.0780 -0.4514 -0.2241
  133SAPE    HA14317   5.715   2.303  10.417 -0.8321  0.8006 -0.5580
  133SAPE    HB14318   5.648   2.174  10.533 -0.2011  0.7211  1.3358
  133SAPE    C214319   5.532   2.215  10.352 -0.1037  0.5751  0.5586
  133SAPE    HS14320   5.572   2.123  10.303 -0.1186  0.9719 -0.2057
  133SAPE   O2114321   5.506   2.321  10.266 -0.2912  0.3521 -0.0971
  133SAPE   C2114322   5.599   2.349  10.172  0.4782 -0.2772  0.8359
  133SAPE   O2214323   5.708   2.303  10.162  0.3100  0.7233  0.4139
  133SAPE   C2214324   5.541   2.447  10.063 -0.3180 -0.1138  0.9095
  133SAPE   H2R14325   5.530   2.396   9.965 -0.8918 -0.0358  0.9312
  133SAPE   H2S14326   5.445   2.484  10.103  0.0995  2.0802  0.0298
  133SAPE    C314327   5.396   2.169  10.413  0.1698  0.0368  0.0925
  133SAPE    HX14328   5.362   2.254  10.476  1.9609  1.3164 -0.5893
  133SAPE    HY14329   5.403   2.102  10.501 -0.1125  0.6860  0.6178
  133SAPE   O3114330   5.306   2.113  10.323  0.2056  0.4954  0.0363
  133SAPE   C3114331   5.190   2.187  10.297  0.3128  0.1368  0.1439
  133SAPE   O3214332   5.165   2.295  10.347  0.4100  0.0094  0.4259
  133SAPE   C3214333   5.097   2.097  10.218  0.3413  0.2976 -0.1680
  133SAPE   H2X14334   5.015   2.050  10.276  0.2445 -0.0559 -0.5853
  133SAPE   H2Y14335   5.165   2.021  10.175 -1.0762 -0.3710 -1.3117
  133SAPE   C2314336   5.632   2.572  10.040 -0.5084  0.2823  0.2269
  133SAPE   H3R14337   5.653   2.621  10.137  0.3380  1.9979 -0.7788
  133SAPE   H3S14338   5.581   2.645   9.973 -0.2152 -0.3192 -0.6739
  133SAPE   C2414339   5.764   2.545   9.961  0.2903 -0.1985  0.1329
  133SAPE   H4R14340   5.845   2.506  10.025 -0.0324 -0.4519  0.3908
  133SAPE   H4S14341   5.800   2.646   9.932 -1.0314  0.7021  1.4681
  133SAPE   C2514342   5.745   2.445   9.846  0.4405  0.5341 -0.1765
  133SAPE   H5R14343   5.759   2.341   9.880 -2.1404  0.8927  2.3150
  133SAPE   C2614344   5.718   2.479   9.719 -0.7114  0.0106 -0.3558
  133SAPE   H6R14345   5.716   2.400   9.643  0.8170  0.9623 -1.4310
  133SAPE   C2714346   5.703   2.620   9.661  0.6623 -0.0981 -0.1259
  133SAPE   H7R14347   5.689   2.699   9.737 -2.4496 -1.2208  0.6345
  133SAPE   H7S14348   5.614   2.636   9.596  1.4845  0.0991 -1.2396
  133SAPE   C2814349   5.821   2.654   9.575  0.3581 -0.6478  0.4919
  133SAPE   H8R14350   5.914   2.616   9.620  0.1095 -1.0420  0.6768
  133SAPE   C2914351   5.816   2.722   9.461 -0.0072 -0.1505  0.3121
  133SAPE   H9R14352   5.914   2.743   9.414 -0.0743 -0.2531  0.1247
  133SAPE  C21014353   5.702   2.773   9.367 -0.1157 -0.6424 -0.8416
  133SAPE  H10R14354   5.697   2.881   9.393  1.4697 -0.2985 -1.8530
  133SAPE  H10S14355   5.605   2.735   9.406 -0.3140 -0.1810 -0.8833
  133SAPE  C21114356   5.722   2.732   9.228 -1.3346  0.3059 -0.2859
  133SAPE  H11R14357   5.709   2.627   9.200 -0.6719  0.4898 -1.3684
  133SAPE  C21214358   5.761   2.811   9.134  0.4088 -0.6288  0.0925
  133SAPE  H12R14359   5.773   2.770   9.033  0.5812  1.1111 -0.6255
  133SAPE  C21314360   5.793   2.959   9.143  0.2686 -0.2315 -0.4245
  133SAPE  H13R14361   5.903   2.968   9.155  0.6422  1.5785 -4.0391
  133SAPE  H13S14362   5.739   2.996   9.233  1.8067  1.8206 -0.2839
  133SAPE  C21414363   5.748   3.034   9.022  0.3009  0.3649 -1.1069
  133SAPE  H14R14364   5.684   2.982   8.949 -1.8554  1.3349  0.0109
  133SAPE  C21514365   5.760   3.161   8.994 -0.2302 -0.4003  0.7689
  133SAPE  H15R14366   5.733   3.208   8.899  0.2261 -1.4791  0.0792
  133SAPE  C21614367   5.833   3.262   9.088  0.1889  0.4879 -0.5792
  133SAPE  H16R14368   5.853   3.208   9.183 -0.4143 -0.1422 -0.7985
  133SAPE  H16S14369   5.783   3.359   9.109 -1.3622 -0.5970  1.0363
  133SAPE  C21714370   5.980   3.297   9.042  0.1974 -0.8553 -0.6220
  133SAPE  H17R14371   6.041   3.205   9.055  0.7602 -0.4628 -0.4552
  133SAPE  H17S14372   6.030   3.371   9.108 -0.1461 -1.4213  0.2971
  133SAPE  C21814373   5.984   3.364   8.904 -0.1112  0.0592 -0.7814
  133SAPE  H18R14374   5.905   3.442   8.903  2.5925  3.0346  0.8540
  133SAPE  H18S14375   5.965   3.290   8.823  1.6673 -3.3094  1.6591
  133SAPE  C21914376   6.117   3.435   8.878  0.1477  0.9154  0.3275
  133SAPE  H19R14377   6.151   3.490   8.968 -1.3006  1.5405  0.5229
  133SAPE  H19S14378   6.101   3.504   8.792  1.3590 -0.9382 -1.4751
  133SAPE  C22014379   6.223   3.340   8.824 -0.8996  0.2023 -0.1849
  133SAPE  H20R14380   6.256   3.271   8.904 -1.8070 -0.7407 -0.6121
  133SAPE  H20S14381   6.304   3.404   8.783 -1.4628 -0.3690 -2.2635
  133SAPE  H20T14382   6.176   3.279   8.745 -1.0764 -0.2892  0.2901
  133SAPE   C3314383   5.046   2.170  10.093 -0.3726  0.5786  0.3090
  133SAPE   H3X14384   4.961   2.241  10.103  0.6245  1.9607 -0.7523
  133SAPE   H3Y14385   5.004   2.087  10.032  0.4453 -0.9258  1.7225
  133SAPE   C3414386   5.163   2.227  10.013 -0.5286 -0.0525  0.3672
  133SAPE   H4X14387   5.253   2.161  10.011 -0.2579  0.3044  0.6458
  133SAPE   H4Y14388   5.203   2.316  10.066 -2.3174 -0.7769  3.1398
  133SAPE   C3514389   5.120   2.267   9.877  0.3447  0.0656  0.4607
  133SAPE   H5X14390   5.201   2.332   9.838 -0.1464  1.3585  1.5009
  133SAPE   H5Y14391   5.026   2.327   9.881 -0.9136 -1.6654 -1.0619
  133SAPE   C3614392   5.097   2.160   9.774  0.4385 -0.8846 -0.2554
  133SAPE   H6X14393   5.014   2.097   9.812 -1.6402  2.7600  1.9329
  133SAPE   H6Y14394   5.187   2.096   9.774  1.2363  0.1951 -0.4232
  133SAPE   C3714395   5.082   2.223   9.641 -0.0910 -0.0393 -0.2702
  133SAPE   H7X14396   5.048   2.141   9.574  1.1406 -1.7779  1.1125
  133SAPE   H7Y14397   5.177   2.262   9.598 -0.1991 -1.1052 -1.5330
  133SAPE   C3814398   4.978   2.336   9.634 -0.2166 -0.5207 -0.3896
  133SAPE   H8X14399   5.006   2.427   9.690 -1.2270  0.0094 -0.7233
  133SAPE   H8Y14400   4.879   2.318   9.680 -0.0923 -1.4070 -0.4466
  133SAPE   C3914401   4.964   2.383   9.486 -0.2174 -0.1930 -0.7484
  133SAPE   H9X14402   5.068   2.384   9.448  0.6274  0.0740  1.4197
  133SAPE   H9Y14403   4.924   2.487   9.482 -0.5194 -0.3440 -2.4669
  133SAPE  C31014404   4.870   2.298   9.406 -0.2338 -1.4021 -0.2140
  133SAPE  H10X14405   4.819   2.237   9.483 -0.7753 -1.4231 -0.5885
  133SAPE  H10Y14406   4.941   2.237   9.347 -1.0978 -1.0203 -1.6848
  133SAPE  C31114407   4.780   2.391   9.319 -0.7515 -0.9981 -0.5676
  133SAPE  H11X14408   4.850   2.450   9.256  1.5840 -0.0240  2.6896
  133SAPE  H11Y14409   4.717   2.458   9.381 -1.2446  0.5750 -2.6528
  133SAPE  C31214410   4.693   2.314   9.231 -0.1546  1.0391  0.7083
  133SAPE  H12X14411   4.587   2.313   9.263 -0.3397 -1.1688  0.1655
  133SAPE  H12Y14412   4.707   2.206   9.253 -1.4866  1.3462  3.5334
  133SAPE  C31314413   4.711   2.325   9.071 -0.0466  0.2835 -0.4425
  133SAPE  H13X14414   4.730   2.432   9.045 -0.6271  0.9232  1.5559
  133SAPE  H13Y14415   4.603   2.308   9.050 -0.1564 -1.4589  1.3404
  133SAPE  C31414416   4.799   2.216   9.008 -0.2726  0.2300  0.0396
  133SAPE  H14X14417   4.744   2.119   9.017 -0.8146  0.6084  0.8973
  133SAPE  H14Y14418   4.900   2.209   9.053  1.5534  1.4044 -3.4850
  133SAPE  C31514419   4.833   2.258   8.863  0.3662  0.4651  0.1548
  133SAPE  H15X14420   4.876   2.360   8.869  0.3227  0.7409 -2.7419
  133SAPE  H15Y14421   4.734   2.260   8.813 -1.1363 -3.0409  2.6008
  133SAPE  C31614422   4.917   2.157   8.790 -0.0546  0.9173  0.5323
  133SAPE  H16X14423   4.859   2.063   8.774  1.4413 -0.2529  1.6756
  133SAPE  H16Y14424   4.998   2.127   8.860 -1.0817 -2.8831  0.3455
  133SAPE  C31714425   4.971   2.199   8.657  0.0009  0.8110  0.2157
  133SAPE  H17X14426   5.057   2.138   8.621  0.5433  0.8324  1.4536
  133SAPE  H17Y14427   5.003   2.305   8.668  0.7250  0.4854  1.3488
  133SAPE  C31814428   4.869   2.191   8.546 -0.2764  0.7470 -0.2579
  133SAPE  H18X14429   4.776   2.239   8.583  1.0219  2.3414  1.1579
  133SAPE  H18Y14430   4.852   2.088   8.508 -0.1716  0.0060  1.6162
  133SAPE  H18Z14431   4.895   2.243   8.451 -0.0074 -1.8855 -1.7090
  134SAPE     N14432   0.811   2.852  10.717 -0.2941 -0.1631 -0.2452
  134SAPE   HN114433   0.800   2.833  10.615 -0.4780 -0.5985 -0.1450
  134SAPE   HN214434   0.763   2.944  10.726  0.4557  0.1400  0.7476
  134SAPE   HN314435   0.912   2.874  10.731 -0.4492  0.2591  0.2414
  134SAPE   C1214436   0.773   2.739  10.811 -0.0981  0.3706 -0.9348
  134SAPE  H12A14437   0.667   2.716  10.791  0.2068  2.0810 -5.8017
  134SAPE  H12B14438   0.782   2.776  10.916 -1.2210 -0.3822 -0.5539
  134SAPE   C1114439   0.887   2.636  10.802 -0.4223 -0.0479 -0.6601
  134SAPE  H11A14440   0.866   2.550  10.870 -1.4895  1.1639  0.6010
  134SAPE  H11B14441   0.980   2.679  10.844 -0.7128  1.1533 -1.2255
  134SAPE     P14442   0.932   2.452  10.607  0.0123  0.2931 -0.0572
  134SAPE   O1314443   0.962   2.353  10.716  0.3984  0.2649  0.1175
  134SAPE   O1414444   0.827   2.426  10.508  0.7663  0.2689 -0.6647
  134SAPE   O1214445   0.917   2.596  10.666 -0.2965  0.0512  0.2614
  134SAPE   O1114446   1.069   2.471  10.530 -0.4176 -0.0828  0.0630
  134SAPE    C114447   1.088   2.579  10.445  0.4548 -0.2634 -0.0504
  134SAPE    HA14448   1.010   2.659  10.450 -0.9767 -1.3662 -2.9333
  134SAPE    HB14449   1.187   2.620  10.473  1.1258 -1.3514 -0.7776
  134SAPE    C214450   1.099   2.546  10.295 -0.4029  0.6651  0.1538
  134SAPE    HS14451   1.112   2.641  10.240  1.0587  0.2407 -0.2811
  134SAPE   O2114452   0.976   2.491  10.241 -0.2799 -0.0732 -0.5029
  134SAPE   C2114453   0.866   2.566  10.233 -0.3410  0.4793 -0.3783
  134SAPE   O2214454   0.861   2.682  10.258 -0.1266 -0.4802 -1.1819
  134SAPE   C2214455   0.747   2.475  10.185 -0.1987 -0.3213  0.0090
  134SAPE   H2R14456   0.783   2.423  10.094 -2.7301 -0.9688 -0.7209
  134SAPE   H2S14457   0.743   2.390  10.256 -0.6964  1.0801  1.7303
  134SAPE    C314458   1.223   2.461  10.262 -0.1155  0.0975 -0.1202
  134SAPE    HX14459   1.230   2.451  10.152 -1.7884 -0.0348 -0.2391
  134SAPE    HY14460   1.201   2.359  10.301 -0.5757  1.0242  2.2212
  134SAPE   O3114461   1.343   2.503  10.329  0.3467 -0.2427  0.2714
  134SAPE   C3114462   1.397   2.608  10.267  0.3289 -0.3827  0.0863
  134SAPE   O3214463   1.346   2.677  10.184  1.0011 -0.4746 -0.2033
  134SAPE   C3214464   1.532   2.648  10.326  0.3993 -0.1274  0.4386
  134SAPE   H2X14465   1.580   2.565  10.382 -0.3861  0.2753  1.7521
  134SAPE   H2Y14466   1.524   2.728  10.403 -2.2993  2.0201 -1.8777
  134SAPE   C2314467   0.613   2.541  10.162  0.1329 -0.0476 -0.5812
  134SAPE   H3R14468   0.583   2.593  10.255  1.6089  1.0273 -0.6802
  134SAPE   H3S14469   0.537   2.461  10.147 -0.0024  0.2558 -1.5924
  134SAPE   C2414470   0.601   2.627  10.040  0.1101  0.0706  0.3464
  134SAPE   H4R14471   0.669   2.713  10.056  0.3584  0.0948 -0.7813
  134SAPE   H4S14472   0.498   2.669  10.049  0.5343  0.7840  2.9832
  134SAPE   C2514473   0.626   2.568   9.906 -0.0923 -0.4990  0.3148
  134SAPE   H5R14474   0.732   2.549   9.882  0.3807  1.6899  0.4722
  134SAPE   C2614475   0.538   2.550   9.805  0.4666 -0.2462 -0.0780
  134SAPE   H6R14476   0.572   2.508   9.709  2.4292  0.8997  0.0540
  134SAPE   C2714477   0.397   2.586   9.816 -0.0979  0.3911 -0.2706
  134SAPE   H7R14478   0.390   2.696   9.805  0.8087  0.2349 -3.2566
  134SAPE   H7S14479   0.353   2.541   9.908 -0.9409  0.2253 -0.7474
  134SAPE   C2814480   0.316   2.530   9.702  0.0638  0.1929  0.1864
  134SAPE   H8R14481   0.224   2.480   9.734 -0.9867  0.9481 -1.5262
  134SAPE   C2914482   0.316   2.541   9.572  0.1480  0.5646  0.3557
  134SAPE   H9R14483   0.235   2.482   9.526  0.5514  1.2782 -1.3528
  134SAPE  C21014484   0.411   2.618   9.485  0.9475  0.7729  0.0155
  134SAPE  H10R14485   0.483   2.552   9.432  1.0410  1.5974 -0.9238
  134SAPE  H10S14486   0.467   2.691   9.547 -0.4729  0.0283  2.2776
  134SAPE  C21114487   0.339   2.686   9.371 -0.0723 -0.3645  0.1328
  134SAPE  H11R14488   0.261   2.759   9.398  1.9307  1.0927  2.4001
  134SAPE  C21214489   0.368   2.676   9.239  0.8551 -0.3862 -0.1863
  134SAPE  H12R14490   0.306   2.733   9.169  1.7352 -0.0170 -0.6745
  134SAPE  C21314491   0.473   2.592   9.169 -0.0964  0.1340  0.2101
  134SAPE  H13R14492   0.549   2.552   9.239 -0.8478 -3.2808 -0.7479
  134SAPE  H13S14493   0.528   2.657   9.098  0.0922 -0.0338  0.2032
  134SAPE  C21414494   0.411   2.467   9.108 -0.1922 -0.1068  0.2983
  134SAPE  H14R14495   0.428   2.374   9.164 -2.1595 -1.3882 -1.1124
  134SAPE  C21514496   0.358   2.455   8.987 -0.1102 -0.4978  0.5884
  134SAPE  H15R14497   0.304   2.363   8.959 -1.1548  0.9174 -2.5587
  134SAPE  C21614498   0.356   2.568   8.892  0.2273 -0.0494  0.3634
  134SAPE  H16R14499   0.420   2.552   8.803  0.6886 -0.1527  0.7087
  134SAPE  H16S14500   0.392   2.665   8.934 -1.0606  0.0365  1.3653
  134SAPE  C21714501   0.214   2.594   8.834 -0.2745  0.4884  0.4856
  134SAPE  H17R14502   0.134   2.575   8.909 -2.1003 -3.1191 -2.0132
  134SAPE  H17S14503   0.197   2.518   8.754 -0.7403 -0.7265  1.6953
  134SAPE  C21814504   0.185   2.725   8.767 -0.1680  0.1006  0.1416
  134SAPE  H18R14505   0.271   2.749   8.700  1.0250  3.5633  2.6149
  134SAPE  H18S14506   0.167   2.808   8.839  0.6417  0.0885  0.3709
  134SAPE  C21914507   0.054   2.716   8.685 -0.5594 -0.9538 -0.7467
  134SAPE  H19R14508  -0.025   2.687   8.757 -1.2517  0.7549 -0.7694
  134SAPE  H19S14509   0.071   2.636   8.610  1.5891 -1.3830  0.1122
  134SAPE  C22014510   0.026   2.840   8.613 -0.4809 -0.0766  0.2688
  134SAPE  H20R14511  -0.076   2.849   8.569 -0.2927  3.1909  0.2450
  134SAPE  H20S14512   0.103   2.868   8.538 -0.3974  1.5762  0.9371
  134SAPE  H20T14513   0.039   2.918   8.690  0.6784 -0.8678  0.8869
  134SAPE   C3314514   1.628   2.713  10.224  0.4382  0.3500  0.1606
  134SAPE   H3X14515   1.727   2.725  10.274  0.4244  0.4015  0.1759
  134SAPE   H3Y14516   1.596   2.810  10.181 -0.1913 -0.8221 -2.1312
  134SAPE   C3414517   1.661   2.630  10.099 -0.4814 -0.0783 -0.1130
  134SAPE   H4X14518   1.667   2.524  10.131  0.3003 -0.0989 -0.2966
  134SAPE   H4Y14519   1.761   2.669  10.069  0.2709 -2.2871 -0.6790
  134SAPE   C3514520   1.562   2.650   9.981 -0.7514 -0.3582 -0.9308
  134SAPE   H5X14521   1.573   2.758   9.959 -0.4112 -0.2717 -0.3364
  134SAPE   H5Y14522   1.454   2.627   9.994 -2.1379  4.5726 -1.7067
  134SAPE   C3614523   1.617   2.576   9.857 -0.3121  0.1278  0.2779
  134SAPE   H6X14524   1.622   2.467   9.878 -3.8175 -0.0670  0.7254
  134SAPE   H6Y14525   1.713   2.620   9.824 -1.8516  0.9395 -3.6120
  134SAPE   C3714526   1.529   2.592   9.735  0.7464 -0.4835  0.0533
  134SAPE   H7X14527   1.498   2.698   9.721 -0.1059 -0.8828 -1.1480
  134SAPE   H7Y14528   1.447   2.518   9.743  0.5100 -0.6660 -3.0881
  134SAPE   C3814529   1.594   2.559   9.602  0.2896 -0.2879  0.1582
  134SAPE   H8X14530   1.619   2.451   9.596 -0.3252 -0.4483  0.4434
  134SAPE   H8Y14531   1.682   2.622   9.579 -1.1915  2.7026  1.9952
  134SAPE   C3914532   1.500   2.597   9.480 -0.5453  0.2904  0.0150
  134SAPE   H9X14533   1.480   2.706   9.491 -1.6044  0.0220  0.9842
  134SAPE   H9Y14534   1.408   2.535   9.472  1.2033 -2.3826 -0.6162
  134SAPE  C31014535   1.578   2.555   9.352 -0.1070 -0.3279 -0.2910
  134SAPE  H10X14536   1.598   2.446   9.360 -0.5802 -0.3728  0.3704
  134SAPE  H10Y14537   1.675   2.608   9.363 -0.1437 -0.5366  1.2448
  134SAPE  C31114538   1.506   2.584   9.219 -0.1904 -0.8596  0.7835
  134SAPE  H11X14539   1.470   2.688   9.233 -0.1886 -0.8519  0.7308
  134SAPE  H11Y14540   1.415   2.523   9.204 -0.0744 -0.5241 -1.7747
  134SAPE  C31214541   1.598   2.565   9.100  0.1989  0.3076  0.2981
  134SAPE  H12X14542   1.617   2.456   9.089 -1.1595 -0.0519  1.2379
  134SAPE  H12Y14543   1.695   2.620   9.104 -0.4240  1.3999  0.8054
  134SAPE  C31314544   1.529   2.615   8.968 -0.5005  0.3046 -0.4267
  134SAPE  H13X14545   1.516   2.724   8.983  0.6306  0.6118 -1.5913
  134SAPE  H13Y14546   1.433   2.560   8.958  0.1740 -0.8591 -0.7405
  134SAPE  C31414547   1.608   2.592   8.838 -0.4029 -0.0318 -0.6969
  134SAPE  H14X14548   1.646   2.487   8.835  0.6954  0.2419  1.8314
  134SAPE  H14Y14549   1.693   2.663   8.846 -0.8804  0.6737 -1.6042
  134SAPE  C31514550   1.533   2.632   8.712 -0.6196 -0.2713  0.6394
  134SAPE  H15X14551   1.425   2.627   8.737 -1.1314 -0.2845 -1.4293
  134SAPE  H15Y14552   1.541   2.565   8.624 -2.1082  1.8564 -1.2266
  134SAPE  C31614553   1.552   2.779   8.668  0.2155  0.0876 -0.0096
  134SAPE  H16X14554   1.522   2.843   8.754 -0.7226 -0.9204  0.4390
  134SAPE  H16Y14555   1.480   2.793   8.585 -0.5478 -0.2680  0.5809
  134SAPE  C31714556   1.696   2.815   8.632  0.1227 -0.5237  0.3184
  134SAPE  H17X14557   1.703   2.864   8.532  1.8606  1.0345  1.1272
  134SAPE  H17Y14558   1.752   2.720   8.618  1.4003  0.0886  1.0813
  134SAPE  C31814559   1.746   2.916   8.727  0.5516 -0.0303 -0.0511
  134SAPE  H18X14560   1.698   3.016   8.728 -1.6304 -0.9976  2.2704
  134SAPE  H18Y14561   1.857   2.926   8.721  0.6264  0.9476  2.0426
  134SAPE  H18Z14562   1.724   2.872   8.827  1.7883 -3.6637 -1.2126
  135SAPE     N14563   0.477   1.061  10.758 -0.2276  0.1508  0.8505
  135SAPE   HN114564   0.500   0.962  10.780 -0.6113  0.1311  1.1612
  135SAPE   HN214565   0.487   1.129  10.835 -2.5700  0.4303  0.9889
  135SAPE   HN314566   0.374   1.077  10.746 -1.1362 -3.1694  2.8028
  135SAPE   C1214567   0.559   1.098  10.645  0.5506  0.0911  0.3350
  135SAPE  H12A14568   0.523   1.192  10.599  1.3477  0.2859  0.0917
  135SAPE  H12B14569   0.547   1.020  10.567 -1.4533  0.5896  0.0900
  135SAPE   C1114570   0.712   1.115  10.679  0.0774  0.4147  0.1710
  135SAPE  H11A14571   0.728   1.205  10.743  0.3291  2.2635 -2.3564
  135SAPE  H11B14572   0.757   1.131  10.579 -2.3187  0.8651 -0.9071
  135SAPE     P14573   0.910   0.957  10.737  0.0531  0.4229  0.1568
  135SAPE   O1314574   0.990   1.051  10.816 -0.1470 -0.2313  0.0316
  135SAPE   O1414575   0.911   0.816  10.779 -0.2138  0.4649 -0.4562
  135SAPE   O1214576   0.759   1.001  10.746 -0.2099  0.4742  0.2986
  135SAPE   O1114577   0.954   0.973  10.590 -0.3854 -0.2496 -0.1490
  135SAPE    C114578   1.082   0.924  10.559 -0.0454 -0.0349  0.2592
  135SAPE    HA14579   1.159   0.992  10.601  0.0141 -0.1141  0.2799
  135SAPE    HB14580   1.095   0.821  10.600 -0.8241  0.2490  1.2610
  135SAPE    C214581   1.092   0.919  10.399  0.2060 -0.4328  0.5845
  135SAPE    HS14582   1.186   0.885  10.350  0.9949  2.2969  0.0140
  135SAPE   O2114583   1.059   1.051  10.341  0.4362  0.1217  0.4411
  135SAPE   C2114584   1.155   1.141  10.364  0.4450 -0.1084 -0.1217
  135SAPE   O2214585   1.250   1.136  10.440  0.3475 -0.3625  0.3323
  135SAPE   C2214586   1.144   1.263  10.271 -0.8130  0.1897  0.3227
  135SAPE   H2R14587   1.040   1.263  10.232 -0.4393 -1.3731 -0.7702
  135SAPE   H2S14588   1.152   1.358  10.327 -1.5519  0.8391 -0.6446
  135SAPE    C314589   0.991   0.815  10.338  0.2512 -0.0588 -0.5435
  135SAPE    HX14590   0.895   0.867  10.357  0.3834  0.1262 -0.3854
  135SAPE    HY14591   0.991   0.718  10.392  0.8345  0.3064  0.1182
  135SAPE   O3114592   1.011   0.800  10.196 -0.3081  0.4936 -0.2401
  135SAPE   C3114593   1.080   0.690  10.157  0.1606 -0.4228 -0.3593
  135SAPE   O3214594   1.119   0.603  10.232  0.0063 -0.7390  1.1578
  135SAPE   C3214595   1.097   0.704  10.013 -0.5270 -0.0533  0.1221
  135SAPE   H2X14596   1.169   0.783   9.986  1.5541 -1.2030  1.9833
  135SAPE   H2Y14597   1.003   0.733   9.961 -0.5611  1.1190  0.7988
  135SAPE   C2314598   1.239   1.250  10.147  0.6720  0.0781  0.6923
  135SAPE   H3R14599   1.338   1.234  10.194 -0.7542 -2.8289  3.1262
  135SAPE   H3S14600   1.236   1.341  10.084 -0.1591 -0.9292 -0.7893
  135SAPE   C2414601   1.206   1.125  10.065 -0.1589 -0.0419 -0.5532
  135SAPE   H4R14602   1.095   1.116  10.060 -0.0977 -0.3122 -1.7214
  135SAPE   H4S14603   1.239   1.037  10.123 -0.2275 -0.0255 -0.4897
  135SAPE   C2514604   1.265   1.125   9.929  0.1903  0.9332  0.2577
  135SAPE   H5R14605   1.373   1.136   9.944  0.4949 -0.6004 -0.5142
  135SAPE   C2614606   1.210   1.093   9.810  0.1629  0.0683 -0.2419
  135SAPE   H6R14607   1.283   1.097   9.728  0.8345 -0.0056  0.3455
  135SAPE   C2714608   1.067   1.056   9.775  0.0552 -0.2815  0.1199
  135SAPE   H7R14609   1.000   1.057   9.863 -0.3944 -0.3886 -0.2138
  135SAPE   H7S14610   1.058   0.953   9.733 -0.7917 -0.5186  0.8511
  135SAPE   C2814611   1.012   1.152   9.665  0.3086 -0.0338 -0.1438
  135SAPE   H8R14612   1.000   1.256   9.700 -1.0278 -0.5516  1.0104
  135SAPE   C2914613   0.999   1.123   9.535  0.2888  0.2062  0.1848
  135SAPE   H9R14614   0.941   1.195   9.475 -2.1214 -1.7792 -0.0080
  135SAPE  C21014615   1.039   0.998   9.464  0.1082  0.0454 -0.1236
  135SAPE  H10R14616   1.007   0.995   9.357  3.2002  0.4587 -1.1649
  135SAPE  H10S14617   0.984   0.915   9.513 -0.2792 -0.4860 -1.3932
  135SAPE  C21114618   1.191   0.970   9.462 -0.5990  0.3175  0.1325
  135SAPE  H11R14619   1.239   0.974   9.561 -2.4349 -1.6329  1.1885
  135SAPE  C21214620   1.276   0.947   9.361 -0.2780 -0.5285 -0.7000
  135SAPE  H12R14621   1.381   0.930   9.389  0.0938  0.8623 -1.1593
  135SAPE  C21314622   1.252   0.930   9.214 -0.2883 -0.2407  0.6363
  135SAPE  H13R14623   1.167   0.870   9.177  0.5425  0.5390 -2.9510
  135SAPE  H13S14624   1.334   0.867   9.174  1.2563  2.3169 -0.4789
  135SAPE  C21414625   1.232   1.047   9.128 -0.5801 -0.6772 -0.2944
  135SAPE  H14R14626   1.188   1.126   9.189  0.5961  2.3379 -3.0363
  135SAPE  C21514627   1.267   1.060   8.994 -0.0482 -0.2442 -1.0604
  135SAPE  H15R14628   1.238   1.150   8.937  0.9496  0.1969 -0.8872
  135SAPE  C21614629   1.322   0.946   8.915 -0.4659  0.2758  0.0844
  135SAPE  H16R14630   1.383   0.868   8.965 -0.4929  0.9720  1.2406
  135SAPE  H16S14631   1.396   0.990   8.844 -1.8857  1.6462 -0.6129
  135SAPE  C21714632   1.215   0.876   8.830 -0.8443 -0.3798  0.6202
  135SAPE  H17R14633   1.134   0.950   8.814  0.6396  1.0103 -0.8842
  135SAPE  H17S14634   1.173   0.784   8.875 -2.1248  0.0577  0.3507
  135SAPE  C21814635   1.263   0.821   8.686  0.5217 -0.4065 -0.2195
  135SAPE  H18R14636   1.335   0.738   8.705 -0.2600 -1.1529 -0.4335
  135SAPE  H18S14637   1.312   0.904   8.631  1.6782 -1.2995 -0.5834
  135SAPE  C21914638   1.159   0.760   8.594 -0.0814  0.2090 -0.9998
  135SAPE  H19R14639   1.143   0.658   8.635  1.2510  0.5415  0.4656
  135SAPE  H19S14640   1.194   0.744   8.490 -0.4011 -2.1188 -0.7877
  135SAPE  C22014641   1.032   0.844   8.576 -0.0704 -0.4491 -0.5685
  135SAPE  H20R14642   0.973   0.858   8.669 -0.5523 -1.6366 -0.6873
  135SAPE  H20S14643   0.957   0.802   8.505 -1.2746  0.8693 -0.1259
  135SAPE  H20T14644   1.064   0.945   8.542  0.7526 -1.1887 -2.1174
  135SAPE   C3314645   1.138   0.569   9.944  0.3275 -0.8293 -0.4426
  135SAPE   H3X14646   1.066   0.497   9.987  0.3269 -0.8220 -0.4313
  135SAPE   H3Y14647   1.234   0.530   9.983  1.0219  1.3216  0.1378
  135SAPE   C3414648   1.128   0.555   9.796  0.2853 -0.9191 -0.6176
  135SAPE   H4X14649   1.018   0.568   9.785  0.3928 -0.0161 -0.6913
  135SAPE   H4Y14650   1.158   0.455   9.757 -3.6760 -1.5697 -2.5132
  135SAPE   C3514651   1.210   0.652   9.709 -0.3590 -0.1600 -0.9146
  135SAPE   H5X14652   1.317   0.644   9.738 -0.7154  0.1230  0.5931
  135SAPE   H5Y14653   1.171   0.752   9.738 -1.0774 -0.7374  0.1926
  135SAPE   C3614654   1.190   0.614   9.561  0.2462 -0.5765  0.3732
  135SAPE   H6X14655   1.113   0.676   9.510 -1.1222 -1.0313  1.8144
  135SAPE   H6Y14656   1.160   0.510   9.538  0.5493 -0.8995  1.3815
  135SAPE   C3714657   1.327   0.638   9.498 -0.2979 -0.5877 -0.0999
  135SAPE   H7X14658   1.400   0.566   9.542 -2.4859 -2.9691 -0.0875
  135SAPE   H7Y14659   1.355   0.743   9.516 -1.2646 -0.5954  1.7709
  135SAPE   C3814660   1.313   0.592   9.357 -0.5519  0.8240 -0.1052
  135SAPE   H8X14661   1.250   0.664   9.302 -1.0259  0.6492  0.1995
  135SAPE   H8Y14662   1.277   0.487   9.346 -0.8319  1.0114 -0.9975
  135SAPE   C3914663   1.454   0.593   9.277  0.8978 -0.1909 -0.8050
  135SAPE   H9X14664   1.527   0.526   9.328  0.7906  1.0078  1.0010
  135SAPE   H9Y14665   1.477   0.702   9.278 -1.7683  0.4726 -2.1385
  135SAPE  C31014666   1.432   0.556   9.126  0.5482  0.6837 -0.8243
  135SAPE  H10X14667   1.356   0.616   9.072 -1.8489 -1.2712  0.1546
  135SAPE  H10Y14668   1.390   0.453   9.124  0.1354  0.8496 -0.7570
  135SAPE  C31114669   1.572   0.570   9.063 -0.5408 -0.2423 -0.8589
  135SAPE  H11X14670   1.639   0.496   9.111 -1.6443 -1.4309 -1.0886
  135SAPE  H11Y14671   1.619   0.670   9.074  1.1558 -1.1904  1.2240
  135SAPE  C31214672   1.576   0.542   8.916  0.2354  0.0790 -0.5571
  135SAPE  H12X14673   1.500   0.610   8.871  1.3211  1.2361 -0.6923
  135SAPE  H12Y14674   1.537   0.440   8.897 -2.4196  0.7375  0.8590
  135SAPE  C31314675   1.704   0.567   8.847  0.6227  0.7370  0.1381
  135SAPE  H13X14676   1.794   0.532   8.902 -0.2028  0.3793  1.2771
  135SAPE  H13Y14677   1.716   0.677   8.834  3.3902  0.2947 -2.2525
  135SAPE  C31414678   1.711   0.509   8.701  0.6654 -0.0854  0.4766
  135SAPE  H14X14679   1.698   0.399   8.688  1.1915 -0.4318  2.4976
  135SAPE  H14Y14680   1.811   0.542   8.665  1.3000 -1.8375  0.5443
  135SAPE  C31514681   1.609   0.596   8.618  0.0458 -0.4920  0.2782
  135SAPE  H15X14682   1.629   0.705   8.619  0.2431 -0.4840  2.9771
  135SAPE  H15Y14683   1.501   0.595   8.646 -0.1645  2.0718 -0.2399
  135SAPE  C31614684   1.620   0.563   8.469 -0.0957 -0.3738 -0.0013
  135SAPE  H16X14685   1.597   0.457   8.446 -1.3026  0.2999 -2.2631
  135SAPE  H16Y14686   1.722   0.581   8.427 -1.2769  2.9939 -1.7907
  135SAPE  C31714687   1.517   0.655   8.392  0.2008  0.3838 -0.3773
  135SAPE  H17X14688   1.514   0.759   8.428 -1.9932  0.2466  0.0096
  135SAPE  H17Y14689   1.416   0.614   8.414  1.4641 -1.6249  2.1607
  135SAPE  C31814690   1.526   0.651   8.240 -0.6532  0.2249  0.1319
  135SAPE  H18X14691   1.494   0.552   8.203  1.1066 -0.9936  1.6984
  135SAPE  H18Y14692   1.627   0.661   8.194 -0.7667 -0.1245 -0.1946
  135SAPE  H18Z14693   1.449   0.720   8.200 -0.3811  1.3585  1.4754
  136SAPE     N14694   2.182   2.080  11.141 -0.1930  0.0071  0.5416
  136SAPE   HN114695   2.271   2.071  11.194 -0.1703  1.6972  0.8610
  136SAPE   HN214696   2.132   1.990  11.150 -0.9879  0.1648 -1.7687
  136SAPE   HN314697   2.222   2.079  11.045  1.4342 -2.2651  1.1613
  136SAPE   C1214698   2.103   2.198  11.173 -0.4290  1.0593  0.5289
  136SAPE  H12A14699   2.062   2.184  11.275  0.0230  2.0567  0.8700
  136SAPE  H12B14700   2.020   2.207  11.100  1.0373  0.3746 -1.3033
  136SAPE   C1114701   2.182   2.329  11.160 -0.0823  0.5523  0.0475
  136SAPE  H11A14702   2.254   2.338  11.245 -1.4892  2.2753  1.1356
  136SAPE  H11B14703   2.107   2.410  11.170  2.4405  2.8700  1.8074
  136SAPE     P14704   2.384   2.413  11.021  0.4101 -0.0241  0.5690
  136SAPE   O1314705   2.332   2.552  11.014  0.1095 -0.7907  0.4450
  136SAPE   O1414706   2.488   2.381  11.121  0.0179  0.2550 -0.2970
  136SAPE   O1214707   2.263   2.315  11.044 -0.1520 -0.0662  0.1024
  136SAPE   O1114708   2.434   2.378  10.875  0.4224 -0.0925 -0.6425
  136SAPE    C114709   2.353   2.409  10.759 -0.3001  0.4462  0.5342
  136SAPE    HA14710   2.283   2.324  10.744 -1.9059  1.4338  1.9926
  136SAPE    HB14711   2.288   2.498  10.772  0.3943  1.5119 -2.5705
  136SAPE    C214712   2.440   2.422  10.626  0.6290 -0.1696 -0.2329
  136SAPE    HS14713   2.369   2.429  10.541  0.4725 -0.7640 -0.1547
  136SAPE   O2114714   2.529   2.313  10.615 -0.4685  0.3524 -0.2384
  136SAPE   C2114715   2.472   2.198  10.576 -0.1305 -0.2693  0.6288
  136SAPE   O2214716   2.351   2.182  10.565 -0.0539 -0.0076  0.1951
  136SAPE   C2214717   2.570   2.085  10.539  0.4937 -0.2331 -1.2336
  136SAPE   H2R14718   2.592   2.030  10.633  0.2397 -0.6434 -1.4060
  136SAPE   H2S14719   2.517   2.006  10.480 -0.0269  0.2292 -1.3870
  136SAPE    C314720   2.535   2.544  10.637  0.5086  0.1744 -0.2057
  136SAPE    HX14721   2.625   2.529  10.699  1.2430  1.1731 -0.9877
  136SAPE    HY14722   2.473   2.624  10.682  0.0762  0.1854 -0.8002
  136SAPE   O3114723   2.577   2.581  10.504  0.0304  0.2902 -0.1973
  136SAPE   C3114724   2.700   2.563  10.470 -0.2187  0.0223 -0.4027
  136SAPE   O3214725   2.795   2.554  10.544 -0.4954  0.2747  0.1416
  136SAPE   C3214726   2.717   2.531  10.327  0.9755  0.4253  0.3608
  136SAPE   H2X14727   2.632   2.570  10.267  0.9486  0.7110  0.5831
  136SAPE   H2Y14728   2.702   2.421  10.327 -1.6041  0.6098  3.6066
  136SAPE   C2314729   2.699   2.133  10.461  0.4925  0.3362 -0.0773
  136SAPE   H3R14730   2.787   2.068  10.478  1.1825  0.8712 -1.4499
  136SAPE   H3S14731   2.730   2.234  10.497 -0.9151  0.4309  0.9783
  136SAPE   C2414732   2.679   2.139  10.310 -0.4584  0.4921 -0.0321
  136SAPE   H4R14733   2.759   2.199  10.262  1.1125  2.2200  4.2515
  136SAPE   H4S14734   2.590   2.203  10.290 -0.1718  0.4319 -1.5950
  136SAPE   C2514735   2.663   2.009  10.243  0.1085  0.1748 -0.0990
  136SAPE   H5R14736   2.694   1.923  10.305  0.2498 -0.1543 -0.6257
  136SAPE   C2614737   2.620   1.983  10.120  0.3059  0.1307  0.4990
  136SAPE   H6R14738   2.620   1.879  10.085  0.3024  0.0073  0.8643
  136SAPE   C2714739   2.587   2.089  10.021  0.6488  0.0032 -0.8470
  136SAPE   H7R14740   2.654   2.077   9.932  0.8047  0.2383 -0.7641
  136SAPE   H7S14741   2.600   2.190  10.064  1.3376 -0.2680 -0.3991
  136SAPE   C2814742   2.441   2.090   9.983  0.7293 -0.2169  0.2698
  136SAPE   H8R14743   2.380   2.088  10.075  1.4019  0.9395  0.7679
  136SAPE   C2914744   2.382   2.102   9.858 -0.3470 -0.2678 -0.0287
  136SAPE   H9R14745   2.274   2.122   9.854 -0.4538 -0.7786  0.3171
  136SAPE  C21014746   2.459   2.128   9.729 -0.4065 -0.2583 -0.0823
  136SAPE  H10R14747   2.533   2.204   9.765 -1.3638  1.1836 -1.0467
  136SAPE  H10S14748   2.388   2.184   9.664 -0.6053  2.2739  2.1213
  136SAPE  C21114749   2.522   2.008   9.670 -0.5227  0.6445 -0.4133
  136SAPE  H11R14750   2.588   1.954   9.739 -1.1949 -1.3600 -1.2601
  136SAPE  C21214751   2.511   1.967   9.546  0.4653  0.5409  0.1651
  136SAPE  H12R14752   2.556   1.873   9.509  1.2660  1.2857 -0.8045
  136SAPE  C21314753   2.429   2.024   9.434  0.2520  0.2399 -0.3653
  136SAPE  H13R14754   2.376   2.118   9.460  0.7487  0.8188 -1.3881
  136SAPE  H13S14755   2.362   1.942   9.400 -0.9178  0.3579  1.4691
  136SAPE  C21414756   2.523   2.072   9.328 -0.7077  0.1337 -0.2231
  136SAPE  H14R14757   2.613   2.130   9.354 -1.4841  0.9013  0.7944
  136SAPE  C21514758   2.515   2.034   9.194  0.5917  0.5228 -0.4157
  136SAPE  H15R14759   2.588   2.076   9.123  0.4790  0.1406 -0.7644
  136SAPE  C21614760   2.415   1.958   9.121  0.9336  0.4894  0.1525
  136SAPE  H16R14761   2.354   2.022   9.054 -0.2299 -0.5883  0.1346
  136SAPE  H16S14762   2.342   1.913   9.192 -2.2031  1.5997 -2.1372
  136SAPE  C21714763   2.481   1.850   9.029 -0.1940  0.5060 -0.7295
  136SAPE  H17R14764   2.535   1.885   8.938  0.7745  3.6951  0.8805
  136SAPE  H17S14765   2.396   1.789   8.993  0.1311  0.2776 -1.1044
  136SAPE  C21814766   2.578   1.755   9.105 -0.6809  0.5928 -0.1733
  136SAPE  H18R14767   2.547   1.741   9.210  2.8672 -0.4132  0.8979
  136SAPE  H18S14768   2.681   1.797   9.111 -0.3204 -0.4932  1.9399
  136SAPE  C21914769   2.608   1.622   9.029  0.2286 -1.2087  0.5184
  136SAPE  H19R14770   2.632   1.651   8.924  2.7408  0.1062  1.3563
  136SAPE  H19S14771   2.513   1.566   9.045 -1.2806  1.6401  2.4949
  136SAPE  C22014772   2.728   1.546   9.077 -0.3365  0.1244  0.2753
  136SAPE  H20R14773   2.708   1.507   9.179 -1.3482  0.2946  0.1514
  136SAPE  H20S14774   2.821   1.607   9.075  0.4070 -0.9749 -0.6937
  136SAPE  H20T14775   2.738   1.451   9.019  0.2596  1.1454 -1.3640
  136SAPE   C3314776   2.852   2.555  10.271 -0.1037 -0.5059  0.8800
  136SAPE   H3X14777   2.933   2.514  10.335  0.4842  0.1234  0.5575
  136SAPE   H3Y14778   2.878   2.663  10.268 -1.6440 -0.1286 -0.1770
  136SAPE   C3414779   2.879   2.495  10.125  0.1995  0.4541 -0.2279
  136SAPE   H4X14780   2.903   2.389  10.148  0.0747  0.1430 -1.4437
  136SAPE   H4Y14781   2.973   2.534  10.081 -0.6789  2.7335 -0.2037
  136SAPE   C3514782   2.770   2.512  10.021  0.2224  0.3184 -0.2347
  136SAPE   H5X14783   2.741   2.619  10.030  0.5297  0.4636 -0.8781
  136SAPE   H5Y14784   2.682   2.447  10.039  1.8468 -1.9642 -0.0987
  136SAPE   C3614785   2.815   2.483   9.883  0.3950 -0.2260  0.8654
  136SAPE   H6X14786   2.853   2.379   9.895 -3.0959 -1.4321  3.4345
  136SAPE   H6Y14787   2.893   2.554   9.850  0.2155 -0.4658 -0.1121
  136SAPE   C3714788   2.705   2.490   9.773  0.1517 -0.0859  0.3300
  136SAPE   H7X14789   2.641   2.576   9.801 -0.4796 -1.0199  1.8803
  136SAPE   H7Y14790   2.661   2.389   9.785 -0.4799  0.2745  1.1512
  136SAPE   C3814791   2.753   2.488   9.624 -0.4977  0.0547  0.3748
  136SAPE   H8X14792   2.823   2.408   9.593  0.2643  0.9081 -0.1413
  136SAPE   H8Y14793   2.812   2.578   9.598 -1.0256  0.1888 -0.3958
  136SAPE   C3914794   2.625   2.485   9.539  0.3409 -0.2734 -0.4246
  136SAPE   H9X14795   2.564   2.577   9.557 -1.7127 -1.6645  0.0626
  136SAPE   H9Y14796   2.562   2.404   9.579  1.0006  0.8525  3.2543
  136SAPE  C31014797   2.656   2.475   9.392  0.1144 -0.3731  0.2078
  136SAPE  H10X14798   2.720   2.385   9.386  2.8999  1.4933  0.0171
  136SAPE  H10Y14799   2.719   2.565   9.377 -0.7818  0.1718 -0.4254
  136SAPE  C31114800   2.534   2.460   9.303 -0.2466  0.0804  0.2980
  136SAPE  H11X14801   2.472   2.550   9.322  1.3135  0.9957  1.2899
  136SAPE  H11Y14802   2.477   2.368   9.329  1.6529 -1.3998 -0.5018
  136SAPE  C31214803   2.570   2.453   9.154  0.2687  0.2261 -0.0544
  136SAPE  H12X14804   2.583   2.553   9.107 -0.9471  0.5566  0.2665
  136SAPE  H12Y14805   2.478   2.413   9.106 -0.5335  1.6715  0.2282
  136SAPE  C31314806   2.685   2.363   9.118  0.0253  0.4516  0.0939
  136SAPE  H13X14807   2.683   2.268   9.176 -0.5975  0.7690  0.6006
  136SAPE  H13Y14808   2.778   2.413   9.152  0.2025 -0.8039  1.5646
  136SAPE  C31414809   2.697   2.331   8.964  0.5013  0.6911 -0.1806
  136SAPE  H14X14810   2.613   2.265   8.933  1.1313 -0.3382  0.2441
  136SAPE  H14Y14811   2.796   2.280   8.959  0.1983  0.0533  0.1640
  136SAPE  C31514812   2.700   2.453   8.865  0.3607  0.1129 -0.0486
  136SAPE  H15X14813   2.774   2.521   8.914 -0.3221  0.3646  0.6498
  136SAPE  H15Y14814   2.599   2.498   8.862 -0.1801 -1.0158  0.7740
  136SAPE  C31614815   2.752   2.435   8.719  0.2902  0.4124  0.0415
  136SAPE  H16X14816   2.707   2.524   8.671  0.6979  0.4312 -0.3037
  136SAPE  H16Y14817   2.726   2.344   8.661  1.3575  0.2527 -0.1948
  136SAPE  C31714818   2.904   2.441   8.713 -1.1314 -0.1463  0.2672
  136SAPE  H17X14819   2.949   2.348   8.753  0.6927  0.1984 -0.8400
  136SAPE  H17Y14820   2.942   2.518   8.784  0.6608 -0.1272 -0.6627
  136SAPE  C31814821   2.960   2.459   8.570 -0.0834  0.5030 -0.1254
  136SAPE  H18X14822   2.913   2.533   8.502 -0.3939 -0.2679 -0.7658
  136SAPE  H18Y14823   2.957   2.365   8.510  1.0401  0.2981  0.1151
  136SAPE  H18Z14824   3.066   2.484   8.593 -0.1690 -0.5764  1.5727
  137SAPE     N14825   2.761   5.952  11.023 -0.2184  0.0992 -0.2113
  137SAPE   HN114826   2.769   6.022  11.099  0.2324  1.4357 -1.4476
  137SAPE   HN214827   2.735   5.858  11.058  0.3018  0.5226  1.3772
  137SAPE   HN314828   2.856   5.947  10.981 -0.7979  1.1269 -1.7509
  137SAPE   C1214829   2.672   6.008  10.918  0.2113  0.2266  0.2588
  137SAPE  H12A14830   2.710   6.101  10.872 -1.1145  0.0379 -1.3124
  137SAPE  H12B14831   2.567   6.022  10.949 -0.4348 -2.0989 -0.6645
  137SAPE   C1114832   2.676   5.906  10.796  0.2447 -0.2011  0.1029
  137SAPE  H11A14833   2.779   5.910  10.754 -0.0091 -2.0481 -0.8107
  137SAPE  H11B14834   2.606   5.937  10.716  0.9760  1.1838 -0.0407
  137SAPE     P14835   2.650   5.663  10.756  0.3149 -0.1337 -0.0909
  137SAPE   O1314836   2.786   5.647  10.711 -0.1037 -0.0996  0.2662
  137SAPE   O1414837   2.583   5.553  10.823  0.1304 -0.8049 -0.3316
  137SAPE   O1214838   2.648   5.785  10.853 -0.2496  0.7107 -0.3627
  137SAPE   O1114839   2.561   5.709  10.629  0.1368  0.8671  0.2000
  137SAPE    C114840   2.423   5.738  10.641 -0.9107 -0.5554 -0.3292
  137SAPE    HA14841   2.403   5.807  10.726  2.2498  4.0668 -2.8842
  137SAPE    HB14842   2.400   5.796  10.549  2.0948  2.0724  0.3905
  137SAPE    C214843   2.327   5.619  10.652 -0.8839 -0.9900 -0.5999
  137SAPE    HS14844   2.347   5.565  10.747 -1.1639 -1.2952 -0.7090
  137SAPE   O2114845   2.362   5.537  10.534  0.2675 -0.1391 -0.5002
  137SAPE   C2114846   2.306   5.422  10.534  0.0672  0.6178 -0.1691
  137SAPE   O2214847   2.249   5.367  10.630  0.5282  0.3570 -0.5893
  137SAPE   C2214848   2.335   5.355  10.405 -0.6409 -0.1628 -0.1009
  137SAPE   H2R14849   2.278   5.410  10.327 -0.5527 -0.5926 -0.4708
  137SAPE   H2S14850   2.444   5.359  10.383 -1.0194 -1.1078 -2.3765
  137SAPE    C314851   2.179   5.659  10.653 -0.4073  0.2271 -0.1371
  137SAPE    HX14852   2.158   5.700  10.754 -0.4361 -0.8250  0.2985
  137SAPE    HY14853   2.107   5.575  10.658 -0.5095  0.2785 -0.6965
  137SAPE   O3114854   2.157   5.764  10.552  0.0247  0.4000 -0.0119
  137SAPE   C3114855   2.125   5.712  10.442 -0.2536  0.3438  0.7856
  137SAPE   O3214856   2.089   5.595  10.420 -0.6486 -0.5418 -0.2395
  137SAPE   C3214857   2.172   5.807  10.331 -0.4326  0.3251 -0.2844
  137SAPE   H2X14858   2.282   5.823  10.342 -0.8763  2.2026  2.5147
  137SAPE   H2Y14859   2.129   5.907  10.351 -0.9783  0.3122 -1.3519
  137SAPE   C2314860   2.283   5.201  10.408  0.2548 -0.4235  0.0978
  137SAPE   H3R14861   2.174   5.196  10.428  0.4471  1.3036  1.9557
  137SAPE   H3S14862   2.322   5.150  10.498  0.5652  1.4271  1.0607
  137SAPE   C2414863   2.311   5.115  10.283 -0.6782 -0.1961 -0.0168
  137SAPE   H4R14864   2.268   5.159  10.191 -0.3430 -4.3692 -2.4004
  137SAPE   H4S14865   2.265   5.013  10.285  1.3866 -1.1955  2.7440
  137SAPE   C2514866   2.458   5.092  10.254 -0.1090  0.3003 -0.6196
  137SAPE   H5R14867   2.508   5.052  10.343 -1.2358 -0.3864 -0.2759
  137SAPE   C2614868   2.532   5.102  10.144 -0.0478  0.4862  0.6612
  137SAPE   H6R14869   2.637   5.077  10.163  0.0864  1.3801  1.1623
  137SAPE   C2714870   2.472   5.120  10.004 -0.2153  0.6306 -0.3190
  137SAPE   H7R14871   2.385   5.185  10.026 -1.8807 -1.8825  0.9544
  137SAPE   H7S14872   2.421   5.025   9.977 -0.6017  0.8896 -0.5146
  137SAPE   C2814873   2.569   5.167   9.896  0.8097  0.7406 -0.5780
  137SAPE   H8R14874   2.675   5.165   9.924  0.2224 -1.6228  1.8901
  137SAPE   C2914875   2.541   5.193   9.771  0.0719 -0.2491 -0.1672
  137SAPE   H9R14876   2.619   5.231   9.705  1.5017  1.0785  2.1665
  137SAPE  C21014877   2.405   5.179   9.708 -0.2961 -0.0817  0.4368
  137SAPE  H10R14878   2.328   5.145   9.780 -3.0641 -0.0095 -2.2870
  137SAPE  H10S14879   2.410   5.103   9.627 -2.7120 -0.7710  0.8722
  137SAPE  C21114880   2.357   5.306   9.649  0.2740 -0.4856 -0.2888
  137SAPE  H11R14881   2.313   5.381   9.716  0.0544  0.1839 -1.1608
  137SAPE  C21214882   2.377   5.348   9.522 -0.2629 -0.3262 -0.3082
  137SAPE  H12R14883   2.334   5.443   9.488 -1.5982 -0.7991  0.0194
  137SAPE  C21314884   2.449   5.272   9.413 -0.0152  0.3934  0.1897
  137SAPE  H13R14885   2.413   5.312   9.316 -3.1790 -1.6906  0.3478
  137SAPE  H13S14886   2.416   5.166   9.411 -0.6982  0.6025 -1.3244
  137SAPE  C21414887   2.596   5.280   9.426 -1.0916  0.5260 -0.6153
  137SAPE  H14R14888   2.634   5.309   9.525  0.1354 -4.1109  0.5231
  137SAPE  C21514889   2.684   5.251   9.327  0.2630 -0.1563 -0.5976
  137SAPE  H15R14890   2.790   5.267   9.355 -0.0851 -1.3041  1.6265
  137SAPE  C21614891   2.641   5.204   9.189  0.1901  0.1797 -0.6677
  137SAPE  H16R14892   2.546   5.149   9.201  0.2728  0.1900  0.0331
  137SAPE  H16S14893   2.716   5.134   9.146 -1.2522 -1.5267 -0.4894
  137SAPE  C21714894   2.615   5.313   9.091  0.4157 -0.7144  0.0289
  137SAPE  H17R14895   2.515   5.359   9.103  1.5502  2.4195 -1.3015
  137SAPE  H17S14896   2.612   5.270   8.988 -1.4225 -1.3940  0.3322
  137SAPE  C21814897   2.727   5.419   9.090 -0.4369  0.7493  0.1023
  137SAPE  H18R14898   2.827   5.376   9.072 -0.6916 -0.3643  1.1828
  137SAPE  H18S14899   2.731   5.473   9.187 -0.0898  0.3496  0.3107
  137SAPE  C21914900   2.695   5.521   8.973 -0.2679 -0.1964 -0.3589
  137SAPE  H19R14901   2.596   5.568   8.991 -0.4220 -0.8318  0.4604
  137SAPE  H19S14902   2.683   5.482   8.869  0.5198 -0.4458 -0.3631
  137SAPE  C22014903   2.800   5.628   8.962 -0.5423 -0.3884  0.0159
  137SAPE  H20R14904   2.802   5.676   9.062  0.1492  0.6057 -0.4578
  137SAPE  H20S14905   2.784   5.708   8.887  2.1825 -0.3312 -0.6142
  137SAPE  H20T14906   2.900   5.585   8.938  0.0338  1.1373 -0.3910
  137SAPE   C3314907   2.136   5.764  10.188 -0.5429  0.4346 -0.0992
  137SAPE   H3X14908   2.025   5.758  10.183 -0.4570 -3.8501 -0.0337
  137SAPE   H3Y14909   2.167   5.662  10.158 -1.9729  0.1301 -0.6132
  137SAPE   C3414910   2.185   5.872  10.088  0.7328  0.3589 -0.0608
  137SAPE   H4X14911   2.296   5.875  10.082  1.0325  2.0360  3.7767
  137SAPE   H4Y14912   2.154   5.974  10.120 -0.6941 -0.0478 -0.0923
  137SAPE   C3514913   2.104   5.860   9.962  0.4666 -0.4313  0.8193
  137SAPE   H5X14914   1.999   5.841   9.995 -0.1827  0.0591 -0.8092
  137SAPE   H5Y14915   2.140   5.768   9.910  4.6400  0.9178  1.0367
  137SAPE   C3614916   2.110   5.990   9.875  0.0834 -0.6016 -0.3002
  137SAPE   H6X14917   2.216   5.995   9.844  0.4671 -1.5172  0.8052
  137SAPE   H6Y14918   2.092   6.085   9.931  1.4047 -0.0139 -0.8341
  137SAPE   C3714919   2.002   5.981   9.767  0.0152 -0.2436 -0.4918
  137SAPE   H7X14920   1.913   5.992   9.833  0.2950 -2.0747  0.2595
  137SAPE   H7Y14921   1.981   5.882   9.720 -0.8972 -0.8825  1.1522
  137SAPE   C3814922   1.991   6.101   9.673  0.0057  0.6255 -0.0090
  137SAPE   H8X14923   2.022   6.191   9.731 -3.2488  1.1866  1.0708
  137SAPE   H8Y14924   1.886   6.115   9.639  0.3342 -1.1242 -1.9336
  137SAPE   C3914925   2.078   6.071   9.547 -1.0067  0.3624 -0.5049
  137SAPE   H9X14926   2.174   6.046   9.597 -0.4321 -1.4178 -2.3803
  137SAPE   H9Y14927   2.101   6.158   9.481  1.9273  0.1128  0.0605
  137SAPE  C31014928   2.044   5.957   9.453 -0.0136  0.4105 -0.1663
  137SAPE  H10X14929   1.949   5.985   9.403  0.1636 -0.5129 -1.0563
  137SAPE  H10Y14930   2.015   5.871   9.517  0.7512  0.3047  0.0477
  137SAPE  C31114931   2.150   5.908   9.351  0.1594  0.2500  0.0457
  137SAPE  H11X14932   2.234   5.862   9.408 -0.1148  0.4324  0.6070
  137SAPE  H11Y14933   2.189   5.988   9.285  0.2486  0.6833  0.6109
  137SAPE  C31214934   2.097   5.797   9.258 -0.3237  0.7046  0.5266
  137SAPE  H12X14935   2.018   5.851   9.202  2.6146  0.9674 -3.8606
  137SAPE  H12Y14936   2.047   5.722   9.324 -0.1710 -0.6810 -0.8610
  137SAPE  C31314937   2.190   5.728   9.152 -0.2873 -0.0775  0.1615
  137SAPE  H13X14938   2.290   5.715   9.198  0.0572  3.2670  0.5861
  137SAPE  H13Y14939   2.208   5.799   9.069  1.6744 -1.5822 -0.8040
  137SAPE  C31414940   2.136   5.594   9.102  0.0791 -0.0475  0.0285
  137SAPE  H14X14941   2.036   5.603   9.056 -0.9162 -1.5297  1.7812
  137SAPE  H14Y14942   2.111   5.526   9.186  0.0369 -1.0113 -0.7481
  137SAPE  C31514943   2.237   5.525   9.004 -0.0757 -0.1856 -0.4740
  137SAPE  H15X14944   2.229   5.416   9.023 -1.4252  0.3694  2.7901
  137SAPE  H15Y14945   2.341   5.555   9.028 -0.2202 -0.4934  0.5775
  137SAPE  C31614946   2.202   5.555   8.861 -0.3039  1.1195  0.1701
  137SAPE  H16X14947   2.206   5.665   8.849  0.8578  1.2581  1.6394
  137SAPE  H16Y14948   2.098   5.515   8.856 -0.1009  0.6177 -0.1942
  137SAPE  C31714949   2.298   5.496   8.763 -0.6856  0.1358  0.1986
  137SAPE  H17X14950   2.397   5.533   8.797 -0.4883  0.9843 -1.2206
  137SAPE  H17Y14951   2.277   5.534   8.660 -0.7608 -0.3329  0.0348
  137SAPE  C31814952   2.293   5.341   8.756 -0.7788 -0.2127 -0.3905
  137SAPE  H18X14953   2.302   5.317   8.648 -0.4825  1.1297 -0.6832
  137SAPE  H18Y14954   2.200   5.294   8.795 -0.8284 -2.3555 -2.8353
  137SAPE  H18Z14955   2.383   5.298   8.806 -1.5656 -3.2002 -1.3770
  138SAPE     N14956   6.126   5.027  10.761 -0.0564 -0.1343  0.3263
  138SAPE   HN114957   6.073   5.116  10.766  1.1902  0.6590 -0.2167
  138SAPE   HN214958   6.088   4.959  10.830  0.0010  2.5353  3.2021
  138SAPE   HN314959   6.227   5.049  10.775  0.3830  0.2265 -2.7422
  138SAPE   C1214960   6.107   4.961  10.630 -0.0684  0.3827  0.8334
  138SAPE  H12A14961   6.179   4.876  10.628 -1.7594 -1.0995 -0.5190
  138SAPE  H12B14962   6.135   5.032  10.550  1.0771  1.1324  1.8740
  138SAPE   C1114963   5.964   4.902  10.627  0.4035  0.2865  0.4166
  138SAPE  H11A14964   5.940   4.836  10.541  0.4773  2.2927 -1.2179
  138SAPE  H11B14965   5.892   4.986  10.619 -0.8289 -0.8249 -0.5307
  138SAPE     P14966   5.796   4.771  10.794 -0.4914 -0.4642  0.3852
  138SAPE   O1314967   5.822   4.625  10.821  0.2932  0.0152 -0.5038
  138SAPE   O1414968   5.721   4.855  10.886  0.2332  0.1601 -0.0288
  138SAPE   O1214969   5.936   4.841  10.750 -0.2060 -0.3557 -0.2953
  138SAPE   O1114970   5.721   4.773  10.660 -0.4791  0.4072  0.6351
  138SAPE    C114971   5.636   4.669  10.597 -0.8086 -0.4409 -1.0656
  138SAPE    HA14972   5.690   4.572  10.608  0.2227  0.2881  1.0455
  138SAPE    HB14973   5.543   4.665  10.658 -0.0847 -0.9666  0.0378
  138SAPE    C214974   5.600   4.710  10.456  0.0358  0.4694  0.4482
  138SAPE    HS14975   5.521   4.640  10.418  0.1747  1.2104 -1.2837
  138SAPE   O2114976   5.711   4.697  10.363  0.0925 -0.3393 -0.5607
  138SAPE   C2114977   5.743   4.571  10.339  0.2242  0.0830 -0.6414
  138SAPE   O2214978   5.698   4.480  10.402  0.1093  0.4570  1.1052
  138SAPE   C2214979   5.849   4.567  10.222  0.2177  0.0064 -0.7158
  138SAPE   H2R14980   5.813   4.636  10.143 -1.1040 -0.6028 -0.6708
  138SAPE   H2S14981   5.942   4.615  10.260  1.4542 -1.6644 -1.4821
  138SAPE    C314982   5.533   4.839  10.454 -0.5992 -0.3716 -0.7649
  138SAPE    HX14983   5.602   4.904  10.513 -1.0561  0.2565 -0.9134
  138SAPE    HY14984   5.434   4.841  10.503 -0.0274  1.7337  0.4464
  138SAPE   O3114985   5.523   4.886  10.317 -0.0787 -0.1224  0.0033
  138SAPE   C3114986   5.528   5.018  10.305  0.4800  0.8605 -0.1959
  138SAPE   O3214987   5.543   5.098  10.397  0.1709 -0.2438  0.4126
  138SAPE   C3214988   5.495   5.048  10.157 -0.0749  0.2114 -0.3331
  138SAPE   H2X14989   5.395   5.016  10.121 -0.0799 -0.4625  0.2565
  138SAPE   H2Y14990   5.566   4.985  10.101 -0.4858 -0.7917  0.2463
  138SAPE   C2314991   5.878   4.430  10.169  0.2700  0.4235 -0.7712
  138SAPE   H3R14992   5.787   4.367  10.164  1.5580 -1.5405 -1.0258
  138SAPE   H3S14993   5.949   4.373  10.233  0.0134 -0.3246 -1.1380
  138SAPE   C2414994   5.918   4.435  10.019 -0.4020 -0.2562 -0.9341
  138SAPE   H4R14995   6.008   4.494   9.988 -1.2808 -0.2547 -3.8224
  138SAPE   H4S14996   5.833   4.492   9.975 -0.2232  1.5881  0.9464
  138SAPE   C2514997   5.940   4.298   9.959 -0.1302  0.0777  0.2965
  138SAPE   H5R14998   5.994   4.228  10.024  0.4991 -1.7961 -2.0642
  138SAPE   C2614999   5.881   4.249   9.845 -0.5781  0.2714 -0.3836
  138SAPE   H6R15000   5.891   4.141   9.830  1.9477  0.4698 -0.4797
  138SAPE   C2715001   5.783   4.319   9.762 -0.1724  0.8875 -0.2380
  138SAPE   H7R15002   5.828   4.418   9.737  0.0109  0.9613  0.3592
  138SAPE   H7S15003   5.695   4.348   9.823 -0.2190  3.2473 -1.3000
  138SAPE   C2815004   5.734   4.245   9.634 -0.9759 -0.6173  0.3659
  138SAPE   H8R15005   5.781   4.293   9.547 -3.0505  2.5301  0.8136
  138SAPE   C2915006   5.635   4.154   9.629  0.4230 -0.1300 -0.4023
  138SAPE   H9R15007   5.602   4.109   9.534  1.5759 -3.7521  0.7424
  138SAPE  C21015008   5.552   4.083   9.737  0.0302  0.1357 -0.0928
  138SAPE  H10R15009   5.600   4.094   9.837  1.1266 -1.5971 -0.3947
  138SAPE  H10S15010   5.545   3.974   9.716 -1.4026  0.2182 -0.1758
  138SAPE  C21115011   5.414   4.138   9.749  0.2421  0.0443 -0.2296
  138SAPE  H11R15012   5.404   4.241   9.712 -1.6407  0.9256  2.4595
  138SAPE  C21215013   5.301   4.074   9.791  0.1074 -0.8567  0.3610
  138SAPE  H12R15014   5.210   4.137   9.798  0.6915  0.4268 -2.1834
  138SAPE  C21315015   5.299   3.940   9.849  0.0495  0.2579 -0.1740
  138SAPE  H13R15016   5.240   3.923   9.942 -1.5356  3.1985 -0.5314
  138SAPE  H13S15017   5.401   3.908   9.879  0.5053  2.4823  0.8372
  138SAPE  C21415018   5.254   3.859   9.727  0.0990  0.1727 -0.2977
  138SAPE  H14R15019   5.162   3.896   9.680 -0.9945 -1.7509  0.2429
  138SAPE  C21515020   5.316   3.752   9.672  0.1519  0.3506 -0.3017
  138SAPE  H15R15021   5.255   3.684   9.612 -2.5733  0.2197  2.3438
  138SAPE  C21615022   5.449   3.696   9.729 -0.1589  0.8339 -0.2245
  138SAPE  H16R15023   5.501   3.766   9.798  1.0435  2.5347 -2.6891
  138SAPE  H16S15024   5.519   3.692   9.643  0.4552  0.3845  0.2884
  138SAPE  C21715025   5.440   3.556   9.781 -0.1091  0.1121 -0.7457
  138SAPE  H17R15026   5.418   3.468   9.716  0.9058 -1.0587  0.4187
  138SAPE  H17S15027   5.355   3.569   9.852  0.0324  1.1010 -0.7513
  138SAPE  C21815028   5.566   3.519   9.854 -0.6477 -0.5430  0.3422
  138SAPE  H18R15029   5.600   3.591   9.932  0.6087 -0.2404 -0.4593
  138SAPE  H18S15030   5.659   3.506   9.794 -0.4238 -2.9254  1.1108
  138SAPE  C21915031   5.562   3.383   9.928 -0.3751  0.2984 -0.1688
  138SAPE  H19R15032   5.536   3.300   9.859 -3.8505  0.9674  0.1152
  138SAPE  H19S15033   5.473   3.383   9.994 -1.8627 -0.8274 -2.0487
  138SAPE  C22015034   5.684   3.347  10.005 -0.5165 -0.2870  0.5085
  138SAPE  H20R15035   5.767   3.321   9.936 -0.6260  0.1661  0.2011
  138SAPE  H20S15036   5.651   3.251  10.052 -1.7198 -0.6847 -1.0387
  138SAPE  H20T15037   5.721   3.423  10.076  1.4468 -1.3173  0.6634
  138SAPE   C3315038   5.513   5.198  10.129  0.3063 -0.4804 -0.1264
  138SAPE   H3X15039   5.622   5.208  10.116  0.2412 -0.5556 -0.7374
  138SAPE   H3Y15040   5.477   5.266  10.210  0.7513 -1.5050  0.9515
  138SAPE   C3415041   5.441   5.242   9.996  0.8750  0.2695  0.3953
  138SAPE   H4X15042   5.333   5.222  10.005  0.7318  0.4593 -0.7617
  138SAPE   H4Y15043   5.476   5.166   9.923  0.0244  0.1021  0.1609
  138SAPE   C3515044   5.475   5.385   9.949 -0.2142  0.5961 -0.1308
  138SAPE   H5X15045   5.583   5.383   9.924 -0.6181 -1.3986 -2.0964
  138SAPE   H5Y15046   5.466   5.462  10.028  1.7682  0.6506  0.0818
  138SAPE   C3615047   5.402   5.436   9.831 -0.0121 -0.3005 -0.1971
  138SAPE   H6X15048   5.430   5.538   9.798 -0.0177  0.0151  0.7592
  138SAPE   H6Y15049   5.298   5.441   9.870 -0.3544 -0.6287 -1.0370
  138SAPE   C3715050   5.401   5.341   9.705 -0.6653 -0.0777  0.6210
  138SAPE   H7X15051   5.360   5.240   9.730  2.0397 -0.9289  2.1236
  138SAPE   H7Y15052   5.508   5.326   9.678  0.0655  1.7317  2.2977
  138SAPE   C3815053   5.315   5.399   9.591 -0.3304 -0.1667  0.0829
  138SAPE   H8X15054   5.356   5.502   9.584 -0.3370 -0.0234  1.8850
  138SAPE   H8Y15055   5.206   5.401   9.614 -0.4812  0.1037 -0.6322
  138SAPE   C3915056   5.345   5.329   9.458  0.0004 -0.2484  0.5120
  138SAPE   H9X15057   5.306   5.227   9.476 -1.0235  0.3144  1.6405
  138SAPE   H9Y15058   5.454   5.331   9.432  0.2472 -0.4237  1.4929
  138SAPE  C31015059   5.268   5.390   9.347  0.4537  0.0694 -0.2442
  138SAPE  H10X15060   5.276   5.501   9.339 -1.0033  0.0985 -2.3061
  138SAPE  H10Y15061   5.159   5.369   9.356  0.4085  0.8621  1.5230
  138SAPE  C31115062   5.316   5.329   9.216  0.2137  0.5568  0.2693
  138SAPE  H11X15063   5.339   5.221   9.228  0.8248  0.6073 -0.3797
  138SAPE  H11Y15064   5.410   5.380   9.186  0.9718 -0.4494  0.8550
  138SAPE  C31215065   5.219   5.329   9.097  0.3478 -0.5280 -0.7215
  138SAPE  H12X15066   5.221   5.437   9.072 -0.0126 -0.3399  0.0263
  138SAPE  H12Y15067   5.114   5.301   9.116  0.2531 -0.2974 -0.8987
  138SAPE  C31315068   5.270   5.231   8.995 -0.0108 -0.1592  0.3754
  138SAPE  H13X15069   5.268   5.137   9.055  1.4417  0.2909  1.1834
  138SAPE  H13Y15070   5.376   5.261   8.979 -0.3541  2.3422  2.1487
  138SAPE  C31415071   5.201   5.219   8.862  0.1921  0.9095 -1.4017
  138SAPE  H14X15072   5.187   5.323   8.826  1.4143  1.9933  1.0035
  138SAPE  H14Y15073   5.107   5.159   8.862  1.3643 -1.0434 -2.6728
  138SAPE  C31515074   5.295   5.144   8.762 -0.4827 -0.6596  0.1857
  138SAPE  H15X15075   5.333   5.053   8.814 -0.8796 -1.2015 -0.4515
  138SAPE  H15Y15076   5.383   5.207   8.739 -2.1129  1.5452 -0.3361
  138SAPE  C31615077   5.231   5.110   8.626 -0.1309 -0.0280 -0.0543
  138SAPE  H16X15078   5.126   5.077   8.636 -0.5208  0.1227 -2.8123
  138SAPE  H16Y15079   5.291   5.033   8.573 -1.6132 -0.5012 -1.1070
  138SAPE  C31715080   5.229   5.224   8.526  1.4138 -0.7501  0.5296
  138SAPE  H17X15081   5.329   5.272   8.513  1.8739 -1.6991  0.4616
  138SAPE  H17Y15082   5.162   5.306   8.560 -1.6261 -2.0894 -1.7794
  138SAPE  C31815083   5.189   5.172   8.390 -0.1587  0.5189 -0.7609
  138SAPE  H18X15084   5.163   5.246   8.311 -0.5800  0.8519 -0.3158
  138SAPE  H18Y15085   5.092   5.124   8.411  0.2006  0.5665  1.2003
  138SAPE  H18Z15086   5.262   5.097   8.351 -3.1776 -1.1548 -3.6539
  139SAPE     N15087   5.506   3.442  10.819  0.1968  0.0015 -0.8097
  139SAPE   HN115088   5.537   3.538  10.794 -0.5161  0.9564  1.6861
  139SAPE   HN215089   5.439   3.450  10.898  1.3098 -0.4602  0.2010
  139SAPE   HN315090   5.582   3.375  10.844  0.6335  0.5539 -0.6447
  139SAPE   C1215091   5.438   3.387  10.699  0.8115  0.0765  0.2422
  139SAPE  H12A15092   5.408   3.281  10.714 -0.3429  0.0632 -1.9056
  139SAPE  H12B15093   5.511   3.386  10.615 -0.2738  3.3310 -0.8782
  139SAPE   C1115094   5.317   3.479  10.667  0.3611 -0.7122  0.3492
  139SAPE  H11A15095   5.253   3.495  10.757  0.1205  0.4828 -0.0212
  139SAPE  H11B15096   5.258   3.438  10.583 -0.6332  2.9019 -0.8642
  139SAPE     P15097   5.268   3.724  10.572  0.1145 -0.2484  0.5894
  139SAPE   O1315098   5.131   3.705  10.619 -0.6380  0.1865  0.4370
  139SAPE   O1415099   5.340   3.843  10.618  0.3027 -0.3716 -0.3899
  139SAPE   O1215100   5.360   3.604  10.610 -0.5932 -0.1344  0.0195
  139SAPE   O1115101   5.255   3.724  10.412 -0.0369 -0.0533 -0.0456
  139SAPE    C115102   5.241   3.607  10.334  0.0098 -0.4278  0.5017
  139SAPE    HA15103   5.333   3.545  10.325  0.7381  0.7872 -0.7086
  139SAPE    HB15104   5.159   3.538  10.365 -0.1466 -0.2670  0.4438
  139SAPE    C215105   5.220   3.655  10.184  0.7091 -0.2983 -0.4837
  139SAPE    HS15106   5.246   3.567  10.122  0.2614 -2.0124  1.6289
  139SAPE   O2115107   5.296   3.774  10.149  0.2280 -0.0213 -0.0990
  139SAPE   C2115108   5.423   3.748  10.157  0.5567 -0.2332  0.1526
  139SAPE   O2215109   5.474   3.643  10.183 -0.1814 -0.2974  0.1343
  139SAPE   C2215110   5.500   3.880  10.167 -0.6903  0.4548 -0.1057
  139SAPE   H2R15111   5.429   3.957  10.130 -2.9135 -1.2093  0.4702
  139SAPE   H2S15112   5.525   3.905  10.272 -1.9428 -0.7338  0.5100
  139SAPE    C315113   5.074   3.683  10.142  0.2866  0.0599 -0.5350
  139SAPE    HX15114   5.066   3.711  10.034 -0.8557 -1.0020 -0.7460
  139SAPE    HY15115   5.032   3.770  10.198  3.2012 -0.4002  2.6592
  139SAPE   O3115116   4.994   3.567  10.177  0.2142  0.1184  0.0714
  139SAPE   C3115117   4.883   3.552  10.110  0.1855  0.1513  0.2159
  139SAPE   O3215118   4.839   3.619  10.015 -0.1664  0.0946  0.1931
  139SAPE   C3215119   4.808   3.435  10.183  0.4111  0.3672  0.0387
  139SAPE   H2X15120   4.813   3.450  10.293 -1.2659 -0.0670  0.2055
  139SAPE   H2Y15121   4.867   3.342  10.166 -0.8124 -0.2016 -1.2740
  139SAPE   C2315122   5.624   3.875  10.066 -0.6555 -0.2782 -0.2752
  139SAPE   H3R15123   5.587   3.902   9.965 -0.5451 -0.4951 -0.3753
  139SAPE   H3S15124   5.664   3.771  10.057 -1.6062 -0.5877 -1.0673
  139SAPE   C2415125   5.729   3.973  10.123 -0.3292 -0.3325  0.2653
  139SAPE   H4R15126   5.680   4.071  10.138 -0.3962 -0.4084  0.5418
  139SAPE   H4S15127   5.811   3.970  10.048  0.6300 -2.9597  1.2880
  139SAPE   C2515128   5.781   3.905  10.248 -0.0280  0.7430 -0.3047
  139SAPE   H5R15129   5.718   3.918  10.337  0.0000 -0.4759 -0.1004
  139SAPE   C2615130   5.893   3.824  10.250 -0.0505  0.3361 -0.6276
  139SAPE   H6R15131   5.907   3.757  10.336 -1.6996  0.7125 -0.0265
  139SAPE   C2715132   5.986   3.792  10.140  0.5011  0.4090  0.0190
  139SAPE   H7R15133   6.091   3.790  10.175  0.3252 -0.6663  0.5492
  139SAPE   H7S15134   5.997   3.869  10.061  2.2379 -1.3179 -1.5550
  139SAPE   C2815135   5.951   3.658  10.081  0.2569 -0.4617 -0.2787
  139SAPE   H8R15136   5.932   3.571  10.145 -0.0954 -0.3876 -0.2807
  139SAPE   C2915137   5.949   3.626   9.950 -0.6140 -0.7965 -0.1277
  139SAPE   H9R15138   5.928   3.528   9.906  1.7701 -1.5485  0.2808
  139SAPE  C21015139   5.963   3.720   9.826 -0.2276 -0.1624 -0.0450
  139SAPE  H10R15140   6.036   3.671   9.757  1.3459 -0.5812  1.8177
  139SAPE  H10S15141   5.999   3.822   9.850  0.3130  0.0407 -1.5999
  139SAPE  C21115142   5.834   3.744   9.759 -0.7521  0.8471  0.4121
  139SAPE  H11R15143   5.743   3.735   9.820 -1.1354  1.0613 -0.1218
  139SAPE  C21215144   5.810   3.783   9.631  0.8686 -1.0188 -0.0208
  139SAPE  H12R15145   5.702   3.792   9.613  0.6202 -0.6939  1.4531
  139SAPE  C21315146   5.916   3.815   9.525 -0.8878  1.0703  0.0290
  139SAPE  H13R15147   5.924   3.721   9.465 -0.4173  0.1346  1.5015
  139SAPE  H13S15148   6.017   3.838   9.566  0.2584 -0.4785 -1.7214
  139SAPE  C21415149   5.881   3.923   9.421 -0.2356  1.2391 -0.4209
  139SAPE  H14R15150   5.857   4.021   9.466  0.8711  0.1154  2.8749
  139SAPE  C21515151   5.885   3.905   9.282  0.0190  0.1663  0.1517
  139SAPE  H15R15152   5.869   3.989   9.212  0.3323  0.3793  0.3339
  139SAPE  C21615153   5.917   3.776   9.210 -0.2542  0.4760 -0.6448
  139SAPE  H16R15154   5.829   3.711   9.229  0.2757 -0.1884 -0.4421
  139SAPE  H16S15155   6.018   3.747   9.244 -0.2860 -0.4238 -1.3054
  139SAPE  C21715156   5.922   3.791   9.055 -0.1680  0.9234  0.8723
  139SAPE  H17R15157   5.832   3.832   9.005 -0.3982 -1.0806 -0.4719
  139SAPE  H17S15158   5.927   3.690   9.010 -1.1416  1.3797 -0.3258
  139SAPE  C21815159   6.049   3.866   9.025  0.1759  0.6584 -0.3643
  139SAPE  H18R15160   6.139   3.814   9.064  1.2073  1.1400 -1.9811
  139SAPE  H18S15161   6.046   3.960   9.083 -2.2773 -0.5589  1.6448
  139SAPE  C21915162   6.071   3.902   8.877  0.8599 -0.2118  0.0354
  139SAPE  H19R15163   6.137   3.991   8.887  0.6022  0.0309 -0.3477
  139SAPE  H19S15164   5.977   3.946   8.834  0.0462  0.6814  2.5617
  139SAPE  C22015165   6.130   3.790   8.789 -0.0474 -0.2074 -0.8296
  139SAPE  H20R15166   6.053   3.711   8.774 -0.4768  0.1327 -0.4498
  139SAPE  H20S15167   6.213   3.739   8.842  0.2398  0.1433 -0.9379
  139SAPE  H20T15168   6.177   3.830   8.697 -2.7830  1.9612 -1.3951
  139SAPE   C3315169   4.665   3.414  10.134 -0.2328  0.0049  0.7893
  139SAPE   H3X15170   4.606   3.508  10.129  0.6141  0.4749 -2.3633
  139SAPE   H3Y15171   4.608   3.353  10.208 -2.0019 -0.7082 -1.0935
  139SAPE   C3415172   4.654   3.344   9.999 -0.4530  0.1606 -0.3718
  139SAPE   H4X15173   4.650   3.236  10.027 -1.2291  0.0518 -0.8734
  139SAPE   H4Y15174   4.753   3.357   9.949  0.4564  1.7796  1.6729
  139SAPE   C3515175   4.533   3.380   9.915  0.1187  0.0572 -0.4514
  139SAPE   H5X15176   4.539   3.481   9.868 -2.8351  0.4735 -0.0979
  139SAPE   H5Y15177   4.446   3.389   9.984  0.0176  0.7803 -0.6540
  139SAPE   C3615178   4.507   3.270   9.810 -0.6498 -0.5188 -0.6582
  139SAPE   H6X15179   4.485   3.173   9.859  0.1100  0.6507  2.1505
  139SAPE   H6Y15180   4.602   3.259   9.754  0.7645 -1.0707  1.7186
  139SAPE   C3715181   4.396   3.302   9.704 -0.0057  0.3770 -0.1817
  139SAPE   H7X15182   4.402   3.412   9.686 -2.9541  0.6171 -0.2596
  139SAPE   H7Y15183   4.297   3.285   9.753 -0.4198  1.4151 -0.6114
  139SAPE   C3815184   4.410   3.223   9.571  0.0964  0.4857 -0.0100
  139SAPE   H8X15185   4.375   3.120   9.592  0.6651  0.6006  1.6258
  139SAPE   H8Y15186   4.516   3.222   9.540  0.4912  0.4103  1.2936
  139SAPE   C3915187   4.318   3.273   9.458 -0.3928  0.5043 -0.3494
  139SAPE   H9X15188   4.326   3.382   9.442  0.2874  0.6289  0.7508
  139SAPE   H9Y15189   4.215   3.244   9.489 -1.2000  1.3625 -2.0725
  139SAPE  C31015190   4.351   3.190   9.333 -0.5527 -0.1376 -0.6800
  139SAPE  H10X15191   4.362   3.089   9.377 -0.2650 -0.0746 -0.6077
  139SAPE  H10Y15192   4.452   3.215   9.294  0.8410 -0.5423  2.3262
  139SAPE  C31115193   4.244   3.194   9.225  0.0475 -0.0226 -0.0173
  139SAPE  H11X15194   4.245   3.295   9.178 -1.0069  0.7585  1.5457
  139SAPE  H11Y15195   4.155   3.172   9.288  0.0628  0.1777  0.0751
  139SAPE  C31215196   4.260   3.077   9.130 -0.2219 -0.0685  0.6837
  139SAPE  H12X15197   4.268   2.984   9.189 -0.0547 -1.3264 -1.2293
  139SAPE  H12Y15198   4.353   3.101   9.075  0.3364  1.3016  2.1441
  139SAPE  C31315199   4.140   3.065   9.029  0.3898  0.5168 -0.1970
  139SAPE  H13X15200   4.124   3.169   8.993 -3.3081 -0.1052 -0.7524
  139SAPE  H13Y15201   4.048   3.043   9.086  1.7448 -0.3359  1.7938
  139SAPE  C31415202   4.158   2.956   8.917  0.3445  0.1579  0.4875
  139SAPE  H14X15203   4.200   2.865   8.967 -0.3280  0.5059  1.7336
  139SAPE  H14Y15204   4.241   2.989   8.851 -1.1182  2.8081 -0.1621
  139SAPE  C31515205   4.024   2.932   8.840 -0.4226 -0.6204  0.3871
  139SAPE  H15X15206   3.948   2.918   8.920 -1.1079 -1.3011 -0.3620
  139SAPE  H15Y15207   4.024   2.841   8.777  2.1408 -0.2099 -0.3143
  139SAPE  C31615208   3.985   3.058   8.757 -0.3340  0.9488  0.0523
  139SAPE  H16X15209   3.979   3.152   8.817 -0.2039  0.3973  0.9414
  139SAPE  H16Y15210   4.081   3.066   8.700  0.8845  1.0319  2.0342
  139SAPE  C31715211   3.864   3.033   8.667 -0.2624 -0.0126  0.0776
  139SAPE  H17X15212   3.781   3.009   8.737 -0.2453  1.0330  0.4711
  139SAPE  H17Y15213   3.896   2.944   8.609 -0.1879 -0.1183  0.2770
  139SAPE  C31815214   3.818   3.161   8.598  0.0599 -0.7872  0.9105
  139SAPE  H18X15215   3.734   3.146   8.526  0.2265  1.8161  0.0532
  139SAPE  H18Y15216   3.901   3.224   8.558  0.6076 -0.3200  2.7126
  139SAPE  H18Z15217   3.773   3.231   8.672  0.2433  0.3050  0.0219
  140SAPE     N15218   0.333   0.020  11.156  0.0019  0.3109  0.5294
  140SAPE   HN115219   0.418   0.049  11.208  1.3589 -1.4941 -0.5550
  140SAPE   HN215220   0.298  -0.070  11.197  0.6877 -0.9285 -1.4681
  140SAPE   HN315221   0.346   0.002  11.054 -3.7266  0.0873 -0.0564
  140SAPE   C1215222   0.234   0.137  11.183 -0.2463  0.4421  0.6285
  140SAPE  H12A15223   0.224   0.144  11.294  3.0135  2.2732  0.9356
  140SAPE  H12B15224   0.137   0.107  11.140  0.5938 -2.2742  0.4241
  140SAPE   C1115225   0.265   0.274  11.125 -0.2979 -0.3728  1.1155
  140SAPE  H11A15226   0.188   0.345  11.162  0.9439  1.2893  0.6439
  140SAPE  H11B15227   0.262   0.278  11.015 -0.7143 -0.3019  1.1290
  140SAPE     P15228   0.485   0.426  11.122  0.3092 -0.5086 -0.0212
  140SAPE   O1315229   0.419   0.556  11.164 -0.1482  0.1564  0.2087
  140SAPE   O1415230   0.628   0.407  11.165  0.5290  0.4665  0.0135
  140SAPE   O1215231   0.392   0.309  11.184  0.1823  0.2040  0.3278
  140SAPE   O1115232   0.471   0.413  10.964  0.3051  0.3050 -0.5283
  140SAPE    C115233   0.536   0.315  10.884 -0.4275  0.5590  0.2993
  140SAPE    HA15234   0.647   0.327  10.891 -0.5433  2.1407 -0.1034
  140SAPE    HB15235   0.507   0.212  10.914  3.6490 -1.1133 -0.7789
  140SAPE    C215236   0.499   0.323  10.729 -0.2278 -0.1852 -0.2150
  140SAPE    HS15237   0.571   0.258  10.675  1.3052  1.0421  0.2565
  140SAPE   O2115238   0.499   0.453  10.663 -0.1948  0.2503 -0.3868
  140SAPE   C2115239   0.620   0.515  10.651 -0.2743  0.2779 -0.2455
  140SAPE   O2215240   0.724   0.481  10.698 -0.4110 -0.5388 -0.7023
  140SAPE   C2215241   0.594   0.640  10.574  0.3725  0.1309  0.5010
  140SAPE   H2R15242   0.554   0.719  10.641 -0.3094  1.4540 -1.3957
  140SAPE   H2S15243   0.695   0.679  10.549  0.8741 -0.5430  1.4351
  140SAPE    C315244   0.352   0.260  10.723 -0.6729 -0.2625  0.5928
  140SAPE    HX15245   0.278   0.320  10.781 -0.8886  1.0800 -0.9743
  140SAPE    HY15246   0.358   0.163  10.776  0.4309  0.1576  1.2728
  140SAPE   O3115247   0.310   0.244  10.581  0.0541  0.4322 -0.2651
  140SAPE   C3115248   0.242   0.344  10.530 -0.8226 -0.0780 -0.8462
  140SAPE   O3215249   0.214   0.446  10.590  0.4602 -0.4866 -0.0070
  140SAPE   C3215250   0.206   0.311  10.388 -0.2378  0.5500 -0.6463
  140SAPE   H2X15251   0.136   0.226  10.404  1.1885 -0.3389  1.3957
  140SAPE   H2Y15252   0.298   0.291  10.330  1.0803  1.5223  0.9916
  140SAPE   C2315253   0.495   0.632  10.450 -0.1119 -0.5484  0.1483
  140SAPE   H3R15254   0.498   0.732  10.400  0.1687 -0.3290  0.5923
  140SAPE   H3S15255   0.394   0.611  10.491  0.0727 -1.8280 -0.0365
  140SAPE   C2415256   0.523   0.522  10.357 -0.1783  0.6765 -0.0213
  140SAPE   H4R15257   0.455   0.531  10.270 -0.7797  1.7566  0.5317
  140SAPE   H4S15258   0.510   0.420  10.399 -2.7022  0.6704 -0.6379
  140SAPE   C2515259   0.662   0.517  10.306  0.1581 -0.4682  0.1083
  140SAPE   H5R15260   0.743   0.496  10.377  0.8283  0.5750 -0.3187
  140SAPE   C2615261   0.717   0.538  10.187  0.6054 -0.1854  0.2239
  140SAPE   H6R15262   0.823   0.518  10.165  0.4638  0.4411 -1.1267
  140SAPE   C2715263   0.652   0.593  10.064 -0.2488  0.1411  0.1490
  140SAPE   H7R15264   0.541   0.597  10.072 -0.2645 -0.2262  0.1701
  140SAPE   H7S15265   0.667   0.524   9.978 -1.5374  1.1308 -0.9133
  140SAPE   C2815266   0.709   0.728  10.032  0.0762  0.7417 -0.4747
  140SAPE   H8R15267   0.742   0.785  10.119  1.5300 -0.3565 -0.2600
  140SAPE   C2915268   0.740   0.778   9.911 -0.0371 -0.5723 -0.1559
  140SAPE   H9R15269   0.790   0.876   9.910 -0.2671 -0.4536 -0.1160
  140SAPE  C21015270   0.719   0.713   9.773  0.1839  0.4069 -0.3098
  140SAPE  H10R15271   0.652   0.624   9.779 -0.3729  0.8085 -0.4466
  140SAPE  H10S15272   0.816   0.683   9.729  1.2065  0.6727  1.6799
  140SAPE  C21115273   0.657   0.809   9.678 -0.6120 -0.8331  0.5129
  140SAPE  H11R15274   0.607   0.893   9.728  1.6640 -0.1103  1.7132
  140SAPE  C21215275   0.675   0.821   9.542 -0.4471 -0.0933 -0.1798
  140SAPE  H12R15276   0.643   0.918   9.500 -1.0054 -0.1794  0.0298
  140SAPE  C21315277   0.763   0.739   9.454  0.0762 -0.2058  0.3947
  140SAPE  H13R15278   0.864   0.735   9.501  0.2821  3.0679  0.4135
  140SAPE  H13S15279   0.775   0.791   9.357 -2.0722  3.0662  1.7091
  140SAPE  C21415280   0.717   0.591   9.445  0.0950  0.8572  0.0208
  140SAPE  H14R15281   0.680   0.547   9.539 -1.9503  4.0828  0.8867
  140SAPE  C21515282   0.720   0.516   9.341  0.9014  0.1983 -0.1480
  140SAPE  H15R15283   0.680   0.414   9.348  3.6196 -0.9118  0.2913
  140SAPE  C21615284   0.773   0.561   9.206  0.8800  0.6495 -0.0066
  140SAPE  H16R15285   0.817   0.475   9.150  3.2140 -0.1345  2.7945
  140SAPE  H16S15286   0.860   0.628   9.223 -0.7326  2.3228  2.2798
  140SAPE  C21715287   0.662   0.623   9.123 -1.0608 -0.1373 -0.9307
  140SAPE  H17R15288   0.623   0.718   9.164 -1.5351 -0.0918 -1.4732
  140SAPE  H17S15289   0.583   0.545   9.117  0.5604 -1.9757  0.2467
  140SAPE  C21815290   0.706   0.641   8.980 -0.7869 -0.1224 -0.3310
  140SAPE  H18R15291   0.731   0.540   8.940  0.6331  0.7271 -1.7195
  140SAPE  H18S15292   0.801   0.698   8.978  2.0137 -3.9519  3.9530
  140SAPE  C21915293   0.590   0.699   8.897  0.1511 -0.0080 -0.2097
  140SAPE  H19R15294   0.560   0.802   8.927 -1.7555 -0.3463 -0.8333
  140SAPE  H19S15295   0.499   0.636   8.891  0.3464 -0.2173 -1.0569
  140SAPE  C22015296   0.630   0.725   8.751 -0.0263 -0.0699 -0.2637
  140SAPE  H20R15297   0.549   0.783   8.701 -0.4090 -0.4763 -0.1306
  140SAPE  H20S15298   0.626   0.627   8.698 -0.8784 -0.1767 -0.0300
  140SAPE  H20T15299   0.730   0.770   8.738 -0.0019 -0.0661 -0.0655
  140SAPE   C3315300   0.137   0.422  10.311 -0.1452 -0.6612  0.0670
  140SAPE   H3X15301   0.203   0.511  10.303  1.2036 -1.4118  2.0172
  140SAPE   H3Y15302   0.035   0.453  10.342  0.2824 -0.4173  1.2614
  140SAPE   C3415303   0.117   0.382  10.161 -0.2656  0.8169 -0.5093
  140SAPE   H4X15304   0.035   0.446  10.123  0.1418  1.3969 -0.4190
  140SAPE   H4Y15305   0.074   0.279  10.157  0.5843  0.5034 -3.1997
  140SAPE   C3515306   0.245   0.390  10.071 -0.8779 -0.2461  0.5250
  140SAPE   H5X15307   0.332   0.348  10.125 -0.2108  2.3455  1.6344
  140SAPE   H5Y15308   0.267   0.498  10.054 -2.2218 -0.1617 -0.8644
  140SAPE   C3615309   0.218   0.326   9.935 -0.1395 -0.7889 -0.4985
  140SAPE   H6X15310   0.199   0.219   9.954 -0.5308 -0.6643 -0.1905
  140SAPE   H6Y15311   0.306   0.341   9.867  0.7476 -1.4963  0.4670
  140SAPE   C3715312   0.092   0.378   9.868 -0.1126 -0.0298 -0.0037
  140SAPE   H7X15313   0.089   0.488   9.879  0.6418  0.1376 -1.2327
  140SAPE   H7Y15314   0.002   0.336   9.918  0.0558 -1.9250 -1.1992
  140SAPE   C3815315   0.097   0.346   9.719 -0.4825  0.5410 -0.6061
  140SAPE   H8X15316   0.123   0.240   9.697 -0.2361 -0.2754  3.0764
  140SAPE   H8Y15317   0.177   0.409   9.675  1.0104 -1.7353 -1.3657
  140SAPE   C3915318  -0.039   0.381   9.650 -1.6738  0.8330  0.1222
  140SAPE   H9X15319  -0.044   0.492   9.662 -1.0382  0.6580  2.2818
  140SAPE   H9Y15320  -0.115   0.336   9.717  0.2448  0.7558  2.3573
  140SAPE  C31015321  -0.063   0.327   9.508  0.1063  0.4832  0.0237
  140SAPE  H10X15322  -0.173   0.322   9.496  0.1943 -0.8407 -0.3149
  140SAPE  H10Y15323  -0.021   0.224   9.510 -1.2210 -0.1097 -1.3934
  140SAPE  C31115324   0.005   0.416   9.407 -0.7796  0.2595  0.1317
  140SAPE  H11X15325   0.112   0.425   9.434 -0.7850 -1.5401  0.9013
  140SAPE  H11Y15326  -0.037   0.519   9.409 -1.3904  0.1397 -2.6662
  140SAPE  C31215327  -0.018   0.366   9.264  1.1067  0.5078 -0.5654
  140SAPE  H12X15328   0.038   0.273   9.240  1.8846  1.1168 -1.1782
  140SAPE  H12Y15329   0.020   0.446   9.197  1.4755  0.9081  0.0986
  140SAPE  C31315330  -0.168   0.353   9.231  0.1390  0.1157  1.0556
  140SAPE  H13X15331  -0.208   0.448   9.274 -0.5173  0.7105 -0.7601
  140SAPE  H13Y15332  -0.229   0.270   9.272 -1.0187  0.2254 -0.3510
  140SAPE  C31415333  -0.201   0.352   9.078  0.2672 -0.0558  0.0261
  140SAPE  H14X15334  -0.304   0.325   9.046 -0.3733  3.1090 -0.9127
  140SAPE  H14Y15335  -0.151   0.258   9.047 -2.6291 -2.5520  2.3449
  140SAPE  C31515336  -0.146   0.476   8.994 -0.4228  0.3760  0.0319
  140SAPE  H15X15337  -0.037   0.461   8.982 -0.6207 -2.7618  1.0834
  140SAPE  H15Y15338  -0.162   0.569   9.052  0.7028  2.2646 -2.5290
  140SAPE  C31615339  -0.222   0.498   8.863  0.4677  0.1915 -0.8916
  140SAPE  H16X15340  -0.322   0.543   8.876  2.0225  3.8891 -0.5384
  140SAPE  H16Y15341  -0.241   0.400   8.813 -0.7964  0.6938 -1.4281
  140SAPE  C31715342  -0.144   0.583   8.770  0.1965 -0.5447 -0.2756
  140SAPE  H17X15343  -0.039   0.547   8.762  0.7795  1.0890 -0.4479
  140SAPE  H17Y15344  -0.134   0.689   8.803  1.1935  0.1589 -2.5969
  140SAPE  C31815345  -0.207   0.599   8.628 -0.0129 -0.6385 -0.1984
  140SAPE  H18X15346  -0.310   0.641   8.633  0.7136  1.8402 -2.8311
  140SAPE  H18Y15347  -0.220   0.501   8.577 -2.0762 -1.0683  1.0327
  140SAPE  H18Z15348  -0.157   0.680   8.571 -1.1501 -0.5056 -1.0477
  141SAPE     N15349   1.133   0.463  11.049  0.3669 -0.1428 -0.5112
  141SAPE   HN115350   1.131   0.424  11.145  0.5638 -0.7184 -0.7317
  141SAPE   HN215351   1.165   0.561  11.061 -0.7450  0.7207 -3.5144
  141SAPE   HN315352   1.035   0.456  11.014 -0.0440 -2.9203  0.9054
  141SAPE   C1215353   1.228   0.394  10.954 -1.0958 -0.1411  0.3269
  141SAPE  H12A15354   1.330   0.430  10.977 -0.8837  0.2693 -1.1196
  141SAPE  H12B15355   1.211   0.426  10.849  1.8032 -0.9157 -0.4648
  141SAPE   C1115356   1.211   0.244  10.954 -0.5630  0.2283  0.1113
  141SAPE  H11A15357   1.111   0.217  10.914  0.1606  0.4562 -1.9240
  141SAPE  H11B15358   1.208   0.216  11.062 -1.1579  2.3710  0.7048
  141SAPE     P15359   1.363   0.039  10.910  0.1113 -0.0713 -0.1956
  141SAPE   O1315360   1.468   0.032  11.017  0.0511 -0.0214 -0.2169
  141SAPE   O1415361   1.241  -0.038  10.946 -0.5253  0.0967 -0.1597
  141SAPE   O1215362   1.316   0.187  10.878 -0.2542 -0.5735 -0.1045
  141SAPE   O1115363   1.428  -0.012  10.782  0.0708 -0.2522  0.3750
  141SAPE    C115364   1.387  -0.132  10.717  0.7187  0.3012  0.0721
  141SAPE    HA15365   1.470  -0.206  10.714  2.1178  1.8004 -0.0168
  141SAPE    HB15366   1.300  -0.188  10.757 -0.9200  2.2609 -0.5603
  141SAPE    C215367   1.341  -0.102  10.577  0.3071  0.5800  1.0102
  141SAPE    HS15368   1.281  -0.188  10.539 -0.1534  1.3879 -0.1666
  141SAPE   O2115369   1.463  -0.078  10.497 -0.3203  0.3504  0.2036
  141SAPE   C2115370   1.519  -0.190  10.467  0.0314 -0.2161 -0.9023
  141SAPE   O2215371   1.475  -0.300  10.487 -0.0140  1.1113  0.4019
  141SAPE   C2215372   1.659  -0.155  10.410 -0.2847  0.5853  0.1561
  141SAPE   H2R15373   1.651  -0.047  10.383  0.1926  0.9587  1.4190
  141SAPE   H2S15374   1.731  -0.160  10.494  0.1764 -2.2254 -0.3257
  141SAPE    C315375   1.243   0.021  10.558 -0.0704  0.1480 -0.2787
  141SAPE    HX15376   1.293   0.114  10.591 -1.8368  0.7243  0.9253
  141SAPE    HY15377   1.165   0.001  10.635 -1.9529  1.6291 -1.7062
  141SAPE   O3115378   1.197   0.024  10.418 -0.6182 -0.6119 -0.0961
  141SAPE   C3115379   1.080   0.089  10.410  0.1084 -0.4352 -0.6888
  141SAPE   O3215380   1.028   0.154  10.499  0.3155  0.2036 -0.0823
  141SAPE   C3215381   1.032   0.067  10.272  0.0636 -0.0342 -0.2924
  141SAPE   H2X15382   0.954  -0.012  10.271  0.9808 -0.9865  0.4851
  141SAPE   H2Y15383   1.117   0.047  10.203  0.3044 -0.0328  0.0010
  141SAPE   C2315384   1.708  -0.250  10.307  0.1658 -0.4692 -0.1833
  141SAPE   H3R15385   1.650  -0.231  10.214  0.4897 -0.7035 -0.4346
  141SAPE   H3S15386   1.701  -0.358  10.331  0.6427 -0.0865  1.9053
  141SAPE   C2415387   1.860  -0.224  10.283 -0.2191 -0.9797  0.3038
  141SAPE   H4R15388   1.893  -0.314  10.226 -0.2070 -1.4135  0.9863
  141SAPE   H4S15389   1.918  -0.216  10.377  0.0611 -0.0199  0.0552
  141SAPE   C2515390   1.892  -0.098  10.199  0.4469  0.3179 -0.1852
  141SAPE   H5R15391   1.858  -0.007  10.249  0.0170 -0.6855  1.4171
  141SAPE   C2615392   1.945  -0.102  10.078 -0.1350  0.0979  0.1751
  141SAPE   H6R15393   1.973  -0.010  10.025  1.0874  0.6243  1.6829
  141SAPE   C2715394   1.978  -0.230  10.007  0.8001  0.1017  0.9021
  141SAPE   H7R15395   2.052  -0.289  10.065  0.7516 -0.7084  0.1646
  141SAPE   H7S15396   2.020  -0.195   9.911 -0.1989  1.0814  0.8053
  141SAPE   C2815397   1.867  -0.327   9.976 -0.0011 -0.7332  0.0840
  141SAPE   H8R15398   1.845  -0.408  10.048  0.5791 -1.1359 -0.1873
  141SAPE   C2915399   1.797  -0.319   9.860  0.6724 -0.1917  0.0033
  141SAPE   H9R15400   1.720  -0.396   9.846  0.0974  0.2870  0.4517
  141SAPE  C21015401   1.815  -0.223   9.743  0.5156  0.4359  0.1521
  141SAPE  H10R15402   1.924  -0.215   9.722  0.5298 -0.4366 -0.1466
  141SAPE  H10S15403   1.779  -0.124   9.779 -0.3175  0.6126 -1.0898
  141SAPE  C21115404   1.730  -0.259   9.619 -0.9530 -0.1451 -0.3747
  141SAPE  H11R15405   1.624  -0.229   9.620 -1.4329 -1.7088  1.0290
  141SAPE  C21215406   1.781  -0.326   9.513  0.4733 -0.0422  0.0621
  141SAPE  H12R15407   1.703  -0.350   9.440  0.0004 -0.2955  0.6465
  141SAPE  C21315408   1.923  -0.376   9.489  0.3620 -0.7066  0.1187
  141SAPE  H13R15409   1.924  -0.487   9.493 -2.3553 -0.7868  0.4008
  141SAPE  H13S15410   1.987  -0.328   9.567  1.3109  1.8047 -2.0502
  141SAPE  C21415411   1.960  -0.330   9.342  0.1761  0.6144 -0.2479
  141SAPE  H14R15412   1.925  -0.384   9.253  2.0894  0.5848 -1.0228
  141SAPE  C21515413   2.061  -0.246   9.317  0.3260 -0.3171 -0.3371
  141SAPE  H15R15414   2.082  -0.222   9.212 -0.9465 -2.2259 -1.0945
  141SAPE  C21615415   2.149  -0.180   9.420  0.2517 -0.0917 -0.1480
  141SAPE  H16R15416   2.115  -0.196   9.525  2.0884  0.0524  0.5089
  141SAPE  H16S15417   2.152  -0.071   9.399 -3.4220  0.0481 -0.6161
  141SAPE  C21715418   2.288  -0.237   9.405 -0.3719 -0.0348 -0.1490
  141SAPE  H17R15419   2.363  -0.167   9.449  1.0481 -1.4313 -0.2977
  141SAPE  H17S15420   2.307  -0.224   9.296 -2.1036  0.1351 -0.4606
  141SAPE  C21815421   2.302  -0.383   9.446 -0.1136 -0.5006  0.3189
  141SAPE  H18R15422   2.236  -0.450   9.388  0.2288 -1.5485  1.1065
  141SAPE  H18S15423   2.269  -0.402   9.551 -2.6639 -2.2679 -0.7196
  141SAPE  C21915424   2.443  -0.432   9.429  0.3628  0.4920  0.2978
  141SAPE  H19R15425   2.463  -0.494   9.519  1.0386  0.8562  0.4042
  141SAPE  H19S15426   2.518  -0.350   9.433  2.8074 -1.6456  1.1107
  141SAPE  C22015427   2.463  -0.515   9.304 -0.1075  0.3175  0.1313
  141SAPE  H20R15428   2.393  -0.599   9.282  0.1159  0.3174 -0.6261
  141SAPE  H20S15429   2.563  -0.564   9.309 -0.6557 -0.7542  0.9872
  141SAPE  H20T15430   2.460  -0.449   9.214 -1.5851 -1.2038 -1.0086
  141SAPE   C3315431   0.970   0.194  10.228  0.3114 -0.7278  0.5012
  141SAPE   H3X15432   1.043   0.277  10.243 -0.6813  0.1489  0.6470
  141SAPE   H3Y15433   0.883   0.211  10.296  1.0930  0.2969  1.2850
  141SAPE   C3415434   0.925   0.180  10.083 -0.1897 -0.8233 -0.5685
  141SAPE   H4X15435   0.892   0.284  10.059 -1.5488  0.0888  4.1368
  141SAPE   H4Y15436   0.841   0.108  10.071 -0.2420 -0.6923 -1.0306
  141SAPE   C3515437   1.022   0.147   9.972 -0.1311 -0.5487  0.1881
  141SAPE   H5X15438   1.043   0.038   9.968  1.6883 -0.3267  1.9362
  141SAPE   H5Y15439   1.117   0.197  10.001 -1.2812  0.9224  1.5549
  141SAPE   C3615440   0.978   0.202   9.836 -0.2121 -0.5352  0.6758
  141SAPE   H6X15441   0.990   0.313   9.844  0.6169 -0.6792  1.6286
  141SAPE   H6Y15442   0.868   0.190   9.829 -0.2787  0.9222 -2.9653
  141SAPE   C3715443   1.047   0.144   9.714  0.6344 -0.1694 -0.1481
  141SAPE   H7X15444   1.038   0.034   9.725 -1.1991 -0.3672 -2.6263
  141SAPE   H7Y15445   1.153   0.171   9.730  0.7720 -2.2880  3.3348
  141SAPE   C3815446   1.006   0.197   9.575 -0.0509 -0.6418 -1.0850
  141SAPE   H8X15447   1.006   0.308   9.568  1.3997 -0.6919 -2.3792
  141SAPE   H8Y15448   0.900   0.166   9.559  0.1369 -1.4092 -0.8915
  141SAPE   C3915449   1.088   0.124   9.466 -0.2700 -0.2803  0.1389
  141SAPE   H9X15450   1.127   0.034   9.519 -0.7268 -0.2527  0.5317
  141SAPE   H9Y15451   1.177   0.184   9.437  1.8336 -1.6300  3.1948
  141SAPE  C31015452   1.024   0.080   9.335  0.5568  0.1583  0.6027
  141SAPE  H10X15453   0.928   0.029   9.357  0.2490  0.3168 -0.3522
  141SAPE  H10Y15454   1.097   0.016   9.281  1.3071  0.8400  0.7883
  141SAPE  C31115455   1.009   0.203   9.242  0.7208  0.5800 -0.0625
  141SAPE  H11X15456   1.110   0.245   9.228  0.2914  1.1315 -1.6757
  141SAPE  H11Y15457   0.950   0.276   9.302  3.3697  2.0818  0.8612
  141SAPE  C31215458   0.948   0.173   9.104 -0.0416 -0.3869 -0.6322
  141SAPE  H12X15459   0.864   0.241   9.082 -0.5218 -1.2067 -1.3855
  141SAPE  H12Y15460   0.905   0.071   9.099 -0.1568 -0.3221 -0.9453
  141SAPE  C31315461   1.050   0.198   8.992  1.0271  0.6439 -0.1584
  141SAPE  H13X15462   1.106   0.107   8.962  0.4271  0.2582 -0.1110
  141SAPE  H13Y15463   1.131   0.268   9.025  1.5634 -0.3156  0.5907
  141SAPE  C31415464   0.982   0.261   8.865  0.5628 -0.1860  0.1718
  141SAPE  H14X15465   1.061   0.282   8.789  1.5213  1.7580  1.6202
  141SAPE  H14Y15466   0.940   0.356   8.904 -1.2223 -1.0490  0.4484
  141SAPE  C31515467   0.880   0.172   8.797  0.7652 -0.8104  0.3832
  141SAPE  H15X15468   0.788   0.159   8.857  0.0484  0.4063 -0.4034
  141SAPE  H15Y15469   0.916   0.067   8.795  1.0465 -0.7211 -1.8346
  141SAPE  C31615470   0.849   0.211   8.659  0.7149  0.0588  0.3501
  141SAPE  H16X15471   0.797   0.128   8.607 -0.0595 -0.1239  1.3897
  141SAPE  H16Y15472   0.944   0.248   8.614  0.1018  0.0636 -0.9892
  141SAPE  C31715473   0.743   0.309   8.651  0.5664 -0.0064 -0.1669
  141SAPE  H17X15474   0.770   0.377   8.735  0.0447 -0.4690  0.3848
  141SAPE  H17Y15475   0.638   0.278   8.674 -0.1127  0.7422 -2.0708
  141SAPE  C31815476   0.737   0.389   8.522 -0.0206 -0.9868  1.2067
  141SAPE  H18X15477   0.762   0.332   8.430 -0.3142 -0.1202  0.5736
  141SAPE  H18Y15478   0.794   0.485   8.525 -0.1649 -0.7982 -0.7104
  141SAPE  H18Z15479   0.639   0.438   8.503  0.2801 -0.2065  1.6584
  142SAPE     N15480   2.549   0.557  10.993 -0.1866 -0.2536  0.1925
  142SAPE   HN115481   2.537   0.660  10.988 -0.3681 -0.2330  1.0562
  142SAPE   HN215482   2.595   0.545  11.085 -0.3664 -3.0261 -0.0082
  142SAPE   HN315483   2.619   0.523  10.923  0.1721  0.9355 -0.0524
  142SAPE   C1215484   2.421   0.476  10.987 -0.2774 -1.1297  0.2664
  142SAPE  H12A15485   2.408   0.445  10.881  1.0941 -2.4941  0.4646
  142SAPE  H12B15486   2.334   0.531  11.029 -0.8427 -1.1403 -0.8385
  142SAPE   C1115487   2.440   0.343  11.064  0.0705  0.4989  0.2745
  142SAPE  H11A15488   2.346   0.293  11.094  0.7077 -0.9888 -0.1242
  142SAPE  H11B15489   2.497   0.366  11.157 -1.1139  1.0420  0.8842
  142SAPE     P15490   2.477   0.143  10.900  0.0019 -0.1948 -0.7072
  142SAPE   O1315491   2.588   0.089  10.819  0.3529  0.4075  0.4885
  142SAPE   O1415492   2.402   0.045  10.984  0.5188 -0.3997  0.1843
  142SAPE   O1215493   2.531   0.250  10.994  0.3757 -0.0398  0.1681
  142SAPE   O1115494   2.369   0.204  10.803  0.4218  0.3213  0.2836
  142SAPE    C115495   2.233   0.175  10.813  0.0833  0.6089  1.0022
  142SAPE    HA15496   2.198   0.176  10.919 -1.0899  3.7543  0.6776
  142SAPE    HB15497   2.192   0.268  10.769 -2.2827  0.8196  3.3855
  142SAPE    C215498   2.180   0.052  10.735 -0.1752 -0.5235  0.8755
  142SAPE    HS15499   2.234  -0.032  10.782 -1.7108 -1.6732  0.6570
  142SAPE   O2115500   2.222   0.069  10.600  0.1280 -0.0655  0.2531
  142SAPE   C2115501   2.195  -0.039  10.528 -0.1574 -0.1918  0.3506
  142SAPE   O2215502   2.173  -0.150  10.574  0.5764  0.1938  0.3284
  142SAPE   C2215503   2.227  -0.007  10.385 -0.2431  0.1328  0.1860
  142SAPE   H2R15504   2.129   0.020  10.338  0.7805  1.8288 -1.0839
  142SAPE   H2S15505   2.297   0.078  10.376 -2.0703  1.6736 -0.2031
  142SAPE    C315506   2.020   0.028  10.751 -0.3258 -0.3063  0.8184
  142SAPE    HX15507   2.002  -0.003  10.856  0.1353 -2.7572  0.2256
  142SAPE    HY15508   1.986  -0.058  10.689 -1.5340 -0.6392  1.8931
  142SAPE   O3115509   1.944   0.147  10.715 -0.0861 -0.0572 -0.4139
  142SAPE   C3115510   1.894   0.155  10.591  0.1460  0.4356 -0.3243
  142SAPE   O3215511   1.917   0.071  10.504  0.0099 -0.9886  0.2131
  142SAPE   C3215512   1.811   0.277  10.574 -0.3738 -0.6012  0.4154
  142SAPE   H2X15513   1.868   0.371  10.558  0.7482 -1.4512 -0.7589
  142SAPE   H2Y15514   1.769   0.292  10.676  0.0640  0.3609  0.4662
  142SAPE   C2315515   2.274  -0.135  10.307  0.0177  0.0021 -0.4438
  142SAPE   H3R15516   2.281  -0.088  10.207 -2.0229  0.0291 -0.6254
  142SAPE   H3S15517   2.204  -0.221  10.303  2.4194 -2.2574  1.9404
  142SAPE   C2415518   2.394  -0.198  10.357  0.2349  0.3238 -0.0883
  142SAPE   H4R15519   2.403  -0.295  10.303  3.6707 -0.1942  1.1362
  142SAPE   H4S15520   2.386  -0.220  10.466  0.1798  0.6283 -0.0305
  142SAPE   C2515521   2.520  -0.112  10.350 -0.4403  1.1193 -0.5160
  142SAPE   H5R15522   2.520  -0.013  10.398  1.5650  1.2546 -0.7034
  142SAPE   C2615523   2.632  -0.151  10.293 -0.6716  0.9661 -0.5286
  142SAPE   H6R15524   2.718  -0.083  10.301  0.2914 -0.3069  0.2845
  142SAPE   C2715525   2.669  -0.269  10.208 -0.9355 -0.2836  0.6185
  142SAPE   H7R15526   2.755  -0.245  10.143 -1.1124  1.6127  1.0251
  142SAPE   H7S15527   2.586  -0.298  10.140 -2.7009  0.6700  2.2453
  142SAPE   C2815528   2.711  -0.387  10.291 -0.0678  0.1879  0.5633
  142SAPE   H8R15529   2.711  -0.363  10.399  0.8234  0.6899  0.4577
  142SAPE   C2915530   2.738  -0.510  10.247  0.2537  1.0025  0.0270
  142SAPE   H9R15531   2.758  -0.583  10.327 -0.4830 -0.8894 -1.4108
  142SAPE  C21015532   2.724  -0.562  10.109 -0.4468 -0.7513 -0.2073
  142SAPE  H10R15533   2.690  -0.484  10.038 -1.0751 -0.5847  0.2777
  142SAPE  H10S15534   2.645  -0.639  10.105  0.0909 -1.3998  0.9797
  142SAPE  C21115535   2.858  -0.617  10.057 -0.6057  0.0628 -0.1392
  142SAPE  H11R15536   2.885  -0.712  10.106  2.0982  0.8007 -0.0024
  142SAPE  C21215537   2.935  -0.577   9.948  1.2591  0.0420 -0.7433
  142SAPE  H12R15538   3.020  -0.639   9.918  1.2678  0.6426 -2.0282
  142SAPE  C21315539   2.905  -0.454   9.868  0.1807 -1.0530  0.4560
  142SAPE  H13R15540   2.997  -0.410   9.824 -1.0491 -2.1318 -3.6488
  142SAPE  H13S15541   2.861  -0.380   9.938  0.2925 -1.5400  1.0543
  142SAPE  C21415542   2.808  -0.478   9.753  0.1841  0.7413 -0.5599
  142SAPE  H14R15543   2.709  -0.522   9.771 -0.0254  1.4032 -0.0615
  142SAPE  C21515544   2.822  -0.444   9.624 -0.4486 -0.1596 -0.6107
  142SAPE  H15R15545   2.737  -0.460   9.556 -1.5999 -2.7918  1.2873
  142SAPE  C21615546   2.938  -0.369   9.562  0.0227 -0.1229  0.0283
  142SAPE  H16R15547   3.006  -0.445   9.518  0.3005 -0.9385  1.7827
  142SAPE  H16S15548   2.985  -0.301   9.637 -2.1955  0.6618  0.7908
  142SAPE  C21715549   2.890  -0.274   9.454 -0.3619  0.1732  0.4584
  142SAPE  H17R15550   2.841  -0.334   9.375 -0.2369 -0.6101  0.9627
  142SAPE  H17S15551   2.975  -0.222   9.405 -0.4815 -0.1729 -0.1162
  142SAPE  C21815552   2.796  -0.166   9.502  0.1036 -0.7097 -0.5176
  142SAPE  H18R15553   2.851  -0.097   9.569  1.3017 -1.2036 -0.9783
  142SAPE  H18S15554   2.710  -0.217   9.550  0.3716 -0.1993  0.5188
  142SAPE  C21915555   2.731  -0.080   9.390  0.5581  0.1212 -0.1734
  142SAPE  H19R15556   2.700  -0.150   9.309  0.1015 -0.3097  0.3689
  142SAPE  H19S15557   2.808  -0.018   9.338  0.0560  1.2050  0.3470
  142SAPE  C22015558   2.618   0.014   9.438  0.6543  0.2032  0.2510
  142SAPE  H20R15559   2.593   0.085   9.356 -2.5781 -2.0379 -0.9214
  142SAPE  H20S15560   2.640   0.075   9.528 -0.1212 -1.4623  1.6251
  142SAPE  H20T15561   2.522  -0.039   9.456 -0.1897  0.6396 -2.3959
  142SAPE   C3315562   1.697   0.250  10.475 -0.1118  0.1299  0.5907
  142SAPE   H3X15563   1.630   0.163  10.493 -2.2875  1.4190 -0.8616
  142SAPE   H3Y15564   1.754   0.242  10.380  1.8783  1.8657  1.5551
  142SAPE   C3415565   1.598   0.372  10.450 -0.5176 -0.2387  0.1717
  142SAPE   H4X15566   1.667   0.458  10.448  1.1147 -1.4751 -1.9856
  142SAPE   H4Y15567   1.533   0.385  10.538 -0.7027  0.3617 -0.0518
  142SAPE   C3515568   1.537   0.362  10.312  0.0980  0.5751 -0.1202
  142SAPE   H5X15569   1.613   0.360  10.231  0.1414  0.1261 -0.0717
  142SAPE   H5Y15570   1.487   0.459  10.292 -0.4795 -0.0575 -1.8803
  142SAPE   C3615571   1.433   0.249  10.283 -0.1624  1.2835 -0.4821
  142SAPE   H6X15572   1.352   0.251  10.359 -0.8794  0.2584 -1.1853
  142SAPE   H6Y15573   1.476   0.146  10.289 -1.8152  0.6006 -0.0045
  142SAPE   C3715574   1.360   0.259  10.149 -0.2290  0.0912 -0.6149
  142SAPE   H7X15575   1.301   0.353  10.142 -1.1153 -0.5437 -1.8849
  142SAPE   H7Y15576   1.283   0.180  10.138  0.2468 -0.5928  0.7171
  142SAPE   C3815577   1.461   0.259  10.032  0.3425 -0.2918  0.3041
  142SAPE   H8X15578   1.533   0.176  10.049  0.2885  0.2065  3.4689
  142SAPE   H8Y15579   1.516   0.356  10.033  0.6001 -0.3582 -1.9032
  142SAPE   C3915580   1.397   0.249   9.891 -0.7039 -0.3812 -0.1975
  142SAPE   H9X15581   1.345   0.340   9.854 -1.5077 -0.4755  0.6471
  142SAPE   H9Y15582   1.325   0.165   9.892  0.6766 -1.6689  2.9706
  142SAPE  C31015583   1.500   0.206   9.784  0.2287 -0.4449 -0.4918
  142SAPE  H10X15584   1.536   0.102   9.798 -1.3519 -0.7394  1.8919
  142SAPE  H10Y15585   1.585   0.270   9.814 -1.9757  1.3733  2.5028
  142SAPE  C31115586   1.443   0.215   9.644 -0.1556 -0.9429  0.6068
  142SAPE  H11X15587   1.395   0.312   9.620 -0.6035 -0.8589  1.7889
  142SAPE  H11Y15588   1.359   0.143   9.639 -2.3683  1.6112 -1.6700
  142SAPE  C31215589   1.542   0.182   9.535 -0.3463  0.2495  0.3100
  142SAPE  H12X15590   1.604   0.094   9.563 -1.1327 -0.6883 -0.8452
  142SAPE  H12Y15591   1.618   0.263   9.525 -0.8371  0.7052  0.2396
  142SAPE  C31315592   1.472   0.149   9.403 -0.2968  0.0244  0.5491
  142SAPE  H13X15593   1.396   0.223   9.370  0.5696  0.6741 -0.0327
  142SAPE  H13Y15594   1.414   0.054   9.405 -1.5956  0.7963  0.1184
  142SAPE  C31415595   1.572   0.113   9.291 -0.5887  0.3284  0.0376
  142SAPE  H14X15596   1.652   0.051   9.338 -1.3038 -1.0650 -0.5408
  142SAPE  H14Y15597   1.617   0.200   9.240 -1.9216 -0.0632 -1.8857
  142SAPE  C31515598   1.515   0.008   9.189 -0.6223  0.2520 -0.1125
  142SAPE  H15X15599   1.446  -0.070   9.229 -0.9669  0.6139  0.0150
  142SAPE  H15Y15600   1.599  -0.037   9.133  0.6629  0.3113  1.6676
  142SAPE  C31615601   1.429   0.077   9.086  0.2703 -0.5872  0.3766
  142SAPE  H16X15602   1.350   0.144   9.127  0.2741 -1.2847  1.5688
  142SAPE  H16Y15603   1.375  -0.006   9.035  0.5640 -1.1192  0.9253
  142SAPE  C31715604   1.515   0.155   8.987  0.5754  0.7491  0.4308
  142SAPE  H17X15605   1.610   0.103   8.961 -1.2991 -2.0689 -1.2807
  142SAPE  H17Y15606   1.538   0.252   9.036  0.5070  0.0581  1.8863
  142SAPE  C31815607   1.443   0.175   8.864  0.0130 -0.4461  0.6984
  142SAPE  H18X15608   1.408   0.079   8.822 -1.9017  0.5779 -0.1692
  142SAPE  H18Y15609   1.513   0.218   8.789 -0.0141 -1.2155  0.2232
  142SAPE  H18Z15610   1.358   0.245   8.877 -0.1947 -0.7007  0.7238
  143SAPE     N15611   1.708   1.678  10.843 -0.5443 -0.3814  1.2297
  143SAPE   HN115612   1.755   1.599  10.892 -1.8251  0.1170  3.3977
  143SAPE   HN215613   1.606   1.678  10.861 -1.0894  0.3251 -1.4334
  143SAPE   HN315614   1.721   1.657  10.742 -1.5926  0.1841  0.9631
  143SAPE   C1215615   1.774   1.809  10.880 -0.4816  0.8140 -0.3036
  143SAPE  H12A15616   1.795   1.798  10.989 -0.6290  1.3449 -0.2222
  143SAPE  H12B15617   1.703   1.892  10.861 -0.1455  1.3095  0.5536
  143SAPE   C1115618   1.897   1.829  10.785 -0.1447 -0.3919 -0.5456
  143SAPE  H11A15619   1.849   1.865  10.692 -0.9106 -1.3509 -0.5336
  143SAPE  H11B15620   1.954   1.740  10.751  2.1632  0.0794  1.7776
  143SAPE     P15621   2.091   2.018  10.776  0.1937 -0.5016  0.0610
  143SAPE   O1315622   2.018   2.146  10.739  0.2625  0.0607  1.1516
  143SAPE   O1415623   2.207   2.038  10.871 -0.0592  0.1252 -0.4264
  143SAPE   O1215624   1.985   1.922  10.848  0.5719  0.3181  0.1912
  143SAPE   O1115625   2.142   1.941  10.650  0.2585 -0.1171  0.4472
  143SAPE    C115626   2.235   1.832  10.656  0.6607 -0.1291  0.0431
  143SAPE    HA15627   2.330   1.865  10.703  0.8655 -1.4726  0.6051
  143SAPE    HB15628   2.199   1.749  10.720 -1.0533  1.6329  1.5473
  143SAPE    C215629   2.263   1.776  10.511 -0.2794  0.4379 -0.0419
  143SAPE    HS15630   2.188   1.697  10.489 -1.3467  1.4385 -0.1067
  143SAPE   O2115631   2.401   1.733  10.495  0.2246 -0.1289 -0.1329
  143SAPE   C2115632   2.434   1.618  10.549 -0.5585 -0.5471  0.2177
  143SAPE   O2215633   2.366   1.548  10.620  0.4244  0.0259 -0.1420
  143SAPE   C2215634   2.582   1.591  10.522  0.3585 -0.5305  0.2779
  143SAPE   H2R15635   2.639   1.687  10.523 -0.6233  0.0917 -0.7430
  143SAPE   H2S15636   2.624   1.533  10.607 -1.5739 -2.5153 -0.0438
  143SAPE    C315637   2.233   1.875  10.389 -0.7548  0.3215 -0.3627
  143SAPE    HX15638   2.285   1.967  10.424 -0.6009 -0.3242  1.1829
  143SAPE    HY15639   2.124   1.894  10.383 -1.0057 -1.0189 -0.1977
  143SAPE   O3115640   2.296   1.849  10.262  0.0939  0.5030  0.1221
  143SAPE   C3115641   2.248   1.749  10.188 -0.3394 -0.5225  0.0523
  143SAPE   O3215642   2.163   1.667  10.224  0.1844 -0.6444  0.1158
  143SAPE   C3215643   2.310   1.749  10.049  0.1073  0.4760 -0.2524
  143SAPE   H2X15644   2.413   1.714  10.066 -0.0108  0.1596 -0.1890
  143SAPE   H2Y15645   2.320   1.851  10.005 -1.2620  1.2014  1.0324
  143SAPE   C2315646   2.591   1.519  10.382  0.1776  0.4952 -0.0365
  143SAPE   H3R15647   2.559   1.594  10.305 -1.1708 -0.0967 -0.0742
  143SAPE   H3S15648   2.521   1.435  10.364  1.1847 -0.7417  1.6192
  143SAPE   C2415649   2.721   1.453  10.341 -0.1619 -0.3265 -0.2003
  143SAPE   H4R15650   2.707   1.437  10.232  0.2413 -0.7899 -0.1890
  143SAPE   H4S15651   2.718   1.360  10.402 -0.2120  0.5218  1.1585
  143SAPE   C2515652   2.843   1.538  10.379 -0.0186 -1.0807 -0.3692
  143SAPE   H5R15653   2.862   1.545  10.488  1.7580  0.8348 -0.7174
  143SAPE   C2615654   2.935   1.596  10.302 -0.2612 -0.2461  0.5355
  143SAPE   H6R15655   3.017   1.651  10.349  0.1792 -1.1872  0.9056
  143SAPE   C2715656   2.935   1.598  10.152 -0.4478  0.0956 -0.0634
  143SAPE   H7R15657   2.908   1.501  10.105 -1.0122  1.3263 -2.4496
  143SAPE   H7S15658   3.041   1.619  10.126 -0.3174  0.4892  0.7636
  143SAPE   C2815659   2.853   1.714  10.086 -0.6318 -0.1311  0.2199
  143SAPE   H8R15660   2.796   1.788  10.143  0.6339  1.6722 -0.7402
  143SAPE   C2915661   2.854   1.741   9.953  0.6135 -0.3449 -0.1209
  143SAPE   H9R15662   2.795   1.827   9.917 -0.5027 -1.3480 -0.7369
  143SAPE  C21015663   2.920   1.655   9.851  0.9223 -0.9688 -0.6670
  143SAPE  H10R15664   2.908   1.550   9.883 -1.0824 -0.4891  0.3352
  143SAPE  H10S15665   3.030   1.665   9.845  1.2978 -4.0732 -0.3980
  143SAPE  C21115666   2.858   1.685   9.713 -1.0192 -0.6625  0.4683
  143SAPE  H11R15667   2.822   1.788   9.702  0.3101  0.0182  2.0857
  143SAPE  C21215668   2.851   1.595   9.608  0.1215  0.0336 -1.2626
  143SAPE  H12R15669   2.813   1.623   9.509 -1.1279 -2.5216 -1.6055
  143SAPE  C21315670   2.897   1.451   9.613  0.4438 -0.4093 -0.2934
  143SAPE  H13R15671   2.939   1.425   9.712 -3.1695  0.6348  1.6674
  143SAPE  H13S15672   2.978   1.436   9.537  1.9168 -0.5751  1.2421
  143SAPE  C21415673   2.785   1.357   9.588  0.4250  0.7907  0.3588
  143SAPE  H14R15674   2.697   1.368   9.654  0.0336  0.4581 -0.0960
  143SAPE  C21515675   2.779   1.267   9.493 -0.1409 -0.1321 -0.0920
  143SAPE  H15R15676   2.692   1.200   9.492  0.6700 -1.2032 -1.4132
  143SAPE  C21615677   2.863   1.224   9.381 -0.1154  0.9020 -0.2007
  143SAPE  H16R15678   2.907   1.122   9.390 -2.4290 -0.1123  0.5276
  143SAPE  H16S15679   2.941   1.300   9.360 -0.6683  1.8171  0.9651
  143SAPE  C21715680   2.780   1.213   9.250 -0.5118  0.0918  0.4204
  143SAPE  H17R15681   2.735   1.313   9.232 -0.7611 -0.1297 -0.2189
  143SAPE  H17S15682   2.693   1.148   9.275 -0.0073 -0.0107  2.0226
  143SAPE  C21815683   2.859   1.166   9.129 -0.0555 -0.5518  0.2125
  143SAPE  H18R15684   2.957   1.123   9.160  0.1362 -0.8225 -0.7564
  143SAPE  H18S15685   2.889   1.252   9.065  1.2899 -1.9019 -1.0287
  143SAPE  C21915686   2.770   1.067   9.053  0.4033 -0.0270  0.0509
  143SAPE  H19R15687   2.677   1.124   9.036 -0.7054 -2.2017 -1.6687
  143SAPE  H19S15688   2.753   0.976   9.114  1.0347 -1.2206 -1.5001
  143SAPE  C22015689   2.839   1.029   8.924 -1.3032 -0.4018  0.2793
  143SAPE  H20R15690   2.835   1.119   8.859 -2.0557  0.4396  1.4667
  143SAPE  H20S15691   2.797   0.937   8.877 -0.3605 -0.2997 -0.8126
  143SAPE  H20T15692   2.947   1.018   8.951 -0.5225  6.4018  1.6264
  143SAPE   C3315693   2.236   1.653   9.952 -0.2765  0.4934  0.9074
  143SAPE   H3X15694   2.127   1.653   9.973 -0.0326 -1.1009  2.4401
  143SAPE   H3Y15695   2.260   1.546   9.972 -1.9178 -0.0094  0.3665
  143SAPE   C3415696   2.269   1.684   9.802 -0.0075  0.2379 -1.0028
  143SAPE   H4X15697   2.379   1.690   9.792  0.3030 -2.2632  0.0390
  143SAPE   H4Y15698   2.226   1.784   9.780 -0.1885  0.8049  1.5951
  143SAPE   C3515699   2.223   1.581   9.700  0.2769 -0.2306  0.1162
  143SAPE   H5X15700   2.112   1.573   9.711  0.3953 -0.8292  1.0521
  143SAPE   H5Y15701   2.268   1.481   9.720 -1.5604 -1.7277 -2.6025
  143SAPE   C3615702   2.254   1.630   9.561  0.4815 -0.7422  0.0720
  143SAPE   H6X15703   2.350   1.582   9.533  1.7638  1.3774  0.5862
  143SAPE   H6Y15704   2.251   1.741   9.548 -0.7591 -0.7374  0.3014
  143SAPE   C3715705   2.170   1.567   9.454 -0.0924 -0.1673  0.3954
  143SAPE   H7X15706   2.077   1.627   9.448 -1.0780 -1.6848 -0.0801
  143SAPE   H7Y15707   2.157   1.462   9.488 -1.2834 -0.0743  0.2659
  143SAPE   C3815708   2.239   1.583   9.319 -0.2051 -0.1204  0.5674
  143SAPE   H8X15709   2.337   1.532   9.313 -0.6832 -0.8613 -1.6932
  143SAPE   H8Y15710   2.273   1.687   9.300 -1.3905 -0.0099 -1.1770
  143SAPE   C3915711   2.156   1.547   9.197  0.3191  0.2410 -0.1458
  143SAPE   H9X15712   2.102   1.641   9.174 -1.3019 -0.2335  1.4314
  143SAPE   H9Y15713   2.079   1.474   9.232  1.0223  0.3255  1.6835
  143SAPE  C31015714   2.218   1.485   9.074  0.2863  0.7990  0.3936
  143SAPE  H10X15715   2.266   1.389   9.101 -2.0195 -0.4988  0.1645
  143SAPE  H10Y15716   2.305   1.549   9.050  0.3557  0.6394  0.2070
  143SAPE  C31115717   2.118   1.466   8.961  0.1122  0.6310 -0.2308
  143SAPE  H11X15718   2.064   1.563   8.949 -1.1683  0.0429  0.5789
  143SAPE  H11Y15719   2.061   1.374   8.985 -1.2347  1.8845  1.7282
  143SAPE  C31215720   2.182   1.429   8.827  0.7733  0.3481 -0.3732
  143SAPE  H12X15721   2.107   1.425   8.745  1.7256  0.7849 -1.2884
  143SAPE  H12Y15722   2.240   1.334   8.832 -0.4275 -0.4659 -1.2599
  143SAPE  C31315723   2.286   1.529   8.788  0.5764  0.0813  0.5348
  143SAPE  H13X15724   2.373   1.496   8.849  1.0911 -0.8815 -0.6875
  143SAPE  H13Y15725   2.258   1.636   8.798 -2.5074 -0.6215  0.3363
  143SAPE  C31415726   2.345   1.509   8.647  0.4157 -0.6018 -0.3979
  143SAPE  H14X15727   2.363   1.606   8.596 -0.9832  0.3606  0.8317
  143SAPE  H14Y15728   2.275   1.446   8.587  0.0295 -1.6670  1.1248
  143SAPE  C31515729   2.472   1.424   8.651  0.1507  0.0345 -0.1559
  143SAPE  H15X15730   2.461   1.371   8.554  0.7434  2.5596 -1.7065
  143SAPE  H15Y15731   2.495   1.361   8.740  2.4195  2.0952  0.8249
  143SAPE  C31615732   2.592   1.522   8.638 -0.2338 -0.3198  0.3750
  143SAPE  H16X15733   2.687   1.466   8.650 -0.6100 -0.5240  2.9532
  143SAPE  H16Y15734   2.588   1.609   8.707 -1.9686  0.0120 -0.0960
  143SAPE  C31715735   2.604   1.592   8.493  0.8297 -0.2840 -0.2232
  143SAPE  H17X15736   2.524   1.666   8.475  0.7420 -0.4428 -0.4940
  143SAPE  H17Y15737   2.601   1.505   8.423 -1.1971 -0.7451  0.3913
  143SAPE  C31815738   2.739   1.668   8.478  0.0445 -0.1634  0.4336
  143SAPE  H18X15739   2.742   1.757   8.544 -0.7731  1.0375 -1.0829
  143SAPE  H18Y15740   2.751   1.709   8.375 -1.0828 -2.0275 -0.4891
  143SAPE  H18Z15741   2.819   1.597   8.508  0.3913  0.0600  0.0429
  144SAPE     N15742   6.635   5.000  11.205 -0.1726 -0.2534 -0.3501
  144SAPE   HN115743   6.598   5.069  11.274  1.0781  1.3632 -1.2183
  144SAPE   HN215744   6.573   5.003  11.122  0.4483 -0.4280 -0.8252
  144SAPE   HN315745   6.634   4.902  11.240  0.9646 -0.4907 -0.9412
  144SAPE   C1215746   6.770   5.020  11.148 -0.6138 -0.5524  0.5724
  144SAPE  H12A15747   6.845   5.046  11.226 -0.8191 -1.4160  1.0746
  144SAPE  H12B15748   6.766   5.121  11.102  3.3475 -0.6033 -0.1825
  144SAPE   C1115749   6.818   4.918  11.049  0.1273  0.0842  0.0055
  144SAPE  H11A15750   6.822   4.812  11.081 -1.7492  0.0868  0.3319
  144SAPE  H11B15751   6.926   4.940  11.036 -0.0638  2.1686  1.4284
  144SAPE     P15752   6.769   4.825  10.804 -0.1929 -0.2573 -0.2212
  144SAPE   O1315753   6.737   4.693  10.860  0.2723 -0.1487 -0.0690
  144SAPE   O1415754   6.686   4.879  10.689  0.1263  0.3300  0.0287
  144SAPE   O1215755   6.759   4.932  10.919 -0.2267 -0.4297 -0.2749
  144SAPE   O1115756   6.920   4.826  10.761 -0.1265  0.2257 -0.5136
  144SAPE    C115757   7.015   4.931  10.777  0.2144 -0.0992  0.8326
  144SAPE    HA15758   6.962   5.016  10.823 -1.2283 -0.3565 -0.2910
  144SAPE    HB15759   7.100   4.892  10.837  0.3078 -0.2457  0.6099
  144SAPE    C215760   7.062   4.983  10.631  0.0927  0.0257 -1.0439
  144SAPE    HS15761   7.090   5.089  10.648 -0.0864 -0.2283  1.0266
  144SAPE   O2115762   6.960   4.964  10.534 -0.1023  0.2190 -0.6605
  144SAPE   C2115763   6.884   5.070  10.523 -0.0827  0.1456 -0.1874
  144SAPE   O2215764   6.873   5.164  10.605 -0.8851 -0.1704  0.4003
  144SAPE   C2215765   6.806   5.066  10.391 -0.7626  0.3741  0.4384
  144SAPE   H2R15766   6.761   4.965  10.385 -1.7414  0.8356 -0.4605
  144SAPE   H2S15767   6.713   5.127  10.390 -1.6228 -0.8272 -1.9573
  144SAPE    C315768   7.192   4.902  10.586  0.1350  0.3922 -0.0403
  144SAPE    HX15769   7.175   4.792  10.592  2.4118  0.0173  0.2742
  144SAPE    HY15770   7.268   4.919  10.666  0.2765 -0.4714  0.0251
  144SAPE   O3115771   7.256   4.938  10.462  0.3807  0.2799 -0.6039
  144SAPE   C3115772   7.199   4.874  10.354  0.3871 -1.0336  0.0918
  144SAPE   O3215773   7.111   4.794  10.361 -0.8156  0.6810 -0.4689
  144SAPE   C3215774   7.279   4.908  10.227  0.1097 -0.0984 -0.3757
  144SAPE   H2X15775   7.380   4.865  10.242 -0.2109 -0.5689  0.4807
  144SAPE   H2Y15776   7.301   5.017  10.224  0.4068  0.0500  3.1734
  144SAPE   C2315777   6.893   5.091  10.263 -0.1297 -0.0968 -0.1397
  144SAPE   H3R15778   6.971   5.012  10.262  0.1609  0.1897 -1.5990
  144SAPE   H3S15779   6.956   5.182  10.256  1.0038 -0.4947  3.1771
  144SAPE   C2415780   6.804   5.073  10.141  0.6499  0.2345  0.0244
  144SAPE   H4R15781   6.723   5.149  10.144  0.2088 -0.2428  0.3675
  144SAPE   H4S15782   6.743   4.981  10.150  0.8850  0.0708 -0.0274
  144SAPE   C2515783   6.870   5.077  10.012 -0.2534 -0.1533  0.3034
  144SAPE   H5R15784   6.977   5.052  10.005 -0.4789 -1.0177 -0.1675
  144SAPE   C2615785   6.805   5.106   9.899 -0.0830 -0.5876  0.2550
  144SAPE   H6R15786   6.861   5.091   9.805  0.6114  1.6387  0.2647
  144SAPE   C2715787   6.659   5.143   9.890 -0.3364  0.0485  0.4138
  144SAPE   H7R15788   6.636   5.235   9.948  1.7768 -0.7840  2.8219
  144SAPE   H7S15789   6.598   5.065   9.940  0.0540 -0.4814  0.0784
  144SAPE   C2815790   6.618   5.136   9.746 -0.0578 -0.3200  0.7484
  144SAPE   H8R15791   6.604   5.038   9.698 -0.9563  0.5962 -0.9335
  144SAPE   C2915792   6.592   5.243   9.672  0.1210 -0.3677  0.0013
  144SAPE   H9R15793   6.582   5.223   9.564  3.9918  0.5089 -0.6626
  144SAPE  C21015794   6.606   5.397   9.693  0.6942 -0.3778  0.6631
  144SAPE  H10R15795   6.711   5.421   9.666  0.0875  0.1991 -1.2979
  144SAPE  H10S15796   6.581   5.427   9.797 -2.3216 -0.2521 -0.0020
  144SAPE  C21115797   6.519   5.484   9.606 -0.1461  0.6532 -0.3503
  144SAPE  H11R15798   6.461   5.551   9.671  1.4216  1.9909 -0.2774
  144SAPE  C21215799   6.525   5.499   9.477 -0.4372 -0.2124 -0.5029
  144SAPE  H12R15800   6.439   5.552   9.434 -0.9575 -0.9341 -0.3584
  144SAPE  C21315801   6.619   5.425   9.385  0.5688  0.1129  0.0702
  144SAPE  H13R15802   6.591   5.317   9.382  2.3742 -0.4073  0.5535
  144SAPE  H13S15803   6.716   5.436   9.439  2.1327  0.4250 -2.6485
  144SAPE  C21415804   6.629   5.486   9.241 -0.1771 -0.0218  0.4329
  144SAPE  H14R15805   6.636   5.596   9.235  0.7168 -0.0323  1.1253
  144SAPE  C21515806   6.586   5.431   9.125  0.4284 -0.5544 -0.3068
  144SAPE  H15R15807   6.613   5.484   9.032 -0.3221 -1.1173 -0.8507
  144SAPE  C21615808   6.538   5.288   9.111  0.2554 -0.7263  0.5117
  144SAPE  H16R15809   6.479   5.249   9.197  1.2321 -3.5875  0.0161
  144SAPE  H16S15810   6.624   5.217   9.101 -0.9497 -2.2892  0.7578
  144SAPE  C21715811   6.452   5.283   8.985 -0.0854  1.1541  1.2084
  144SAPE  H17R15812   6.512   5.313   8.897 -0.9381  1.6568  0.7916
  144SAPE  H17S15813   6.366   5.353   8.980  0.8449  2.2088 -0.8940
  144SAPE  C21815814   6.399   5.137   8.957  0.7008 -0.0231  0.1085
  144SAPE  H18R15815   6.323   5.112   9.035  1.2088  0.0270  0.6282
  144SAPE  H18S15816   6.488   5.071   8.972  1.3420  1.2259  2.3036
  144SAPE  C21915817   6.342   5.128   8.813 -0.0287  0.2259 -0.0097
  144SAPE  H19R15818   6.308   5.025   8.789  3.1439 -0.9998  0.1619
  144SAPE  H19S15819   6.430   5.149   8.748 -0.9991  1.7731 -0.8653
  144SAPE  C22015820   6.226   5.231   8.779 -0.6006  0.7646 -0.3382
  144SAPE  H20R15821   6.261   5.335   8.763 -2.8801  1.7658  0.6685
  144SAPE  H20S15822   6.147   5.230   8.857 -0.5881  2.6787 -0.2547
  144SAPE  H20T15823   6.187   5.217   8.676 -1.4751 -0.3790  0.1199
  144SAPE   C3315824   7.219   4.861  10.090  0.3043  0.5816  0.6763
  144SAPE   H3X15825   7.130   4.924  10.069 -2.2294 -2.4561  1.5849
  144SAPE   H3Y15826   7.175   4.760  10.075  1.1749  0.3414 -0.3637
  144SAPE   C3415827   7.335   4.873   9.990  0.7814 -0.4438  0.1600
  144SAPE   H4X15828   7.417   4.803  10.016  0.2897 -1.3138 -0.6251
  144SAPE   H4Y15829   7.371   4.979   9.994 -0.0552 -0.1322 -0.3628
  144SAPE   C3515830   7.285   4.850   9.851  0.4587 -0.0479 -0.5151
  144SAPE   H5X15831   7.195   4.913   9.830  0.7085  1.4875  2.5065
  144SAPE   H5Y15832   7.244   4.747   9.851  0.7533 -0.2787  3.1650
  144SAPE   C3615833   7.387   4.889   9.744 -0.8135 -0.1509  0.1534
  144SAPE   H6X15834   7.489   4.859   9.774  0.7373  2.8343 -1.6238
  144SAPE   H6Y15835   7.391   5.000   9.748 -0.9488  0.0092 -2.2690
  144SAPE   C3715836   7.346   4.853   9.600 -0.1416 -0.1203 -0.0297
  144SAPE   H7X15837   7.245   4.895   9.578 -0.1377 -0.1551 -0.1093
  144SAPE   H7Y15838   7.351   4.744   9.583  0.0425  0.0560 -1.1358
  144SAPE   C3815839   7.439   4.921   9.500 -0.6457 -0.0621 -0.4352
  144SAPE   H8X15840   7.542   4.880   9.508 -0.3242  0.5986 -1.0778
  144SAPE   H8Y15841   7.451   5.025   9.536  0.3455 -0.7609  1.3789
  144SAPE   C3915842   7.382   4.916   9.354  0.2307  0.3426  0.0875
  144SAPE   H9X15843   7.453   4.971   9.289 -0.9715  1.9123  0.0578
  144SAPE   H9Y15844   7.287   4.972   9.343 -0.7192 -1.4986 -1.7311
  144SAPE  C31015845   7.360   4.778   9.287  0.2668  0.4661  0.6300
  144SAPE  H10X15846   7.292   4.798   9.201 -0.9701 -0.6249  1.3124
  144SAPE  H10Y15847   7.304   4.707   9.352  1.3821 -0.2012  0.8851
  144SAPE  C31115848   7.491   4.716   9.241  0.1429  0.0641  0.5893
  144SAPE  H11X15849   7.555   4.672   9.320  0.2382 -1.5585 -0.3533
  144SAPE  H11Y15850   7.544   4.799   9.188  0.2193  0.7568  1.7075
  144SAPE  C31215851   7.470   4.605   9.143  0.1512 -0.6297  0.0125
  144SAPE  H12X15852   7.566   4.572   9.097  0.9823  0.1285  1.1505
  144SAPE  H12Y15853   7.418   4.653   9.058 -0.3862  0.5630  0.9924
  144SAPE  C31315854   7.372   4.500   9.184  0.2178 -0.1795  0.0978
  144SAPE  H13X15855   7.273   4.539   9.154  0.9606  2.6138  1.0004
  144SAPE  H13Y15856   7.369   4.494   9.295  1.5020 -1.6573  0.0990
  144SAPE  C31415857   7.406   4.367   9.123  0.2511  0.0877 -0.6251
  144SAPE  H14X15858   7.328   4.289   9.137  0.4295  0.1400  0.7020
  144SAPE  H14Y15859   7.501   4.328   9.165 -0.3870 -0.1533  0.6486
  144SAPE  C31515860   7.416   4.383   8.971 -0.2806 -0.3458 -0.2270
  144SAPE  H15X15861   7.521   4.406   8.942  0.2427 -1.9218  0.3188
  144SAPE  H15Y15862   7.372   4.481   8.941  2.1649  0.7063 -0.5871
  144SAPE  C31615863   7.354   4.271   8.896  1.1783 -0.2085  0.2902
  144SAPE  H16X15864   7.246   4.262   8.919  1.0984  0.9852  0.4370
  144SAPE  H16Y15865   7.408   4.177   8.924  1.5135 -0.2109 -0.3425
  144SAPE  C31715866   7.352   4.286   8.744 -0.1276  0.0797 -0.9124
  144SAPE  H17X15867   7.458   4.295   8.715 -0.1737 -1.4367 -1.6286
  144SAPE  H17Y15868   7.303   4.383   8.721  0.7752  0.7082 -0.2217
  144SAPE  C31815869   7.280   4.176   8.666 -0.3542 -0.1464  0.1369
  144SAPE  H18X15870   7.188   4.138   8.716 -1.1065  0.0610 -1.0467
  144SAPE  H18Y15871   7.352   4.093   8.650  0.5060  0.8689 -1.5638
  144SAPE  H18Z15872   7.256   4.214   8.564  1.5692  1.3940  0.2183
  145SAPE     N15873   3.935   6.477  11.506  0.7690 -0.6083 -0.0219
  145SAPE   HN115874   3.951   6.475  11.609  1.0639 -0.0188 -0.0485
  145SAPE   HN215875   3.959   6.383  11.469 -2.3182 -2.4538  2.2113
  145SAPE   HN315876   3.999   6.545  11.460  3.2268 -2.4201  0.5117
  145SAPE   C1215877   3.791   6.512  11.480  0.0635 -0.7546 -0.2122
  145SAPE  H12A15878   3.783   6.620  11.504  0.4118 -1.3018  2.6531
  145SAPE  H12B15879   3.731   6.442  11.542 -0.3856 -1.1871 -1.1057
  145SAPE   C1115880   3.768   6.495  11.339  0.2136 -0.1296  1.1273
  145SAPE  H11A15881   3.660   6.499  11.313  0.9133  0.9067 -2.0560
  145SAPE  H11B15882   3.813   6.398  11.307  1.2675  0.8100 -0.3428
  145SAPE     P15883   3.755   6.700  11.178  0.2293 -0.0424 -0.0232
  145SAPE   O1315884   3.619   6.720  11.241 -0.1279  0.1266  0.3207
  145SAPE   O1415885   3.830   6.825  11.159 -0.4033 -0.6638 -0.0224
  145SAPE   O1215886   3.837   6.602  11.273 -0.2816  0.1008  0.2625
  145SAPE   O1115887   3.731   6.616  11.048 -0.4328 -0.3035  0.1359
  145SAPE    C115888   3.617   6.627  10.962 -0.1798  0.4231 -0.1283
  145SAPE    HA15889   3.570   6.526  10.962  0.0761  0.3026  0.4481
  145SAPE    HB15890   3.545   6.698  11.009  1.1422  0.7785  1.4479
  145SAPE    C215891   3.638   6.687  10.819 -0.2102 -0.0094 -0.6045
  145SAPE    HS15892   3.546   6.672  10.759 -0.6325 -1.0311  0.2585
  145SAPE   O2115893   3.755   6.618  10.767 -0.4569 -0.5339 -0.7842
  145SAPE   C2115894   3.724   6.494  10.727  0.9110 -0.5196 -0.7358
  145SAPE   O2215895   3.613   6.442  10.738 -0.5168  0.4708  0.4330
  145SAPE   C2215896   3.843   6.437  10.662 -0.1394 -0.3900  0.4391
  145SAPE   H2R15897   3.926   6.429  10.736 -0.2309  2.2946  0.9292
  145SAPE   H2S15898   3.819   6.335  10.624  2.1349 -0.5125 -0.9189
  145SAPE    C315899   3.666   6.837  10.822  0.0872 -0.3330  0.4764
  145SAPE    HX15900   3.728   6.862  10.910  2.1815 -1.5094 -0.5738
  145SAPE    HY15901   3.563   6.878  10.823 -0.8848 -2.5085 -1.2782
  145SAPE   O3115902   3.728   6.888  10.699  0.2424 -0.3307  0.0430
  145SAPE   C3115903   3.865   6.879  10.702 -0.1568 -0.0882  0.1066
  145SAPE   O3215904   3.932   6.844  10.797  0.6703  0.1206 -0.4320
  145SAPE   C3215905   3.929   6.941  10.575  0.3147 -0.1792  1.1777
  145SAPE   H2X15906   4.039   6.943  10.592  0.6297 -1.9406 -0.3623
  145SAPE   H2Y15907   3.885   7.043  10.581 -0.1039 -0.2535 -0.2683
  145SAPE   C2315908   3.892   6.514  10.538 -0.1672 -0.9581  0.4153
  145SAPE   H3R15909   3.977   6.461  10.491 -0.9900 -1.0030 -1.0768
  145SAPE   H3S15910   3.917   6.616  10.574  0.3917 -0.8773 -0.1820
  145SAPE   C2415911   3.785   6.530  10.423 -0.2609  0.7691 -0.2948
  145SAPE   H4R15912   3.840   6.595  10.352  0.5094 -1.1097 -1.4862
  145SAPE   H4S15913   3.697   6.585  10.464 -1.3691 -0.9871 -0.2059
  145SAPE   C2515914   3.737   6.400  10.358 -0.4906 -0.2891  0.2662
  145SAPE   H5R15915   3.738   6.317  10.430 -0.3462 -0.3752  0.1654
  145SAPE   C2615916   3.714   6.388  10.222 -0.2826  0.4559  0.3295
  145SAPE   H6R15917   3.677   6.290  10.186 -0.0147  1.1705 -2.0427
  145SAPE   C2715918   3.736   6.484  10.110  0.0548  0.1642 -0.3934
  145SAPE   H7R15919   3.766   6.439  10.013 -0.6655 -2.2886  0.4699
  145SAPE   H7S15920   3.832   6.535  10.133  1.8111 -2.4011 -1.5701
  145SAPE   C2815921   3.622   6.586  10.103  0.1470  0.6245  0.4673
  145SAPE   H8R15922   3.568   6.613  10.195  0.2936  0.1655  0.6953
  145SAPE   C2915923   3.577   6.628   9.988  0.2566  0.0536  0.3868
  145SAPE   H9R15924   3.513   6.718   9.984  1.4767  1.0718  2.2271
  145SAPE  C21015925   3.636   6.597   9.855  0.7657 -0.5447  0.3188
  145SAPE  H10R15926   3.602   6.499   9.817 -0.3883 -0.5417  1.2884
  145SAPE  H10S15927   3.746   6.584   9.866  0.7679 -0.7362  0.0890
  145SAPE  C21115928   3.628   6.717   9.763 -0.0078  0.0988  0.6824
  145SAPE  H11R15929   3.622   6.814   9.813 -1.4189  1.1807 -1.4341
  145SAPE  C21215930   3.629   6.712   9.630  0.2627 -0.6077 -0.0098
  145SAPE  H12R15931   3.610   6.807   9.578 -0.6153 -0.3044  0.8371
  145SAPE  C21315932   3.644   6.592   9.544 -0.2449  0.3531 -0.5623
  145SAPE  H13R15933   3.550   6.570   9.489 -0.9533  0.2393  0.6502
  145SAPE  H13S15934   3.666   6.509   9.614  0.0049  0.6922 -0.2311
  145SAPE  C21415935   3.761   6.621   9.451 -0.3174  0.1725  0.7353
  145SAPE  H14R15936   3.863   6.608   9.490 -0.7152  1.2253  2.1894
  145SAPE  C21515937   3.745   6.662   9.327 -0.5223  0.1981  0.5709
  145SAPE  H15R15938   3.834   6.667   9.262 -0.5491 -0.9450  0.4287
  145SAPE  C21615939   3.617   6.665   9.250  0.8674 -1.0661 -0.6950
  145SAPE  H16R15940   3.561   6.759   9.268  1.6244 -0.3332 -1.9954
  145SAPE  H16S15941   3.546   6.582   9.273 -0.7460  0.4079 -0.1909
  145SAPE  C21715942   3.644   6.660   9.098  0.3243  0.2049 -0.4735
  145SAPE  H17R15943   3.707   6.568   9.098  0.4270  0.2747 -0.3429
  145SAPE  H17S15944   3.697   6.747   9.052 -1.5201  0.9504 -1.2917
  145SAPE  C21815945   3.517   6.622   9.012  0.0627  0.1045 -0.8603
  145SAPE  H18R15946   3.458   6.713   8.986  2.4545  1.9918 -0.1177
  145SAPE  H18S15947   3.464   6.551   9.079  2.4946 -1.2003 -0.1916
  145SAPE  C21915948   3.555   6.556   8.873 -0.1434  0.2006 -0.2804
  145SAPE  H19R15949   3.636   6.483   8.893 -0.5963  0.4571  2.9915
  145SAPE  H19S15950   3.595   6.631   8.801  0.2508 -1.5690 -2.0013
  145SAPE  C22015951   3.442   6.480   8.806  0.1902  0.7795  0.8694
  145SAPE  H20R15952   3.397   6.414   8.883 -2.0510 -1.5407 -2.1664
  145SAPE  H20S15953   3.480   6.412   8.726  0.6973  2.8564 -0.7418
  145SAPE  H20T15954   3.371   6.551   8.758  0.9352  0.4159 -0.8728
  145SAPE   C3315955   3.898   6.871  10.443 -0.2382  0.4132  0.7883
  145SAPE   H3X15956   3.788   6.854  10.440 -0.0616 -0.6687  0.2516
  145SAPE   H3Y15957   3.954   6.779  10.417  3.2482  2.0162  2.1326
  145SAPE   C3415958   3.932   6.973  10.330  0.2046 -0.5622  0.2024
  145SAPE   H4X15959   4.036   7.006  10.351  0.0917  0.8137 -1.2007
  145SAPE   H4Y15960   3.868   7.061  10.350  0.7081 -0.0939 -0.2084
  145SAPE   C3515961   3.923   6.910  10.186  0.5024  0.4324  0.0174
  145SAPE   H5X15962   3.822   6.864  10.187  1.0354 -0.7735 -0.1053
  145SAPE   H5Y15963   4.001   6.834  10.163 -1.2533 -1.2786 -0.6304
  145SAPE   C3615964   3.926   7.017  10.080  0.1444 -0.3747 -0.7353
  145SAPE   H6X15965   4.017   7.079  10.095 -0.3053  0.4605 -1.3989
  145SAPE   H6Y15966   3.842   7.089  10.086 -0.7194 -1.4228  0.2243
  145SAPE   C3715967   3.918   6.964   9.944 -0.1183  0.1451  0.1387
  145SAPE   H7X15968   3.843   6.882   9.941  0.3634 -0.2742 -1.6139
  145SAPE   H7Y15969   4.014   6.913   9.921  0.1119 -0.0019  1.3462
  145SAPE   C3815970   3.880   7.068   9.841 -0.0089  0.0647  1.0224
  145SAPE   H8X15971   3.948   7.155   9.852  1.7876 -1.3987  2.1118
  145SAPE   H8Y15972   3.773   7.093   9.859 -0.8575 -1.2027 -1.6740
  145SAPE   C3915973   3.881   7.009   9.700  0.4280 -1.0350  0.2693
  145SAPE   H9X15974   3.885   6.898   9.691 -2.9068 -1.2355  0.1203
  145SAPE   H9Y15975   3.981   7.036   9.661 -0.0732 -0.3215 -0.5549
  145SAPE  C31015976   3.786   7.084   9.613  0.5143  0.2601  0.7249
  145SAPE  H10X15977   3.802   7.193   9.619  1.0238  0.1200  2.4321
  145SAPE  H10Y15978   3.683   7.064   9.652 -0.8710  1.7869 -1.8581
  145SAPE  C31115979   3.779   7.045   9.462 -0.0109  0.4257 -0.5458
  145SAPE  H11X15980   3.778   6.934   9.460  0.6722  0.3056  2.1045
  145SAPE  H11Y15981   3.869   7.078   9.406 -0.5827  3.0470 -0.0419
  145SAPE  C31215982   3.652   7.090   9.393  0.2521 -0.0428  0.1454
  145SAPE  H12X15983   3.644   7.201   9.396 -0.7156  0.0787 -2.9771
  145SAPE  H12Y15984   3.558   7.052   9.437 -0.4574  0.8826 -0.5180
  145SAPE  C31315985   3.643   7.057   9.248 -0.8222  0.6946 -0.2482
  145SAPE  H13X15986   3.641   6.946   9.237  0.2135  0.4493  1.6104
  145SAPE  H13Y15987   3.742   7.084   9.205 -0.3455  0.4953  0.6986
  145SAPE  C31415988   3.526   7.119   9.174 -0.4874  0.9519 -0.3863
  145SAPE  H14X15989   3.541   7.229   9.173 -0.4916  1.0047 -3.1019
  145SAPE  H14Y15990   3.433   7.084   9.224 -0.0428  0.7325  0.2938
  145SAPE  C31515991   3.543   7.079   9.021  0.3410 -0.2613 -0.1168
  145SAPE  H15X15992   3.535   6.968   9.020  0.8366 -0.2989 -0.2081
  145SAPE  H15Y15993   3.645   7.116   8.995 -0.2739  2.4744  0.9865
  145SAPE  C31615994   3.442   7.143   8.929 -0.1949  0.4153  0.6473
  145SAPE  H16X15995   3.432   7.249   8.958 -1.7847  0.8256 -1.1631
  145SAPE  H16Y15996   3.345   7.091   8.948  0.3306 -0.8568 -0.0212
  145SAPE  C31715997   3.483   7.127   8.780 -0.0695 -0.3245  0.3643
  145SAPE  H17X15998   3.573   7.190   8.765  1.0057 -1.8892 -0.0171
  145SAPE  H17Y15999   3.393   7.171   8.732 -0.6343 -1.4719  0.3117
  145SAPE  C31816000   3.495   6.981   8.726 -0.0780 -0.1114  0.0887
  145SAPE  H18X16001   3.531   6.989   8.621 -2.1817 -0.0956 -0.6889
  145SAPE  H18Y16002   3.395   6.931   8.729 -0.3451  0.1784 -2.0631
  145SAPE  H18Z16003   3.567   6.916   8.779  0.4648 -1.0552 -1.7085
  146SAPE     N16004   3.495   6.126  10.828  0.2421 -0.5080 -0.1640
  146SAPE   HN116005   3.588   6.171  10.843 -0.1129 -0.6011  2.7637
  146SAPE   HN216006   3.502   6.027  10.798  0.0228 -0.8475  0.8724
  146SAPE   HN316007   3.451   6.183  10.753 -0.1649  1.1555  1.2905
  146SAPE   C1216008   3.405   6.133  10.952  0.0173  0.2337 -0.2678
  146SAPE  H12A16009   3.440   6.223  11.008  0.1049  0.2844 -0.4037
  146SAPE  H12B16010   3.407   6.036  11.006 -3.5236  0.2571  0.1812
  146SAPE   C1116011   3.259   6.157  10.911 -0.4726  0.8204  0.1600
  146SAPE  H11A16012   3.245   6.250  10.852  2.5400 -0.5674 -3.1620
  146SAPE  H11B16013   3.192   6.155  10.999 -0.9058 -4.0156 -0.0230
  146SAPE     P16014   3.068   6.028  10.791  0.0727  0.0414  0.0080
  146SAPE   O1316015   3.003   5.943  10.898 -0.5064  0.3360  0.1099
  146SAPE   O1416016   3.002   6.158  10.768  0.5169 -0.4460 -0.4810
  146SAPE   O1216017   3.224   6.048  10.828 -0.2656 -0.0827 -0.0556
  146SAPE   O1116018   3.077   5.949  10.653 -0.3569 -0.1148 -0.3642
  146SAPE    C116019   3.196   5.878  10.605  0.4827 -0.3771 -0.3129
  146SAPE    HA16020   3.289   5.930  10.636  0.1372 -0.9932  1.9607
  146SAPE    HB16021   3.184   5.781  10.657 -2.3867  0.3946  0.6823
  146SAPE    C216022   3.179   5.857  10.451  0.7317 -0.4142  0.0775
  146SAPE    HS16023   3.264   5.791  10.422  1.1692 -0.2510  0.9503
  146SAPE   O2116024   3.156   5.980  10.384  0.2171 -0.0925 -0.5345
  146SAPE   C2116025   3.264   6.024  10.340 -0.0122 -1.2581 -0.3588
  146SAPE   O2216026   3.375   5.971  10.340  0.0378  0.3052 -0.5138
  146SAPE   C2216027   3.234   6.162  10.273 -0.3156  0.5848 -0.1100
  146SAPE   H2R16028   3.136   6.153  10.221  0.7064 -2.5451 -1.7607
  146SAPE   H2S16029   3.208   6.233  10.354 -2.0870 -0.7116  0.5057
  146SAPE    C316030   3.056   5.768  10.425  0.4174  0.2038 -0.1571
  146SAPE    HX16031   2.976   5.828  10.474 -0.4941 -1.6863  0.7915
  146SAPE    HY16032   3.059   5.674  10.484 -1.6641  0.6853  0.8077
  146SAPE   O3116033   3.038   5.741  10.280  0.7466 -0.3315  0.0494
  146SAPE   C3116034   2.958   5.823  10.215  0.4799 -0.2844 -0.1691
  146SAPE   O3216035   2.895   5.914  10.262  0.4300 -0.3671  0.0721
  146SAPE   C3216036   2.975   5.813  10.062  1.3076 -0.1101  0.0804
  146SAPE   H2X16037   2.882   5.851  10.013  0.8712 -0.7092  0.4378
  146SAPE   H2Y16038   2.991   5.706  10.040 -2.7737 -0.6212 -1.2460
  146SAPE   C2316039   3.350   6.221  10.189  0.2680  0.3572 -0.4467
  146SAPE   H3R16040   3.444   6.199  10.243 -0.6219 -0.7680  0.6958
  146SAPE   H3S16041   3.328   6.330  10.188 -2.7261 -0.1124  1.5245
  146SAPE   C2416042   3.358   6.158  10.042  0.3994  0.6611 -0.2176
  146SAPE   H4R16043   3.255   6.154  10.001  0.0669  0.2393  0.6447
  146SAPE   H4S16044   3.393   6.053  10.037 -2.1446 -0.2082 -1.4385
  146SAPE   C2516045   3.456   6.234   9.960  0.4641 -0.5517  0.8493
  146SAPE   H5R16046   3.549   6.259  10.014  0.7090 -0.1115  0.2250
  146SAPE   C2616047   3.441   6.262   9.828 -0.3649  0.4402 -0.2080
  146SAPE   H6R16048   3.519   6.303   9.763 -1.0546 -0.8145 -1.9138
  146SAPE   C2716049   3.319   6.218   9.754 -0.1989  0.6374  0.1692
  146SAPE   H7R16050   3.262   6.312   9.737  1.4820  1.7581  0.3900
  146SAPE   H7S16051   3.252   6.150   9.809 -0.0298  0.2089 -0.1500
  146SAPE   C2816052   3.365   6.152   9.628  0.6646  0.0965  0.2942
  146SAPE   H8R16053   3.396   6.049   9.648 -0.9546 -0.1157  1.9625
  146SAPE   C2916054   3.372   6.197   9.499 -0.5971  0.2782  0.1580
  146SAPE   H9R16055   3.396   6.131   9.414  1.2933  2.1845 -0.8904
  146SAPE  C21016056   3.333   6.335   9.458 -0.3678 -0.5927  0.6878
  146SAPE  H10R16057   3.430   6.386   9.437  0.7038 -2.8758 -0.2004
  146SAPE  H10S16058   3.287   6.387   9.544  0.4728  1.2484  0.0705
  146SAPE  C21116059   3.250   6.348   9.329  0.0247 -0.5793 -0.4382
  146SAPE  H11R16060   3.146   6.379   9.348  0.6098  1.5232 -0.4287
  146SAPE  C21216061   3.283   6.316   9.200 -0.2383 -0.9843  0.8197
  146SAPE  H12R16062   3.215   6.346   9.119  2.1493  0.5449 -0.7349
  146SAPE  C21316063   3.423   6.264   9.148  0.7230 -0.3393 -0.9283
  146SAPE  H13R16064   3.498   6.271   9.230 -0.7227 -1.4131  0.5576
  146SAPE  H13S16065   3.460   6.334   9.070  0.0472 -1.3431 -2.1729
  146SAPE  C21416066   3.411   6.120   9.101  0.0973  0.1308  0.5881
  146SAPE  H14R16067   3.308   6.097   9.070  0.0812  2.1993 -1.1597
  146SAPE  C21516068   3.499   6.018   9.102  0.9511  0.9163 -0.1980
  146SAPE  H15R16069   3.458   5.920   9.077 -0.8744  1.2498  1.2721
  146SAPE  C21616070   3.648   6.026   9.139 -0.3535  0.1270 -0.5761
  146SAPE  H16R16071   3.691   5.947   9.204  0.1205  0.5562 -0.3623
  146SAPE  H16S16072   3.646   6.108   9.213 -1.4564 -0.7707  0.4403
  146SAPE  C21716073   3.745   6.053   9.021  0.7318  0.3608 -0.1781
  146SAPE  H17R16074   3.784   5.970   8.959  0.7780  0.0963  0.2024
  146SAPE  H17S16075   3.834   6.100   9.067  0.5898  2.4835 -1.9049
  146SAPE  C21816076   3.681   6.136   8.905  0.0554  0.3739 -0.0075
  146SAPE  H18R16077   3.642   6.232   8.944  1.3749  0.8675  0.1273
  146SAPE  H18S16078   3.592   6.090   8.855 -1.6828  1.4898  1.9262
  146SAPE  C21916079   3.787   6.159   8.791 -0.0122  0.5635 -0.4189
  146SAPE  H19R16080   3.819   6.061   8.750  0.0528  0.4477 -0.0865
  146SAPE  H19S16081   3.871   6.205   8.846 -1.4695  0.6328  1.8752
  146SAPE  C22016082   3.763   6.249   8.674 -0.3025  0.9762  0.6130
  146SAPE  H20R16083   3.842   6.235   8.598 -1.6308 -1.5435 -0.3886
  146SAPE  H20S16084   3.772   6.357   8.703 -1.7274  1.2973 -0.0630
  146SAPE  H20T16085   3.661   6.228   8.635  0.0438  0.3387  0.0483
  146SAPE   C3316086   3.106   5.891  10.018  0.1306  0.8347 -0.0838
  146SAPE   H3X16087   3.194   5.861  10.078 -0.4375  1.6875  1.2259
  146SAPE   H3Y16088   3.084   5.996  10.048  0.1747  0.6095  0.7710
  146SAPE   C3416089   3.128   5.871   9.865 -0.3871  0.3955  0.7038
  146SAPE   H4X16090   3.191   5.781   9.854 -1.0027 -0.1285  1.3812
  146SAPE   H4Y16091   3.196   5.956   9.842 -1.7025  1.3323  0.1449
  146SAPE   C3516092   3.005   5.876   9.771 -0.1178  0.0771  0.5006
  146SAPE   H5X16093   2.944   5.957   9.816 -0.5251 -0.6182  1.2338
  146SAPE   H5Y16094   2.955   5.778   9.787 -1.1116  0.4854 -0.0549
  146SAPE   C3616095   3.042   5.907   9.624  0.1032  0.1283 -0.5489
  146SAPE   H6X16096   3.041   5.813   9.565 -0.6831  0.2749 -0.7905
  146SAPE   H6Y16097   3.147   5.941   9.624 -0.7269  3.2674  2.5810
  146SAPE   C3716098   2.962   6.015   9.544  0.6220  0.3616 -0.1399
  146SAPE   H7X16099   2.982   6.116   9.586 -0.6612  1.4474 -1.9695
  146SAPE   H7Y16100   2.855   5.989   9.561 -0.3994 -0.3168 -5.6746
  146SAPE   C3816101   2.984   5.997   9.393 -0.2152 -0.8445  0.4028
  146SAPE   H8X16102   2.960   5.897   9.350  0.3856 -0.0220 -2.0344
  146SAPE   H8Y16103   3.094   5.993   9.373 -0.1188 -1.9125  1.0483
  146SAPE   C3916104   2.916   6.103   9.307 -0.4342 -0.0578  0.4854
  146SAPE   H9X16105   2.938   6.208   9.336  0.3614 -0.1141  0.1239
  146SAPE   H9Y16106   2.806   6.104   9.322 -0.3691 -1.0748  1.1130
  146SAPE  C31016107   2.940   6.101   9.152  0.0908 -0.0939 -0.2648
  146SAPE  H10X16108   2.897   6.004   9.118 -1.3312  0.4893 -0.1819
  146SAPE  H10Y16109   3.048   6.093   9.128  0.2997  1.8761 -0.1221
  146SAPE  C31116110   2.868   6.229   9.103  0.7889 -0.3964  0.7028
  146SAPE  H11X16111   2.922   6.324   9.124  0.3931  0.1443 -0.6058
  146SAPE  H11Y16112   2.770   6.228   9.155  0.4136 -0.2871  0.0056
  146SAPE  C31216113   2.850   6.222   8.950  0.1235 -0.4566 -0.3274
  146SAPE  H12X16114   2.752   6.261   8.917 -0.0304 -1.4835 -1.1354
  146SAPE  H12Y16115   2.856   6.114   8.925 -1.0816 -0.9010  1.1697
  146SAPE  C31316116   2.965   6.281   8.868 -0.6299 -1.1934  0.3362
  146SAPE  H13X16117   3.065   6.237   8.888 -0.3702 -1.1038 -0.7156
  146SAPE  H13Y16118   2.986   6.387   8.893 -1.7686 -0.5539 -1.2242
  146SAPE  C31416119   2.931   6.267   8.718 -0.1850  0.3819 -0.0010
  146SAPE  H14X16120   3.003   6.335   8.667  1.9748 -1.5247  0.3109
  146SAPE  H14Y16121   2.826   6.301   8.703 -0.4839  0.4257  1.9409
  146SAPE  C31516122   2.955   6.123   8.665  0.3201 -0.1055  0.3402
  146SAPE  H15X16123   2.921   6.124   8.560  2.3177 -2.8393 -0.4648
  146SAPE  H15Y16124   2.889   6.045   8.707  0.1478 -0.0573  0.1577
  146SAPE  C31616125   3.102   6.058   8.677  0.1939  1.0288  1.1107
  146SAPE  H16X16126   3.098   5.964   8.619 -0.9766  1.4006  0.5578
  146SAPE  H16Y16127   3.101   6.023   8.783  0.2438  1.8879  1.4024
  146SAPE  C31716128   3.227   6.141   8.639 -0.8047 -0.7600  0.4723
  146SAPE  H17X16129   3.232   6.239   8.692  0.9513  0.5570 -1.8982
  146SAPE  H17Y16130   3.235   6.165   8.530  1.7250  2.2381  1.1642
  146SAPE  C31816131   3.360   6.067   8.671 -0.3924 -0.3832 -0.1707
  146SAPE  H18X16132   3.366   5.970   8.617  0.3948 -0.3921 -0.0837
  146SAPE  H18Y16133   3.374   6.060   8.781 -0.0386  1.3036 -0.0733
  146SAPE  H18Z16134   3.444   6.131   8.637 -0.0993  0.4197  1.9035
  147SAPE     N16135   3.389   2.298   6.046  0.8836 -0.0998  0.0437
  147SAPE   HN116136   3.452   2.275   5.967 -0.6085 -0.5753 -1.0577
  147SAPE   HN216137   3.396   2.235   6.129 -2.2155  0.5197  0.8968
  147SAPE   HN316138   3.294   2.283   6.007  1.1524 -0.4346 -0.4895
  147SAPE   C1216139   3.397   2.442   6.079 -0.1032 -0.5086 -0.4182
  147SAPE  H12A16140   3.338   2.500   6.005  3.9758  2.0899 -1.9368
  147SAPE  H12B16141   3.498   2.484   6.096  0.2062 -1.1501 -0.6515
  147SAPE   C1116142   3.330   2.468   6.219 -0.1125 -0.0743 -0.0266
  147SAPE  H11A16143   3.331   2.579   6.215 -1.3465 -0.0476  0.1343
  147SAPE  H11B16144   3.402   2.421   6.289 -0.6589 -2.1229 -0.7516
  147SAPE     P16145   3.127   2.424   6.364  0.2572  0.2676  0.1132
  147SAPE   O1316146   3.137   2.563   6.416  0.5457  0.2271 -0.4570
  147SAPE   O1416147   2.994   2.359   6.359  0.1693 -0.6614 -0.3341
  147SAPE   O1216148   3.195   2.418   6.223 -0.2491  0.4242 -0.6598
  147SAPE   O1116149   3.226   2.335   6.450  0.5164 -0.3282 -0.0589
  147SAPE    C116150   3.279   2.383   6.575  0.5483 -0.6197 -0.3237
  147SAPE    HA16151   3.385   2.348   6.579  1.1228  0.7815 -1.8328
  147SAPE    HB16152   3.303   2.491   6.586  2.2744 -1.0394  0.4931
  147SAPE    C216153   3.200   2.339   6.699  0.3354  0.3601  0.2492
  147SAPE    HS16154   3.104   2.395   6.693 -0.0900 -0.4649 -0.7236
  147SAPE   O2116155   3.276   2.369   6.815  0.0311 -0.3177 -0.1611
  147SAPE   C2116156   3.246   2.490   6.874 -0.3754  0.1372  0.6007
  147SAPE   O2216157   3.171   2.577   6.825 -0.0949  0.2317  0.7892
  147SAPE   C2216158   3.308   2.510   7.013  0.5719 -0.5388 -0.0570
  147SAPE   H2R16159   3.419   2.512   7.009  0.5587 -0.4002 -0.3723
  147SAPE   H2S16160   3.269   2.608   7.048 -0.2316 -0.1118 -2.0125
  147SAPE    C316161   3.166   2.186   6.695  0.5107 -1.4561 -0.3930
  147SAPE    HX16162   3.248   2.114   6.717  1.2850 -1.0212 -1.7214
  147SAPE    HY16163   3.129   2.166   6.593  0.9898 -1.8924 -0.4844
  147SAPE   O3116164   3.063   2.159   6.795 -0.7408  0.3041 -0.1434
  147SAPE   C3116165   2.946   2.202   6.773  0.6308 -0.7618 -0.5631
  147SAPE   O3216166   2.915   2.266   6.672 -0.3327 -0.3951  0.3397
  147SAPE   C3216167   2.843   2.174   6.885  0.0089  0.2525  0.4693
  147SAPE   H2X16168   2.893   2.133   6.975 -0.5050 -6.2670 -1.6666
  147SAPE   H2Y16169   2.768   2.103   6.846 -1.4637  0.4977  2.6523
  147SAPE   C2316170   3.256   2.402   7.114  1.3530 -0.4924 -0.4746
  147SAPE   H3R16171   3.284   2.302   7.074  0.2833 -1.9133  2.1268
  147SAPE   H3S16172   3.145   2.400   7.125  1.3572  2.7262  1.5482
  147SAPE   C2416173   3.343   2.410   7.240 -0.1671  0.1708 -0.2702
  147SAPE   H4R16174   3.443   2.369   7.214  1.2875  1.9627  2.0627
  147SAPE   H4S16175   3.292   2.333   7.300  0.7216  0.0044  0.2919
  147SAPE   C2516176   3.350   2.544   7.305 -0.1550 -0.5027  0.0779
  147SAPE   H5R16177   3.369   2.627   7.235 -1.2374 -0.1446  0.1819
  147SAPE   C2616178   3.315   2.590   7.430 -0.6236  0.0453 -0.1889
  147SAPE   H6R16179   3.331   2.696   7.452 -1.4176 -0.2774  2.2646
  147SAPE   C2716180   3.267   2.525   7.548 -0.5888  0.2053 -0.3132
  147SAPE   H7R16181   3.175   2.470   7.519 -0.1169 -1.6355  1.4174
  147SAPE   H7S16182   3.247   2.601   7.626  1.0132 -0.4687  0.7975
  147SAPE   C2816183   3.361   2.416   7.598  0.1111  1.1642 -0.4210
  147SAPE   H8R16184   3.362   2.318   7.550  1.3952  0.4757  0.9325
  147SAPE   C2916185   3.443   2.434   7.703 -0.0634 -0.2284 -0.6937
  147SAPE   H9R16186   3.503   2.350   7.741 -0.5448  0.6577  2.2204
  147SAPE  C21016187   3.436   2.558   7.792 -0.2260  0.2687 -0.2103
  147SAPE  H10R16188   3.388   2.536   7.890 -1.0292  0.0893 -0.6424
  147SAPE  H10S16189   3.379   2.645   7.754 -1.6463 -0.3225  0.5092
  147SAPE  C21116190   3.576   2.604   7.825  0.2791 -0.3939  0.3972
  147SAPE  H11R16191   3.616   2.688   7.766 -2.5016  0.5206 -0.3818
  147SAPE  C21216192   3.660   2.561   7.920  0.3527 -0.4925 -0.4025
  147SAPE  H12R16193   3.757   2.611   7.933 -1.0276  1.6266  3.3175
  147SAPE  C21316194   3.633   2.454   8.018  0.3811  0.2491 -0.4257
  147SAPE  H13R16195   3.548   2.387   7.996 -1.1447  1.7718  0.6044
  147SAPE  H13S16196   3.593   2.502   8.110  2.0797 -1.5001  1.3334
  147SAPE  C21416197   3.749   2.355   8.036 -0.4853  0.0037 -0.5209
  147SAPE  H14R16198   3.743   2.266   7.972  2.7880 -2.6462  2.4859
  147SAPE  C21516199   3.849   2.373   8.130  0.9013  0.5486  0.3982
  147SAPE  H15R16200   3.943   2.316   8.126  0.8921  0.5455  0.1790
  147SAPE  C21616201   3.851   2.472   8.243 -0.2713  0.4140  0.8848
  147SAPE  H16R16202   3.744   2.495   8.265 -1.0714 -1.7142 -0.5092
  147SAPE  H16S16203   3.898   2.565   8.206  0.4604 -1.0329 -2.0232
  147SAPE  C21716204   3.908   2.400   8.367  0.0701 -0.6881 -0.1404
  147SAPE  H17R16205   3.851   2.305   8.380  1.2940 -1.4036  0.1841
  147SAPE  H17S16206   3.905   2.468   8.455 -0.1789 -1.4785  0.4736
  147SAPE  C21816207   4.058   2.370   8.366 -0.6657 -0.0840  0.0932
  147SAPE  H18R16208   4.122   2.460   8.353  0.5674 -1.1654 -1.6458
  147SAPE  H18S16209   4.087   2.300   8.285 -1.9959 -0.7271  0.1478
  147SAPE  C21916210   4.106   2.319   8.501 -0.1254 -0.1060 -0.5609
  147SAPE  H19R16211   4.040   2.232   8.522 -2.4817  0.8124 -3.4624
  147SAPE  H19S16212   4.082   2.387   8.586 -0.2097 -0.3945 -0.3506
  147SAPE  C22016213   4.263   2.291   8.506 -0.2014  0.6809  0.2671
  147SAPE  H20R16214   4.295   2.267   8.610  1.7344  3.4508  0.4276
  147SAPE  H20S16215   4.327   2.376   8.475  0.7912 -0.9851 -2.6663
  147SAPE  H20T16216   4.283   2.196   8.453  1.5557 -0.1489  2.2623
  147SAPE   C3316217   2.758   2.300   6.923 -0.4382  0.2915  0.4084
  147SAPE   H3X16218   2.664   2.269   6.973 -2.1124  0.2513 -2.4915
  147SAPE   H3Y16219   2.731   2.364   6.836 -1.3286  2.6515  2.3316
  147SAPE   C3416220   2.831   2.400   7.013 -0.3423 -0.7892  0.4153
  147SAPE   H4X16221   2.938   2.400   6.984  0.1200  1.3552  1.9009
  147SAPE   H4Y16222   2.841   2.362   7.117 -0.0962 -0.1612  0.6242
  147SAPE   C3516223   2.784   2.543   7.015  0.1821  0.1878 -0.4791
  147SAPE   H5X16224   2.680   2.545   7.054  0.1160  2.1300 -0.6491
  147SAPE   H5Y16225   2.786   2.579   6.910  2.1476 -0.4944 -0.7208
  147SAPE   C3616226   2.880   2.637   7.099  0.0983  0.4949 -0.5804
  147SAPE   H6X16227   2.844   2.742   7.091 -0.0057  0.4292 -0.9590
  147SAPE   H6Y16228   2.988   2.631   7.072  0.7886  0.3008  1.9365
  147SAPE   C3716229   2.858   2.615   7.248  0.1946  0.7358 -0.3012
  147SAPE   H7X16230   2.894   2.512   7.270  0.8803  1.0169 -0.0715
  147SAPE   H7Y16231   2.750   2.623   7.270  0.0294  1.4948 -1.3440
  147SAPE   C3816232   2.926   2.720   7.332  0.2971 -0.3943 -0.7336
  147SAPE   H8X16233   2.872   2.813   7.305 -0.4581 -0.7507 -0.4689
  147SAPE   H8Y16234   3.031   2.739   7.300 -0.1299  1.4946 -1.1016
  147SAPE   C3916235   2.921   2.682   7.484 -0.4212 -0.0512  0.0729
  147SAPE   H9X16236   2.959   2.578   7.496  0.5294  0.0551 -1.7345
  147SAPE   H9Y16237   2.817   2.681   7.524  0.0318  1.3382  1.3489
  147SAPE  C31016238   3.000   2.765   7.578  0.0890  0.1127 -0.1049
  147SAPE  H10X16239   2.950   2.865   7.572 -2.1559 -1.0141 -1.6334
  147SAPE  H10Y16240   3.106   2.767   7.544  0.0652  1.3848 -0.1867
  147SAPE  C31116241   2.974   2.720   7.724  0.9755  0.8349 -1.6330
  147SAPE  H11X16242   3.019   2.619   7.736 -1.3798 -0.1458 -0.4471
  147SAPE  H11Y16243   2.866   2.706   7.745  0.9368  0.8094 -1.8407
  147SAPE  C31216244   3.019   2.822   7.827 -0.4174 -0.2452 -0.2157
  147SAPE  H12X16245   3.093   2.882   7.770 -1.7117 -0.1787 -1.9344
  147SAPE  H12Y16246   3.071   2.767   7.908  0.3146  0.1355 -0.4142
  147SAPE  C31316247   2.913   2.917   7.885 -0.0623  0.9186  0.1903
  147SAPE  H13X16248   2.830   2.861   7.933 -0.0043  2.0204  1.6730
  147SAPE  H13Y16249   2.870   2.979   7.803  0.1165  0.4431 -0.2666
  147SAPE  C31416250   2.980   3.020   7.981 -0.1531 -0.3423  0.8802
  147SAPE  H14X16251   3.051   3.082   7.922 -1.1578  0.9459  0.9707
  147SAPE  H14Y16252   3.023   2.970   8.070 -1.4055 -1.7396  0.7325
  147SAPE  C31516253   2.879   3.124   8.035 -0.0185  0.5802  0.2647
  147SAPE  H15X16254   2.791   3.070   8.079  1.4341  1.4046  4.6748
  147SAPE  H15Y16255   2.829   3.174   7.949 -1.0355  0.8225  0.9757
  147SAPE  C31616256   2.935   3.227   8.132 -0.0377  0.0320  0.0134
  147SAPE  H16X16257   2.985   3.162   8.207 -0.0015  0.1148  0.0612
  147SAPE  H16Y16258   2.853   3.290   8.172 -1.8343 -1.3435 -1.2943
  147SAPE  C31716259   3.037   3.324   8.067 -0.2702 -0.1532  0.1944
  147SAPE  H17X16260   2.966   3.392   8.015 -0.1505 -0.0647  0.1449
  147SAPE  H17Y16261   3.108   3.283   7.992  1.1333 -0.3499  1.5758
  147SAPE  C31816262   3.115   3.402   8.172 -0.0491  0.4816 -1.0354
  147SAPE  H18X16263   3.149   3.496   8.124 -0.9179  1.4197  0.1126
  147SAPE  H18Y16264   3.203   3.349   8.215 -0.0369  0.8895 -0.5415
  147SAPE  H18Z16265   3.046   3.414   8.259  0.4683 -0.2800 -0.5104
  148SAPE     N16266   1.325   0.548   6.694  0.4120  0.4049  0.4507
  148SAPE   HN116267   1.250   0.616   6.675 -0.5965 -1.0722 -1.2763
  148SAPE   HN216268   1.354   0.517   6.598 -0.0794  1.2874  0.0081
  148SAPE   HN316269   1.284   0.471   6.750  0.8357 -0.2790 -0.1486
  148SAPE   C1216270   1.442   0.617   6.756  0.1700  0.2403 -0.4277
  148SAPE  H12A16271   1.531   0.552   6.753  0.1568  0.1360  0.9305
  148SAPE  H12B16272   1.419   0.628   6.864  0.0377 -1.1212 -0.2961
  148SAPE   C1116273   1.465   0.749   6.677 -0.0080 -0.5240  0.7386
  148SAPE  H11A16274   1.508   0.722   6.578  1.5402 -1.9948  1.7689
  148SAPE  H11B16275   1.531   0.816   6.735 -0.1236 -2.2280  2.9540
  148SAPE     P16276   1.327   0.972   6.625 -0.0059  0.1305 -0.2192
  148SAPE   O1316277   1.464   1.019   6.593 -0.0655  0.2656 -0.1143
  148SAPE   O1416278   1.224   0.998   6.523  0.4235  0.2396 -0.3235
  148SAPE   O1216279   1.336   0.816   6.665 -0.3382 -0.4138 -0.2336
  148SAPE   O1116280   1.278   1.034   6.759 -1.0155  0.3410 -0.0309
  148SAPE    C116281   1.354   1.009   6.888 -0.3542 -0.0750  0.5896
  148SAPE    HA16282   1.399   0.907   6.886  0.8976  0.4289 -2.2279
  148SAPE    HB16283   1.425   1.092   6.910 -1.2013  0.7417  0.3113
  148SAPE    C216284   1.248   1.002   7.011 -0.4353 -0.6841  0.2112
  148SAPE    HS16285   1.304   0.973   7.103  0.1135  1.0442  0.4651
  148SAPE   O2116286   1.138   0.917   6.977  0.7942  0.3938  0.4079
  148SAPE   C2116287   1.167   0.788   6.998 -0.2195 -0.2980 -0.9155
  148SAPE   O2216288   1.278   0.747   7.036  0.0073 -0.1090 -0.3317
  148SAPE   C2216289   1.040   0.705   6.975 -0.5722  0.7509 -0.0678
  148SAPE   H2R16290   0.977   0.740   6.890 -1.5478  0.0848  0.3753
  148SAPE   H2S16291   1.081   0.612   6.931  1.4335  1.2406  0.6611
  148SAPE    C316292   1.187   1.148   7.032  0.0634 -0.6298 -0.0857
  148SAPE    HX16293   1.143   1.199   6.943  1.5126  1.5755  0.3929
  148SAPE    HY16294   1.280   1.202   7.057  0.3999 -1.3134  0.1619
  148SAPE   O3116295   1.109   1.146   7.151 -0.4415  0.4600 -0.3379
  148SAPE   C3116296   0.984   1.104   7.150  0.3752 -0.0165  0.5373
  148SAPE   O3216297   0.913   1.077   7.054 -0.4415  0.0889 -0.0495
  148SAPE   C3216298   0.933   1.090   7.291 -0.3576 -0.4736 -0.7838
  148SAPE   H2X16299   0.972   0.995   7.334  0.6893  0.0478 -0.5631
  148SAPE   H2Y16300   0.823   1.074   7.293 -0.5375  0.6099  0.9944
  148SAPE   C2316301   0.962   0.685   7.109  0.0864  0.3712 -0.2010
  148SAPE   H3R16302   0.865   0.633   7.094 -0.5685  1.2000  0.9695
  148SAPE   H3S16303   0.951   0.789   7.148 -0.3330 -0.1486  1.1176
  148SAPE   C2416304   1.047   0.606   7.212  0.0278  0.4285  0.2717
  148SAPE   H4R16305   1.127   0.678   7.244 -1.6738  1.2394  3.0631
  148SAPE   H4S16306   1.096   0.520   7.162  0.1517  1.6023 -1.7359
  148SAPE   C2516307   0.960   0.580   7.336  0.2961 -0.6169  0.7195
  148SAPE   H5R16308   0.897   0.493   7.315  1.2802 -0.6564 -2.7488
  148SAPE   C2616309   0.956   0.636   7.457  0.0860  0.1278  0.3538
  148SAPE   H6R16310   0.891   0.588   7.531  0.9430 -1.0696  0.3617
  148SAPE   C2716311   1.050   0.755   7.497  0.2693 -0.1364 -0.1840
  148SAPE   H7R16312   0.991   0.850   7.499  0.6989  0.1382 -0.5119
  148SAPE   H7S16313   1.130   0.753   7.420 -0.0541 -1.4458 -0.4976
  148SAPE   C2816314   1.121   0.732   7.626  0.6825  0.2285 -0.6830
  148SAPE   H8R16315   1.129   0.628   7.659 -1.3015  0.5090  0.8743
  148SAPE   C2916316   1.168   0.820   7.719  1.5852 -0.3430  0.1438
  148SAPE   H9R16317   1.228   0.782   7.803 -2.6922 -0.9555  3.2979
  148SAPE  C21016318   1.143   0.970   7.718  0.0387 -0.3872  0.3572
  148SAPE  H10R16319   1.138   1.011   7.614  0.6027 -1.3354 -0.0626
  148SAPE  H10S16320   1.235   1.008   7.769 -1.4105  1.1758  1.9442
  148SAPE  C21116321   1.015   1.005   7.787 -0.7567 -0.6771  0.7272
  148SAPE  H11R16322   0.923   1.013   7.728  1.3083  0.6973 -2.6206
  148SAPE  C21216323   1.009   1.032   7.915  0.3022 -0.2373 -0.0532
  148SAPE  H12R16324   0.917   1.084   7.948  0.9669 -0.1710  1.7788
  148SAPE  C21316325   1.116   1.017   8.015 -0.0004  0.0939  0.0611
  148SAPE  H13R16326   1.192   0.950   7.969 -1.9227 -1.6195 -0.7270
  148SAPE  H13S16327   1.075   0.953   8.095  0.8467 -0.5933 -0.0413
  148SAPE  C21416328   1.176   1.150   8.062 -0.7405 -0.3827 -0.0341
  148SAPE  H14R16329   1.179   1.240   7.998  2.8132  0.6188  1.2908
  148SAPE  C21516330   1.222   1.167   8.190  0.2215 -0.2546  0.0524
  148SAPE  H15R16331   1.262   1.265   8.220  3.6565 -1.1888 -1.0356
  148SAPE  C21616332   1.229   1.072   8.305 -0.5659  0.1072 -0.4188
  148SAPE  H16R16333   1.311   0.999   8.291 -0.1649  0.4252  0.2432
  148SAPE  H16S16334   1.144   1.001   8.319  0.7169 -1.0917  1.8114
  148SAPE  C21716335   1.255   1.156   8.431 -0.1877 -0.0434  0.0714
  148SAPE  H17R16336   1.333   1.233   8.414  0.4458 -0.2260  1.9805
  148SAPE  H17S16337   1.283   1.084   8.511 -2.0260  1.7114  2.4559
  148SAPE  C21816338   1.124   1.218   8.485  0.0832  0.0218 -0.1413
  148SAPE  H18R16339   1.040   1.146   8.473 -0.2506  0.2834  0.5631
  148SAPE  H18S16340   1.101   1.302   8.418 -1.1402 -1.2435 -1.3646
  148SAPE  C21916341   1.148   1.262   8.631 -0.4273  0.5651  0.3465
  148SAPE  H19R16342   1.175   1.167   8.683  1.0656  0.2968 -0.8361
  148SAPE  H19S16343   1.052   1.300   8.673  0.1855  2.6951 -0.0773
  148SAPE  C22016344   1.260   1.361   8.653 -0.3597 -0.2703 -0.0920
  148SAPE  H20R16345   1.360   1.328   8.618 -0.4343  0.6436 -1.2668
  148SAPE  H20S16346   1.267   1.375   8.763  2.8453 -0.3809 -0.1807
  148SAPE  H20T16347   1.234   1.460   8.608  2.0375  0.1635 -0.6597
  148SAPE   C3316348   0.974   1.208   7.380 -0.7294  0.3644 -0.7611
  148SAPE   H3X16349   0.912   1.193   7.471 -0.3735 -0.6370 -0.6717
  148SAPE   H3Y16350   0.931   1.304   7.343 -3.5002 -0.5538 -0.1843
  148SAPE   C3416351   1.120   1.230   7.434  0.0525 -0.4243  0.0529
  148SAPE   H4X16352   1.164   1.290   7.351 -1.0273  2.6861  1.5924
  148SAPE   H4Y16353   1.185   1.141   7.451  1.2707  0.3444 -0.3796
  148SAPE   C3516354   1.126   1.328   7.555  0.0358  0.1680  0.3529
  148SAPE   H5X16355   1.050   1.299   7.631 -1.9217  2.4089 -0.6253
  148SAPE   H5Y16356   1.098   1.434   7.540 -2.3169 -0.0417  2.5089
  148SAPE   C3616357   1.264   1.330   7.625 -0.4797 -0.0850 -0.2253
  148SAPE   H6X16358   1.341   1.350   7.547 -0.9715  0.6730 -0.5305
  148SAPE   H6Y16359   1.277   1.223   7.650 -0.2230 -0.2038 -0.8551
  148SAPE   C3716360   1.278   1.420   7.753 -0.1207 -1.0091 -0.1189
  148SAPE   H7X16361   1.378   1.424   7.801 -1.4329  0.1861  2.7739
  148SAPE   H7Y16362   1.212   1.375   7.832  1.2978 -1.6890  0.7208
  148SAPE   C3816363   1.236   1.570   7.727  0.3869  0.5618  0.4070
  148SAPE   H8X16364   1.126   1.569   7.709  0.5678 -1.1956 -0.8680
  148SAPE   H8Y16365   1.285   1.620   7.640 -0.3540  0.2642 -0.1997
  148SAPE   C3916366   1.269   1.649   7.846  0.0505  0.3037 -0.4493
  148SAPE   H9X16367   1.375   1.661   7.876 -0.1039  1.5465 -0.3548
  148SAPE   H9Y16368   1.231   1.587   7.931  0.9102 -0.0214 -0.2966
  148SAPE  C31016369   1.197   1.783   7.860 -0.5717 -0.0710 -0.5539
  148SAPE  H10X16370   1.091   1.762   7.885 -0.5210 -0.7734 -0.9243
  148SAPE  H10Y16371   1.216   1.843   7.768  0.9023  0.7058  0.2077
  148SAPE  C31116372   1.256   1.872   7.969 -0.3118  0.5104  0.6893
  148SAPE  H11X16373   1.356   1.911   7.943 -0.3278 -0.0337 -0.2284
  148SAPE  H11Y16374   1.277   1.813   8.062 -2.8396  0.6244  1.3961
  148SAPE  C31216375   1.171   2.004   7.989 -0.1991 -0.3352  0.1661
  148SAPE  H12X16376   1.065   1.975   8.003 -0.2251  0.6808  2.6142
  148SAPE  H12Y16377   1.168   2.067   7.897  2.5260  0.7268  0.7061
  148SAPE  C31316378   1.205   2.085   8.117 -0.2778  0.0579  0.8646
  148SAPE  H13X16379   1.154   2.183   8.110  1.7709  1.0665 -1.1583
  148SAPE  H13Y16380   1.312   2.116   8.108  0.2783 -1.9490  0.0219
  148SAPE  C31416381   1.170   2.003   8.234 -0.4936  0.4686  0.5211
  148SAPE  H14X16382   1.222   1.905   8.239  0.8723  1.2344  1.9033
  148SAPE  H14Y16383   1.061   1.981   8.246 -1.0322  2.7332  0.1723
  148SAPE  C31516384   1.216   2.076   8.356  0.7607 -0.7127  0.2886
  148SAPE  H15X16385   1.185   2.183   8.361 -0.1911 -1.0014  0.6479
  148SAPE  H15Y16386   1.327   2.067   8.358  0.8726  0.2819 -0.4602
  148SAPE  C31616387   1.181   2.031   8.505  0.1535  0.0330  0.3150
  148SAPE  H16X16388   1.233   2.098   8.577 -2.5547 -0.3753  2.8248
  148SAPE  H16Y16389   1.212   1.926   8.523  1.3843  0.4157  0.5065
  148SAPE  C31716390   1.031   2.055   8.524  0.4038 -0.4319 -0.2436
  148SAPE  H17X16391   0.974   1.980   8.464 -0.0775 -0.3612  0.1198
  148SAPE  H17Y16392   1.004   2.160   8.500  0.6202 -0.4037 -0.3682
  148SAPE  C31816393   0.980   2.027   8.669  0.5809 -0.1787 -0.4108
  148SAPE  H18X16394   0.870   2.040   8.664  0.6038 -0.0811 -0.6689
  148SAPE  H18Y16395   1.037   2.089   8.742 -1.3221  1.0320  0.1192
  148SAPE  H18Z16396   0.999   1.924   8.707 -0.8399 -0.6258 -0.8424
  149SAPE     N16397   1.554   1.275   6.501 -0.3080 -0.7394 -0.1322
  149SAPE   HN116398   1.489   1.314   6.430 -0.3831 -1.6787 -0.6011
  149SAPE   HN216399   1.648   1.264   6.458  0.6641 -0.5740  1.8433
  149SAPE   HN316400   1.513   1.183   6.526 -1.9468 -0.4025 -1.4255
  149SAPE   C1216401   1.566   1.362   6.618 -0.1464  0.1257 -0.4302
  149SAPE  H12A16402   1.653   1.325   6.677  0.2623 -0.4399 -1.3620
  149SAPE  H12B16403   1.474   1.352   6.679 -0.0924 -1.7295 -0.5935
  149SAPE   C1116404   1.588   1.504   6.573  0.2734  0.3839  0.0116
  149SAPE  H11A16405   1.692   1.536   6.551  1.1002 -1.2067  1.3799
  149SAPE  H11B16406   1.563   1.569   6.660  0.5870  1.5572 -0.7561
  149SAPE     P16407   1.444   1.683   6.440 -0.3125 -0.2317 -0.2334
  149SAPE   O1316408   1.543   1.786   6.483 -0.6353  0.0627  0.0231
  149SAPE   O1416409   1.395   1.698   6.306 -0.0058  0.0914 -0.1603
  149SAPE   O1216410   1.506   1.537   6.464 -0.1421  0.8537  0.2988
  149SAPE   O1116411   1.323   1.691   6.537 -0.1052 -0.2486  0.5325
  149SAPE    C116412   1.237   1.583   6.566 -0.0037 -0.3033 -0.9415
  149SAPE    HA16413   1.140   1.590   6.512 -1.6111  3.7255  1.9612
  149SAPE    HB16414   1.277   1.482   6.540  0.0203 -0.5044 -0.1597
  149SAPE    C216415   1.204   1.567   6.720 -0.1290 -0.7353 -0.6148
  149SAPE    HS16416   1.113   1.624   6.748  0.7758 -0.6863  2.6160
  149SAPE   O2116417   1.317   1.591   6.804  0.2244 -0.1213 -0.0101
  149SAPE   C2116418   1.324   1.705   6.854 -0.3271 -0.1287  0.2800
  149SAPE   O2216419   1.252   1.799   6.833  0.6445 -0.0076  0.1128
  149SAPE   C2216420   1.452   1.719   6.933  0.0720  0.0739 -0.2054
  149SAPE   H2R16421   1.542   1.684   6.878  1.4295  1.9047  0.7578
  149SAPE   H2S16422   1.471   1.826   6.955 -0.5771  0.1710 -0.0772
  149SAPE    C316423   1.148   1.426   6.743 -0.5317  0.0891  0.7116
  149SAPE    HX16424   1.241   1.366   6.735  0.2311  1.2193  1.0970
  149SAPE    HY16425   1.082   1.407   6.655  3.6437  2.4535 -3.3427
  149SAPE   O3116426   1.092   1.412   6.876 -0.1607 -0.2083  0.4027
  149SAPE   C3116427   0.973   1.467   6.899 -0.4165 -0.3034 -0.6994
  149SAPE   O3216428   0.914   1.543   6.824 -0.5928  0.1813 -0.4170
  149SAPE   C3216429   0.934   1.440   7.041  0.3130  0.9203 -0.5715
  149SAPE   H2X16430   1.021   1.391   7.090 -0.8731 -2.3181 -1.4490
  149SAPE   H2Y16431   0.857   1.361   7.032  0.2159  1.1141 -1.4786
  149SAPE   C2316432   1.438   1.645   7.076 -0.0318 -0.2413  0.6039
  149SAPE   H3R16433   1.349   1.682   7.131 -0.3734 -0.5515  0.2671
  149SAPE   H3S16434   1.526   1.688   7.128  1.7176 -0.8095 -1.7147
  149SAPE   C2416435   1.451   1.495   7.077  0.2392  0.1775  0.0914
  149SAPE   H4R16436   1.376   1.444   7.013  2.5062  0.1233 -2.7362
  149SAPE   H4S16437   1.438   1.458   7.181  2.7503  0.7959  0.7130
  149SAPE   C2516438   1.585   1.454   7.020 -0.2729  0.1263  0.7501
  149SAPE   H5R16439   1.591   1.450   6.910 -2.4264  0.1946  0.5974
  149SAPE   C2616440   1.699   1.435   7.083  0.2360  0.4711  0.0401
  149SAPE   H6R16441   1.785   1.391   7.031 -0.0878 -0.8066  0.5668
  149SAPE   C2716442   1.716   1.441   7.232 -0.8171  0.4014 -0.8812
  149SAPE   H7R16443   1.634   1.385   7.282 -0.8494 -1.4955 -2.8934
  149SAPE   H7S16444   1.705   1.543   7.275  0.4563 -0.5137  1.8346
  149SAPE   C2816445   1.853   1.385   7.280 -0.2760  0.2147 -0.2872
  149SAPE   H8R16446   1.852   1.277   7.300  1.7135  0.5247  1.9993
  149SAPE   C2916447   1.964   1.458   7.305 -0.0661 -0.3055 -0.2872
  149SAPE   H9R16448   2.047   1.399   7.347 -0.5037 -0.3717  0.5049
  149SAPE  C21016449   1.994   1.604   7.294 -0.5228  0.4957  0.7614
  149SAPE  H10R16450   1.912   1.665   7.250 -0.6245 -0.4745 -0.4570
  149SAPE  H10S16451   2.081   1.614   7.226 -0.4671 -0.8771  0.6022
  149SAPE  C21116452   2.037   1.652   7.436 -0.1440  0.2315  0.4807
  149SAPE  H11R16453   1.953   1.686   7.497 -1.2835  0.1922 -1.0280
  149SAPE  C21216454   2.157   1.674   7.490  0.2566 -0.0683  0.1788
  149SAPE  H12R16455   2.150   1.714   7.592 -0.4437 -0.8545  0.4506
  149SAPE  C21316456   2.297   1.649   7.441 -0.2810  0.3347 -0.4154
  149SAPE  H13R16457   2.287   1.585   7.350  0.0056 -0.4491  0.0931
  149SAPE  H13S16458   2.358   1.596   7.517  2.7298  1.0557 -2.1641
  149SAPE  C21416459   2.360   1.778   7.392  0.0052  0.3374  0.6064
  149SAPE  H14R16460   2.308   1.817   7.303 -1.3344 -1.9098  0.3225
  149SAPE  C21516461   2.472   1.832   7.440  0.0953  0.2137 -0.2225
  149SAPE  H15R16462   2.513   1.920   7.389 -1.5449  0.6922 -0.7684
  149SAPE  C21616463   2.555   1.773   7.553 -0.3237  0.2505  0.0733
  149SAPE  H16R16464   2.661   1.792   7.524 -0.2893 -0.9570 -0.6719
  149SAPE  H16S16465   2.549   1.662   7.548  0.7330  0.2159 -0.9033
  149SAPE  C21716466   2.540   1.835   7.699  0.6746  0.6464 -1.2596
  149SAPE  H17R16467   2.568   1.942   7.684  1.1106  0.7724  0.2863
  149SAPE  H17S16468   2.628   1.786   7.746 -0.5234 -2.1570 -1.7547
  149SAPE  C21816469   2.402   1.807   7.755  0.8774 -0.4495 -0.5091
  149SAPE  H18R16470   2.410   1.702   7.791  3.1757 -0.0641  0.3116
  149SAPE  H18S16471   2.330   1.798   7.671 -1.5848  1.2112  1.2984
  149SAPE  C21916472   2.346   1.905   7.864 -0.2156  0.3167 -0.4091
  149SAPE  H19R16473   2.415   1.907   7.951 -2.4272  0.6156  1.4366
  149SAPE  H19S16474   2.247   1.864   7.894 -0.2676  0.8050  0.0917
  149SAPE  C22016475   2.326   2.052   7.817 -0.3479  0.3951  0.3016
  149SAPE  H20R16476   2.419   2.083   7.765 -1.2777  1.2738 -0.8775
  149SAPE  H20S16477   2.310   2.129   7.896  0.5062  0.6872  0.2094
  149SAPE  H20T16478   2.234   2.063   7.757 -0.0077 -0.6659 -0.4317
  149SAPE   C3316479   0.853   1.549   7.120  0.4477 -0.0367  0.0955
  149SAPE   H3X16480   0.799   1.503   7.205 -0.6337 -0.4339 -0.7818
  149SAPE   H3Y16481   0.768   1.590   7.061  0.1616  0.7176  1.0088
  149SAPE   C3416482   0.946   1.650   7.178  0.3754 -0.3528  0.0966
  149SAPE   H4X16483   0.976   1.728   7.105 -0.0029  0.1224  0.4412
  149SAPE   H4Y16484   1.030   1.586   7.214  0.1003  0.2427  1.8739
  149SAPE   C3516485   0.891   1.713   7.310  0.2739  0.1671 -0.2724
  149SAPE   H5X16486   0.837   1.637   7.370  0.2381 -0.7312 -1.3834
  149SAPE   H5Y16487   0.822   1.793   7.275  0.0840  0.2798  0.3573
  149SAPE   C3616488   1.002   1.782   7.393 -0.2262 -0.4227  0.5896
  149SAPE   H6X16489   1.015   1.876   7.335 -1.6685 -0.5917 -0.0634
  149SAPE   H6Y16490   1.095   1.725   7.413  1.5332  1.4143 -1.7325
  149SAPE   C3716491   0.955   1.846   7.527 -0.4008 -0.4089  0.1656
  149SAPE   H7X16492   1.040   1.913   7.554 -1.4871  1.1357 -0.0966
  149SAPE   H7Y16493   0.943   1.769   7.606 -0.9837 -0.9604 -0.4463
  149SAPE   C3816494   0.836   1.945   7.516  0.1688  0.6261  0.4055
  149SAPE   H8X16495   0.748   1.885   7.484  1.6265 -1.4115 -0.0135
  149SAPE   H8Y16496   0.853   2.025   7.441 -3.3218  1.7510  0.6325
  149SAPE   C3916497   0.810   2.037   7.642  0.4572 -0.3332  0.0070
  149SAPE   H9X16498   0.780   2.135   7.599 -1.8783 -1.6614 -1.6931
  149SAPE   H9Y16499   0.906   2.050   7.696  0.2379 -3.9809  1.6035
  149SAPE  C31016500   0.695   1.995   7.732  0.2499  0.3853 -0.6561
  149SAPE  H10X16501   0.600   2.019   7.679 -0.6717  0.0113  0.7725
  149SAPE  H10Y16502   0.688   2.060   7.822  0.7374 -0.6772  0.1781
  149SAPE  C31116503   0.707   1.853   7.771  0.1789 -0.2145  0.3190
  149SAPE  H11X16504   0.813   1.835   7.799  0.5580 -1.2827 -1.6559
  149SAPE  H11Y16505   0.688   1.779   7.690  3.2090  2.9091 -3.6755
  149SAPE  C31216506   0.615   1.825   7.890  0.2226  0.8697 -0.5639
  149SAPE  H12X16507   0.615   1.714   7.903 -0.6989  1.0508  1.2411
  149SAPE  H12Y16508   0.514   1.869   7.878 -0.5794 -0.7571 -0.1748
  149SAPE  C31316509   0.673   1.876   8.025  0.2086  0.0004 -0.1940
  149SAPE  H13X16510   0.682   1.987   8.020  1.2291 -0.1237 -2.0988
  149SAPE  H13Y16511   0.773   1.827   8.030 -0.2053 -1.0426 -1.6350
  149SAPE  C31416512   0.595   1.837   8.146 -0.5837 -0.4563  0.2989
  149SAPE  H14X16513   0.603   1.726   8.150 -3.0735 -0.6561  2.3360
  149SAPE  H14Y16514   0.486   1.855   8.135 -0.7399 -0.9005  1.0246
  149SAPE  C31516515   0.652   1.909   8.262 -0.4111 -0.1982 -0.1648
  149SAPE  H15X16516   0.660   2.017   8.235 -0.1949 -0.0957  0.2781
  149SAPE  H15Y16517   0.752   1.861   8.264 -0.9939 -1.4684  1.7439
  149SAPE  C31616518   0.579   1.885   8.391 -0.3177 -0.2441 -0.0847
  149SAPE  H16X16519   0.582   1.778   8.419 -2.1166  0.2330  2.2982
  149SAPE  H16Y16520   0.474   1.916   8.372  0.8685  2.6903 -2.6754
  149SAPE  C31716521   0.641   1.961   8.509 -0.1632  1.0023 -0.0271
  149SAPE  H17X16522   0.749   1.932   8.511 -0.3613 -0.2442 -2.5465
  149SAPE  H17Y16523   0.582   1.907   8.586  0.1355 -0.5641 -0.8379
  149SAPE  C31816524   0.624   2.108   8.519  0.1405 -0.2118 -0.5146
  149SAPE  H18X16525   0.516   2.128   8.532  0.2644  1.0723 -1.3398
  149SAPE  H18Y16526   0.659   2.160   8.427 -1.9412  1.3407 -0.4849
  149SAPE  H18Z16527   0.675   2.144   8.611 -1.9023 -1.8308  1.3445
  150SAPE     N16528   6.237   2.683   6.094  0.4016 -0.5319  0.3960
  150SAPE   HN116529   6.322   2.722   6.049 -0.2951  1.1430  0.4527
  150SAPE   HN216530   6.210   2.600   6.037 -0.7575  1.7126 -2.6363
  150SAPE   HN316531   6.166   2.757   6.073  1.8522  0.1561 -2.8683
  150SAPE   C1216532   6.238   2.654   6.239  0.3924 -0.1071  0.0901
  150SAPE  H12A16533   6.255   2.752   6.289 -1.3052  0.7265 -0.8644
  150SAPE  H12B16534   6.324   2.590   6.268  0.0945 -1.3581 -1.6686
  150SAPE   C1116535   6.101   2.597   6.282  0.0939  0.3637  0.0913
  150SAPE  H11A16536   6.021   2.671   6.258  1.1258  1.1457 -1.0249
  150SAPE  H11B16537   6.121   2.576   6.389  0.7589 -5.0196 -0.7987
  150SAPE     P16538   5.947   2.398   6.248  0.2489  0.3339  0.1187
  150SAPE   O1316539   5.830   2.483   6.217  0.2110 -0.0523 -1.1895
  150SAPE   O1416540   5.958   2.266   6.177  0.2491 -0.3032 -0.5294
  150SAPE   O1216541   6.073   2.474   6.222  0.1338  0.5666 -0.4766
  150SAPE   O1116542   5.964   2.363   6.404  0.5729  0.0709 -0.5450
  150SAPE    C116543   6.079   2.291   6.441  0.1323  0.5686  0.0807
  150SAPE    HA16544   6.119   2.227   6.361  3.0701  1.9877  0.2907
  150SAPE    HB16545   6.164   2.354   6.474 -0.0385  2.4931 -2.7766
  150SAPE    C216546   6.053   2.208   6.570 -0.7027 -0.2413 -0.1022
  150SAPE    HS16547   6.056   2.278   6.656 -1.2343  0.6483 -0.7953
  150SAPE   O2116548   6.145   2.092   6.584 -0.1713 -0.2092 -0.4630
  150SAPE   C2116549   6.259   2.124   6.650 -0.0118 -0.3216  0.1627
  150SAPE   O2216550   6.291   2.236   6.681  0.4304  1.0112  0.1117
  150SAPE   C2216551   6.348   2.003   6.653 -0.9086 -0.3710 -0.4165
  150SAPE   H2R16552   6.278   1.918   6.665 -1.9623  0.4443 -0.6743
  150SAPE   H2S16553   6.401   1.999   6.556  1.0218 -1.5074  0.6131
  150SAPE    C316554   5.912   2.148   6.570 -0.0719  0.2943 -0.7033
  150SAPE    HX16555   5.890   2.090   6.478  3.7298  0.8167 -2.1037
  150SAPE    HY16556   5.833   2.227   6.572 -1.4741 -1.0763  0.9563
  150SAPE   O3116557   5.884   2.076   6.690  0.4422  0.0261 -0.2755
  150SAPE   C3116558   5.887   1.943   6.682 -0.1238 -0.2790 -0.8896
  150SAPE   O3216559   5.900   1.878   6.577 -0.0554  0.2076  0.4942
  150SAPE   C3216560   5.872   1.886   6.823 -0.5792  0.0763 -0.1850
  150SAPE   H2X16561   5.853   1.778   6.803 -0.9553  0.0939  0.0670
  150SAPE   H2Y16562   5.783   1.929   6.873 -0.9558 -2.4438  1.5010
  150SAPE   C2316563   6.465   1.994   6.750 -0.4234  0.0923 -0.2250
  150SAPE   H3R16564   6.525   2.088   6.752  0.3031 -0.3770  1.4206
  150SAPE   H3S16565   6.534   1.914   6.717 -0.5095 -0.5393  1.0828
  150SAPE   C2416566   6.419   1.955   6.891  0.0787  0.6936  0.3090
  150SAPE   H4R16567   6.341   2.030   6.917  1.3974  1.7138  1.4901
  150SAPE   H4S16568   6.504   1.983   6.957  0.7121  0.5488 -0.4278
  150SAPE   C2516569   6.372   1.820   6.913  0.0419 -0.4407  0.8521
  150SAPE   H5R16570   6.319   1.777   6.827  1.4961 -0.9137  0.1539
  150SAPE   C2616571   6.381   1.745   7.024 -0.7951  0.8419 -1.5417
  150SAPE   H6R16572   6.358   1.637   7.021  0.6971  0.5124 -1.9327
  150SAPE   C2716573   6.442   1.779   7.160  0.1540 -0.2725  0.1862
  150SAPE   H7R16574   6.395   1.877   7.185  0.1481 -0.0972 -0.4910
  150SAPE   H7S16575   6.547   1.802   7.131 -0.9417  1.0373 -3.2163
  150SAPE   C2816576   6.424   1.671   7.263  0.1867 -0.2504 -0.7576
  150SAPE   H8R16577   6.435   1.564   7.241  0.7773 -0.4300  0.3342
  150SAPE   C2916578   6.380   1.704   7.380  0.6385  0.1325  0.1232
  150SAPE   H9R16579   6.368   1.615   7.444  0.9669  0.9115  1.3002
  150SAPE  C21016580   6.342   1.839   7.442  0.2674  0.7819  0.0002
  150SAPE  H10R16581   6.319   1.914   7.363  0.6049 -0.7318 -1.6148
  150SAPE  H10S16582   6.428   1.878   7.500  1.5289  2.3037 -2.7196
  150SAPE  C21116583   6.226   1.809   7.534  0.7900 -0.0954  0.2381
  150SAPE  H11R16584   6.131   1.858   7.508  0.9294  1.4498  2.3066
  150SAPE  C21216585   6.219   1.747   7.655  0.0103  0.9553  0.3569
  150SAPE  H12R16586   6.122   1.734   7.706 -0.1652 -3.5965 -0.7257
  150SAPE  C21316587   6.335   1.687   7.734 -0.1612  0.2550 -0.1475
  150SAPE  H13R16588   6.431   1.685   7.680 -0.1477 -1.5970 -0.1185
  150SAPE  H13S16589   6.316   1.583   7.770 -0.6850  0.9614  1.7311
  150SAPE  C21416590   6.347   1.768   7.867  0.6680 -0.6792 -0.3376
  150SAPE  H14R16591   6.351   1.878   7.867  0.5386 -0.6751 -0.7809
  150SAPE  C21516592   6.368   1.717   7.995  0.3266 -0.0662  0.1359
  150SAPE  H15R16593   6.374   1.783   8.083 -0.4477  0.1995 -0.0051
  150SAPE  C21616594   6.391   1.573   8.031 -0.6965 -0.3139  0.6171
  150SAPE  H16R16595   6.395   1.513   7.938  0.9691  0.3155  0.2676
  150SAPE  H16S16596   6.297   1.544   8.084 -1.9122  0.0239 -1.2456
  150SAPE  C21716597   6.524   1.556   8.112 -0.7813 -0.4807 -1.0097
  150SAPE  H17R16598   6.600   1.635   8.096  0.7669 -1.0134  2.5344
  150SAPE  H17S16599   6.569   1.465   8.066  3.1015  2.0521 -2.7336
  150SAPE  C21816600   6.508   1.537   8.263 -0.3017  0.4127 -0.9214
  150SAPE  H18R16601   6.455   1.441   8.281  1.0231  0.1549  2.1685
  150SAPE  H18S16602   6.425   1.603   8.298 -2.4659 -2.9994  0.9590
  150SAPE  C21916603   6.631   1.546   8.341 -0.2878 -0.4473  0.2293
  150SAPE  H19R16604   6.601   1.540   8.448 -0.5486  1.6584  0.3198
  150SAPE  H19S16605   6.691   1.640   8.333  1.1879 -1.2722  1.2231
  150SAPE  C22016606   6.725   1.434   8.306 -0.1093  0.5001  0.5223
  150SAPE  H20R16607   6.812   1.414   8.371 -0.2523 -1.9142  0.0922
  150SAPE  H20S16608   6.757   1.438   8.200 -3.2552  0.3985 -0.5604
  150SAPE  H20T16609   6.665   1.341   8.318  1.5988 -0.8988 -1.1561
  150SAPE   C3316610   6.006   1.904   6.905 -0.2459  0.2247 -0.3837
  150SAPE   H3X16611   6.021   2.011   6.932 -1.0734  1.0992 -3.0480
  150SAPE   H3Y16612   6.087   1.862   6.843  0.1713 -2.0000  1.5186
  150SAPE   C3416613   6.006   1.820   7.038  0.2866  0.0416  0.5992
  150SAPE   H4X16614   6.115   1.811   7.057  0.4517 -1.4374 -0.8492
  150SAPE   H4Y16615   5.982   1.716   7.008  3.3034 -0.0274 -2.1717
  150SAPE   C3516616   5.927   1.883   7.146  0.3521 -0.4977  0.3802
  150SAPE   H5X16617   5.819   1.871   7.123 -0.1351  0.6661  1.9414
  150SAPE   H5Y16618   5.945   1.990   7.168 -2.4311 -0.1624  1.4192
  150SAPE   C3616619   5.929   1.804   7.284  0.4277  0.0480 -0.3566
  150SAPE   H6X16620   6.033   1.780   7.315 -0.0185  0.2378  1.3999
  150SAPE   H6Y16621   5.882   1.708   7.255  1.0107  0.5316 -3.1033
  150SAPE   C3716622   5.845   1.866   7.395 -0.4331 -0.0264  0.1409
  150SAPE   H7X16623   5.741   1.897   7.372 -1.0286 -1.8792  0.2230
  150SAPE   H7Y16624   5.900   1.959   7.422 -0.8956  0.2737  0.0634
  150SAPE   C3816625   5.846   1.784   7.519  0.0160  0.3036 -0.1003
  150SAPE   H8X16626   5.943   1.731   7.532 -0.1187 -0.3228 -1.4877
  150SAPE   H8Y16627   5.770   1.704   7.512  0.7072 -0.2967 -1.0302
  150SAPE   C3916628   5.791   1.866   7.637 -0.4544 -0.0990 -0.7078
  150SAPE   H9X16629   5.699   1.906   7.591 -0.2554 -0.3050 -1.2912
  150SAPE   H9Y16630   5.858   1.954   7.652 -0.1720  0.2423 -3.5555
  150SAPE  C31016631   5.770   1.782   7.772 -0.1330 -0.2595  0.1943
  150SAPE  H10X16632   5.694   1.704   7.751  0.3156 -0.0197 -2.8067
  150SAPE  H10Y16633   5.720   1.842   7.851 -1.6402 -2.7217  1.2268
  150SAPE  C31116634   5.895   1.729   7.821 -0.7664 -0.3244  0.4742
  150SAPE  H11X16635   5.972   1.808   7.833 -0.0699 -0.9002 -0.1623
  150SAPE  H11Y16636   5.925   1.655   7.744 -0.8143 -0.6563  0.7737
  150SAPE  C31216637   5.891   1.657   7.953  0.4642 -0.3040 -0.0664
  150SAPE  H12X16638   5.983   1.595   7.965  0.4178 -0.1101  1.4799
  150SAPE  H12Y16639   5.806   1.586   7.949  0.1486  0.1169 -1.2283
  150SAPE  C31316640   5.872   1.737   8.086 -0.5264  0.8513 -1.1026
  150SAPE  H13X16641   5.794   1.815   8.067  0.9993  3.3584  1.9531
  150SAPE  H13Y16642   5.968   1.788   8.110  0.4976 -1.2922 -0.4864
  150SAPE  C31416643   5.828   1.650   8.200 -0.3059 -0.1150  0.0860
  150SAPE  H14X16644   5.900   1.566   8.211 -1.8807 -1.8722 -2.0931
  150SAPE  H14Y16645   5.729   1.604   8.182 -1.0619  1.7396 -0.7720
  150SAPE  C31516646   5.820   1.714   8.339  0.3715  0.2875  0.1091
  150SAPE  H15X16647   5.776   1.813   8.319 -0.9179 -0.2246  0.3118
  150SAPE  H15Y16648   5.923   1.733   8.377  0.8231 -2.7048  0.6618
  150SAPE  C31616649   5.741   1.620   8.434 -0.5108 -0.3003 -0.1122
  150SAPE  H16X16650   5.810   1.541   8.473 -0.5560 -0.5125 -0.4663
  150SAPE  H16Y16651   5.657   1.572   8.381 -0.2799  0.5506 -1.2863
  150SAPE  C31716652   5.693   1.686   8.563 -0.0982  1.0171 -0.3602
  150SAPE  H17X16653   5.787   1.727   8.608  1.8405 -2.0378 -1.2572
  150SAPE  H17Y16654   5.662   1.603   8.630 -0.6292  0.4177 -1.3290
  150SAPE  C31816655   5.575   1.785   8.543  0.0404  0.1839 -0.5793
  150SAPE  H18X16656   5.619   1.862   8.476  0.9718  0.9069  0.8178
  150SAPE  H18Y16657   5.556   1.832   8.642  0.8829  0.8349 -0.7109
  150SAPE  H18Z16658   5.486   1.738   8.495 -0.9749  2.3094 -0.9353
  151SAPE     N16659   3.366   0.347   6.465 -1.0221  0.0805  0.1646
  151SAPE   HN116660   3.350   0.272   6.394 -1.2957 -0.6384  0.9720
  151SAPE   HN216661   3.339   0.439   6.424 -0.0606 -0.8890 -2.9362
  151SAPE   HN316662   3.466   0.346   6.491 -1.6550 -1.5622  2.9002
  151SAPE   C1216663   3.291   0.300   6.592  0.0688  0.4943  0.1298
  151SAPE  H12A16664   3.187   0.319   6.555  0.0899 -1.7447 -1.2444
  151SAPE  H12B16665   3.322   0.377   6.666 -0.1436 -0.3367  1.1024
  151SAPE   C1116666   3.315   0.152   6.642 -0.3149  0.5746  0.4902
  151SAPE  H11A16667   3.281   0.147   6.748  0.6174 -0.1321  0.7799
  151SAPE  H11B16668   3.425   0.136   6.634 -0.3976  0.5047 -0.6417
  151SAPE     P16669   3.315   0.003   6.421  0.3468 -0.2487 -0.3100
  151SAPE   O1316670   3.249  -0.124   6.376  0.3352 -0.0026  0.5009
  151SAPE   O1416671   3.314   0.119   6.323 -0.2204  0.1564 -0.9641
  151SAPE   O1216672   3.251   0.052   6.563  0.1437  0.6753 -0.3607
  151SAPE   O1116673   3.463  -0.024   6.468 -0.6550 -0.2049  0.4260
  151SAPE    C116674   3.514  -0.158   6.497 -0.2578 -0.1463 -0.4446
  151SAPE    HA16675   3.431  -0.232   6.497 -1.1339  0.8138 -0.5577
  151SAPE    HB16676   3.578  -0.197   6.414  1.4855 -1.2895  1.3359
  151SAPE    C216677   3.587  -0.145   6.635  0.1658 -0.6575 -0.1632
  151SAPE    HS16678   3.639  -0.241   6.656  1.5913 -0.1289 -1.1375
  151SAPE   O2116679   3.487  -0.105   6.733  0.0422 -0.4265  0.4989
  151SAPE   C2116680   3.425  -0.208   6.784  0.4262  0.2622 -0.7348
  151SAPE   O2216681   3.446  -0.323   6.762  0.3045 -0.0338  0.1427
  151SAPE   C2216682   3.307  -0.159   6.875  0.1971  0.3773 -0.6008
  151SAPE   H2R16683   3.246  -0.083   6.821 -0.6879  1.5523  1.9175
  151SAPE   H2S16684   3.243  -0.243   6.907  0.8099  0.0842 -0.1212
  151SAPE    C316685   3.696  -0.038   6.631  0.3669 -0.4054  0.6958
  151SAPE    HX16686   3.637   0.053   6.605  0.5643 -0.5393 -0.2620
  151SAPE    HY16687   3.770  -0.074   6.556 -0.3082 -0.8655  0.2452
  151SAPE   O3116688   3.760  -0.027   6.755 -0.2819  0.4732  0.1493
  151SAPE   C3116689   3.752   0.088   6.823 -0.6336 -0.3400 -0.0233
  151SAPE   O3216690   3.697   0.188   6.789 -0.9191  0.1187 -0.0067
  151SAPE   C3216691   3.851   0.077   6.941 -0.0319  0.5100 -0.3982
  151SAPE   H2X16692   3.872   0.177   6.985  1.3012 -0.9858  2.7061
  151SAPE   H2Y16693   3.948   0.043   6.899  0.4634  0.6100  0.6487
  151SAPE   C2316694   3.364  -0.086   7.000 -0.7075 -0.1318 -0.3334
  151SAPE   H3R16695   3.275  -0.041   7.049 -0.0313 -1.9814  2.8427
  151SAPE   H3S16696   3.430  -0.018   6.943 -0.5752 -1.3614 -1.7212
  151SAPE   C2416697   3.435  -0.176   7.100 -0.4238  0.4701  0.2142
  151SAPE   H4R16698   3.538  -0.201   7.066 -0.3146  1.4361 -0.1717
  151SAPE   H4S16699   3.383  -0.274   7.111 -0.2020  0.4046  0.7388
  151SAPE   C2516700   3.437  -0.125   7.240 -0.5911  0.1854 -0.7452
  151SAPE   H5R16701   3.444  -0.015   7.252  0.4918  0.1289 -0.7575
  151SAPE   C2616702   3.455  -0.194   7.350  0.7049 -0.3889 -0.2487
  151SAPE   H6R16703   3.454  -0.144   7.448 -1.0889 -0.2319 -0.3206
  151SAPE   C2716704   3.471  -0.343   7.375 -0.0559 -0.0436  0.6925
  151SAPE   H7R16705   3.454  -0.401   7.282  2.1749 -0.4962  0.5123
  151SAPE   H7S16706   3.388  -0.373   7.443 -0.3996  1.3446  0.9238
  151SAPE   C2816707   3.609  -0.369   7.428  0.0984  0.2634 -0.7173
  151SAPE   H8R16708   3.688  -0.332   7.361 -0.7770  4.0013  0.0866
  151SAPE   C2916709   3.640  -0.433   7.545  0.7687 -0.3578 -0.4951
  151SAPE   H9R16710   3.744  -0.451   7.578  0.1984 -0.8685  1.1187
  151SAPE  C21016711   3.539  -0.475   7.640 -0.2057 -0.0205  1.0277
  151SAPE  H10R16712   3.595  -0.544   7.707  0.4404  1.5606  2.1548
  151SAPE  H10S16713   3.453  -0.529   7.595 -2.2403  2.1908  2.0549
  151SAPE  C21116714   3.477  -0.362   7.723 -0.4357  0.0281 -0.5514
  151SAPE  H11R16715   3.472  -0.269   7.664 -1.3709  0.0289 -0.4958
  151SAPE  C21216716   3.416  -0.376   7.846  0.5328 -0.4834  0.4324
  151SAPE  H12R16717   3.376  -0.289   7.901  2.4347 -0.8459  2.5059
  151SAPE  C21316718   3.402  -0.511   7.915 -0.5384 -0.2584  0.3263
  151SAPE  H13R16719   3.489  -0.535   7.981 -0.3959 -1.2428 -0.2119
  151SAPE  H13S16720   3.395  -0.597   7.846 -0.0586 -0.5604  0.6447
  151SAPE  C21416721   3.282  -0.514   8.008 -0.1287  0.2139 -0.1031
  151SAPE  H14R16722   3.244  -0.416   8.039  0.6762  0.8425 -1.0608
  151SAPE  C21516723   3.226  -0.630   8.051  0.2012  0.4379 -1.1206
  151SAPE  H15R16724   3.133  -0.631   8.110  0.3154 -1.7168 -0.9007
  151SAPE  C21616725   3.273  -0.767   8.004 -0.3267 -0.7994 -0.2629
  151SAPE  H16R16726   3.380  -0.792   8.015 -0.8534 -3.4399 -0.3178
  151SAPE  H16S16727   3.250  -0.778   7.896 -0.8105  0.5185 -0.3072
  151SAPE  C21716728   3.206  -0.890   8.072  0.0508  0.7385 -0.2671
  151SAPE  H17R16729   3.244  -0.980   8.019  0.4030  2.2597 -2.7802
  151SAPE  H17S16730   3.095  -0.889   8.063 -0.0936  0.1078  1.1925
  151SAPE  C21816731   3.261  -0.894   8.214 -0.4361 -0.2306 -0.0078
  151SAPE  H18R16732   3.273  -0.790   8.250 -0.5302  0.4079 -1.7604
  151SAPE  H18S16733   3.366  -0.932   8.223  0.1002  0.4074 -2.6575
  151SAPE  C21916734   3.173  -0.971   8.310  0.0114  0.0047 -0.6586
  151SAPE  H19R16735   3.064  -0.955   8.305 -0.2190 -1.5427 -1.0130
  151SAPE  H19S16736   3.187  -0.945   8.417  0.3733  0.6914 -0.8637
  151SAPE  C22016737   3.184  -1.124   8.291 -0.5262 -0.3724  0.3663
  151SAPE  H20R16738   3.122  -1.172   8.370  2.0083 -0.8564  2.1829
  151SAPE  H20S16739   3.132  -1.134   8.193 -0.9179  0.4560  0.4811
  151SAPE  H20T16740   3.287  -1.167   8.290 -0.8596 -1.2125  1.0949
  151SAPE   C3316741   3.800  -0.015   7.058 -0.8668  0.4877 -0.5283
  151SAPE   H3X16742   3.797  -0.122   7.029  0.5417 -1.1828  4.6035
  151SAPE   H3Y16743   3.697   0.019   7.079 -0.9133 -1.1517  2.3466
  151SAPE   C3416744   3.883  -0.009   7.186  0.4814 -0.1267  0.3109
  151SAPE   H4X16745   3.895   0.096   7.219  1.2698 -0.3821  0.8667
  151SAPE   H4Y16746   3.984  -0.049   7.163  0.6541  0.2421  0.4164
  151SAPE   C3516747   3.816  -0.080   7.299 -0.2413  0.3084 -0.5871
  151SAPE   H5X16748   3.789  -0.182   7.263  1.0091 -0.0294 -0.6441
  151SAPE   H5Y16749   3.720  -0.033   7.329  0.5933  1.3391  0.5748
  151SAPE   C3616750   3.903  -0.101   7.424  0.3628  0.0966 -0.7168
  151SAPE   H6X16751   4.001  -0.148   7.400  0.5547 -1.0670  1.9909
  151SAPE   H6Y16752   3.844  -0.168   7.490  1.4510 -0.7213 -0.5500
  151SAPE   C3716753   3.920   0.032   7.507  0.2723 -0.4418 -0.3171
  151SAPE   H7X16754   3.824   0.063   7.555  1.0452  0.2523  0.8381
  151SAPE   H7Y16755   3.928   0.111   7.429 -1.6228 -1.0659 -1.1901
  151SAPE   C3816756   4.035   0.034   7.608 -0.1541  0.5347 -0.1851
  151SAPE   H8X16757   4.037   0.132   7.662  3.7178  0.8035 -0.5114
  151SAPE   H8Y16758   4.132   0.019   7.556 -0.1345 -1.1985  0.2881
  151SAPE   C3916759   4.031  -0.079   7.709 -0.0605 -0.3937 -0.3488
  151SAPE   H9X16760   4.126  -0.078   7.767 -0.6362 -1.3281  0.6528
  151SAPE   H9Y16761   4.032  -0.180   7.664 -1.7381 -0.3638 -0.5067
  151SAPE  C31016762   3.921  -0.070   7.815  0.5745  0.3193  0.5746
  151SAPE  H10X16763   3.817  -0.087   7.779  0.7362  2.6503 -1.1500
  151SAPE  H10Y16764   3.920   0.029   7.865  3.0422 -0.1972  1.8057
  151SAPE  C31116765   3.939  -0.182   7.916  0.0652  0.0427  0.2262
  151SAPE  H11X16766   4.044  -0.191   7.949  0.1503 -0.4083 -0.1628
  151SAPE  H11Y16767   3.915  -0.283   7.876  3.5629 -1.7799  2.2532
  151SAPE  C31216768   3.859  -0.156   8.043  0.0940  0.8350 -0.1283
  151SAPE  H12X16769   3.750  -0.164   8.022 -0.0007  0.7571  0.3793
  151SAPE  H12Y16770   3.890  -0.053   8.071  0.9943  0.4063  0.5065
  151SAPE  C31316771   3.891  -0.265   8.146 -0.4121 -0.3028 -0.8294
  151SAPE  H13X16772   3.874  -0.222   8.247  0.2800 -2.7116  0.3862
  151SAPE  H13Y16773   3.998  -0.289   8.127 -0.1894 -0.1199  0.1751
  151SAPE  C31416774   3.809  -0.387   8.133  0.2359 -0.7880  0.1029
  151SAPE  H14X16775   3.845  -0.471   8.196 -0.9135 -1.2180  0.2117
  151SAPE  H14Y16776   3.820  -0.415   8.026  0.6702 -2.3533  0.5356
  151SAPE  C31516777   3.662  -0.374   8.173  0.3530 -0.1632  1.2961
  151SAPE  H15X16778   3.609  -0.466   8.139  3.7605 -1.1201 -2.0458
  151SAPE  H15Y16779   3.605  -0.307   8.105  1.0051 -0.1381  0.7728
  151SAPE  C31616780   3.627  -0.311   8.303  0.1255  0.0916 -0.2701
  151SAPE  H16X16781   3.650  -0.202   8.295  0.1986  0.0081 -1.4575
  151SAPE  H16Y16782   3.699  -0.357   8.373  0.9223  0.5797 -0.7602
  151SAPE  C31716783   3.482  -0.329   8.355  0.5755  0.5402  0.1755
  151SAPE  H17X16784   3.417  -0.281   8.279 -0.9389 -0.6120  0.6982
  151SAPE  H17Y16785   3.471  -0.280   8.453 -0.5817  0.0524  0.3095
  151SAPE  C31816786   3.434  -0.472   8.378 -0.0180 -0.5182 -0.7648
  151SAPE  H18X16787   3.505  -0.539   8.431 -0.6903  0.5540  1.6019
  151SAPE  H18Y16788   3.425  -0.530   8.283  1.2482 -0.0827 -1.1783
  151SAPE  H18Z16789   3.345  -0.470   8.444  0.6906  0.4027  0.2049
  152SAPE     N16790   0.479   2.600   6.107  0.0120 -0.3614  0.1172
  152SAPE   HN116791   0.525   2.675   6.163 -0.3929 -0.2680  0.3326
  152SAPE   HN216792   0.425   2.541   6.174 -1.0793  1.0105  0.4899
  152SAPE   HN316793   0.557   2.554   6.057  0.0138  0.8331 -1.0302
  152SAPE   C1216794   0.384   2.658   6.006  0.4908  0.1547  0.4767
  152SAPE  H12A16795   0.443   2.697   5.920 -0.5313  1.4413  0.3215
  152SAPE  H12B16796   0.332   2.740   6.060  0.4623  0.2684  0.2801
  152SAPE   C1116797   0.282   2.546   5.960 -0.0015  0.7939  0.0320
  152SAPE  H11A16798   0.328   2.446   5.945  0.2641  0.6798  1.5365
  152SAPE  H11B16799   0.232   2.574   5.864 -2.1489 -1.8989  0.2524
  152SAPE     P16800   0.032   2.511   6.052  0.0314  0.0904  0.0737
  152SAPE   O1316801  -0.035   2.648   6.047 -0.5114  0.5929  0.1154
  152SAPE   O1416802   0.007   2.434   5.932 -0.2217 -0.0718  0.9949
  152SAPE   O1216803   0.189   2.536   6.071 -0.3101  0.0741  0.5280
  152SAPE   O1116804  -0.017   2.426   6.174 -0.1444 -0.3611  0.5703
  152SAPE    C116805   0.043   2.309   6.232 -0.2707 -0.1170 -0.0739
  152SAPE    HA16806  -0.025   2.220   6.233  0.3618 -0.6236 -0.7710
  152SAPE    HB16807   0.126   2.261   6.175 -0.7520 -1.0016 -0.0534
  152SAPE    C216808   0.084   2.328   6.384  0.5108  0.0967  0.1128
  152SAPE    HS16809  -0.006   2.332   6.448 -0.3321  1.2773 -1.0956
  152SAPE   O2116810   0.170   2.438   6.384 -0.4946  0.2547 -0.2212
  152SAPE   C2116811   0.107   2.552   6.434 -0.2255 -0.1473 -0.4003
  152SAPE   O2216812  -0.013   2.544   6.462 -0.1136  0.1437  0.6305
  152SAPE   C2216813   0.194   2.663   6.457 -0.4673  0.1768 -0.1920
  152SAPE   H2R16814   0.276   2.676   6.384 -0.0414  0.6538  0.3533
  152SAPE   H2S16815   0.136   2.758   6.449 -0.8930  0.1111  1.5419
  152SAPE    C316816   0.170   2.212   6.436 -0.2056  0.1417  0.1572
  152SAPE    HX16817   0.271   2.218   6.390 -0.0253 -2.7957 -0.0163
  152SAPE    HY16818   0.121   2.120   6.398  0.5587  0.0216 -0.5610
  152SAPE   O3116819   0.186   2.210   6.587  0.0163 -0.2811 -0.3506
  152SAPE   C3116820   0.088   2.162   6.658  0.4073 -0.2961 -1.0041
  152SAPE   O3216821  -0.012   2.101   6.622  0.0323 -0.2261 -0.3289
  152SAPE   C3216822   0.124   2.169   6.811  0.0857  1.2018  0.8608
  152SAPE   H2X16823   0.144   2.276   6.834  0.7954  0.8821  1.7975
  152SAPE   H2Y16824   0.216   2.110   6.833 -1.2348 -1.4272 -0.3110
  152SAPE   C2316825   0.262   2.652   6.600 -0.0693 -0.3302  0.0942
  152SAPE   H3R16826   0.333   2.735   6.624 -0.6091 -0.4437  2.3542
  152SAPE   H3S16827   0.305   2.550   6.604  0.1204 -0.3684 -1.9362
  152SAPE   C2416828   0.147   2.672   6.711 -0.6427 -0.3547  0.2395
  152SAPE   H4R16829   0.098   2.573   6.717 -0.5387 -0.5203 -1.1693
  152SAPE   H4S16830   0.073   2.745   6.671 -0.6276 -1.4832 -2.0314
  152SAPE   C2516831   0.209   2.697   6.844  0.2522 -0.8733 -0.0937
  152SAPE   H5R16832   0.319   2.710   6.841  0.1896 -0.0429  0.7624
  152SAPE   C2616833   0.131   2.727   6.953 -1.2701 -0.1986  0.1190
  152SAPE   H6R16834   0.186   2.744   7.047 -0.7286  1.2453 -0.4276
  152SAPE   C2716835  -0.019   2.726   6.959 -0.3721  0.3908  0.3019
  152SAPE   H7R16836  -0.058   2.785   6.873 -1.5851 -0.8265 -0.0289
  152SAPE   H7S16837  -0.057   2.781   7.047  0.0320 -1.0868  1.4312
  152SAPE   C2816838  -0.092   2.597   6.947  0.1308 -0.0774 -0.1457
  152SAPE   H8R16839  -0.164   2.599   6.863 -0.7555  0.2295  0.6015
  152SAPE   C2916840  -0.086   2.499   7.038  0.4335 -0.3065 -0.3544
  152SAPE   H9R16841  -0.138   2.404   7.016  0.1546 -0.0445 -0.8434
  152SAPE  C21016842   0.010   2.496   7.160 -0.0347  0.3204  0.1350
  152SAPE  H10R16843   0.029   2.591   7.213  3.3420  0.4928 -1.1558
  152SAPE  H10S16844   0.108   2.447   7.142  0.1174  0.7139 -0.1200
  152SAPE  C21116845  -0.049   2.412   7.277 -0.6058 -0.1869  0.0768
  152SAPE  H11R16846  -0.086   2.313   7.248  0.9674 -1.3689  1.8800
  152SAPE  C21216847  -0.055   2.433   7.413  0.2493 -0.0999  0.7305
  152SAPE  H12R16848  -0.110   2.353   7.464  0.3134 -0.2317  0.5915
  152SAPE  C21316849   0.006   2.548   7.490 -0.3088 -0.1157  0.0812
  152SAPE  H13R16850  -0.073   2.611   7.536  2.5556  3.4765  0.5266
  152SAPE  H13S16851   0.067   2.607   7.419 -2.4224 -1.1466 -2.7573
  152SAPE  C21416852   0.090   2.493   7.614  0.2976 -0.2749 -0.7338
  152SAPE  H14R16853   0.103   2.385   7.629  0.5926 -0.0168  1.0658
  152SAPE  C21516854   0.150   2.573   7.702  0.3414  0.6156  0.0203
  152SAPE  H15R16855   0.205   2.514   7.777 -1.1737 -0.9697 -0.0444
  152SAPE  C21616856   0.155   2.718   7.703  0.2762  0.4795  0.0365
  152SAPE  H16R16857   0.056   2.763   7.682 -0.6559 -1.2759  0.4865
  152SAPE  H16S16858   0.230   2.758   7.631 -0.1322 -1.8217 -1.7744
  152SAPE  C21716859   0.176   2.768   7.848  0.2679 -0.1563 -0.1582
  152SAPE  H17R16860   0.105   2.723   7.919 -0.3764 -1.4906 -1.5867
  152SAPE  H17S16861   0.163   2.879   7.851  1.5175  0.0692 -1.5609
  152SAPE  C21816862   0.317   2.741   7.891 -0.7696 -0.1032 -0.5596
  152SAPE  H18R16863   0.386   2.787   7.817  0.4627  2.0776  1.7605
  152SAPE  H18S16864   0.332   2.631   7.894 -0.6230 -0.1518 -2.3499
  152SAPE  C21916865   0.349   2.806   8.026 -0.6002  0.0259 -0.4159
  152SAPE  H19R16866   0.289   2.749   8.101  1.3899 -0.6338  0.7364
  152SAPE  H19S16867   0.333   2.915   8.039 -1.3653 -0.1513  0.2616
  152SAPE  C22016868   0.487   2.775   8.063  0.1291  0.4761 -0.9226
  152SAPE  H20R16869   0.504   2.816   8.165 -0.0025  0.0761 -0.7370
  152SAPE  H20S16870   0.558   2.827   7.995  0.8869  0.3931 -0.2199
  152SAPE  H20T16871   0.504   2.665   8.065  0.4737  0.5331 -0.4551
  152SAPE   C3316872   0.012   2.110   6.900 -0.7337 -0.4841 -0.3081
  152SAPE   H3X16873   0.023   2.001   6.879  1.2623 -0.0173 -2.1079
  152SAPE   H3Y16874  -0.086   2.132   6.853 -1.1489 -1.5960  0.0293
  152SAPE   C3416875   0.031   2.132   7.048 -0.1584  0.1010  0.5375
  152SAPE   H4X16876   0.004   2.236   7.073  0.9018  0.2753  0.9867
  152SAPE   H4Y16877   0.137   2.109   7.070  0.0402 -1.0552 -1.3356
  152SAPE   C3516878  -0.060   2.029   7.119  0.5480  0.3144 -0.6441
  152SAPE   H5X16879  -0.053   1.925   7.081 -1.4348 -1.1469  2.6358
  152SAPE   H5Y16880  -0.166   2.060   7.112  1.0099  1.6410 -3.0633
  152SAPE   C3616881  -0.022   2.031   7.265  0.1814 -0.5064 -0.5267
  152SAPE   H6X16882  -0.004   2.135   7.302 -0.0210 -1.4247  2.3369
  152SAPE   H6Y16883   0.077   1.981   7.261 -0.6901 -2.2710 -1.3353
  152SAPE   C3716884  -0.109   1.955   7.360 -0.3735  0.2953  0.1578
  152SAPE   H7X16885  -0.130   1.854   7.318 -0.4345  0.7257 -0.8836
  152SAPE   H7Y16886  -0.214   1.991   7.375 -0.0129  0.8870  1.3981
  152SAPE   C3816887  -0.057   1.938   7.506 -0.3416 -0.2225  0.2460
  152SAPE   H8X16888   0.039   1.883   7.507  1.1099  2.1945  0.1088
  152SAPE   H8Y16889  -0.134   1.873   7.554 -1.5246  0.1825 -1.0284
  152SAPE   C3916890  -0.060   2.060   7.598 -0.0583 -0.3625  1.1503
  152SAPE   H9X16891  -0.130   2.135   7.556  0.3370  0.7363  2.3974
  152SAPE   H9Y16892   0.043   2.100   7.582  0.8986 -2.9222  0.2859
  152SAPE  C31016893  -0.082   2.026   7.742  0.3356 -0.9320 -0.1161
  152SAPE  H10X16894  -0.012   1.945   7.774  0.7796 -0.6867 -0.4622
  152SAPE  H10Y16895  -0.184   1.987   7.761 -0.0202 -0.0021 -0.0846
  152SAPE  C31116896  -0.067   2.154   7.828  0.8988  0.3633  0.3194
  152SAPE  H11X16897  -0.147   2.218   7.785 -0.8727 -1.8774  0.1108
  152SAPE  H11Y16898   0.030   2.203   7.803  0.5547  0.6205 -0.5503
  152SAPE  C31216899  -0.070   2.138   7.980  0.0598  0.7513  0.0398
  152SAPE  H12X16900  -0.048   2.237   8.027 -1.3125  0.0954  2.2369
  152SAPE  H12Y16901   0.005   2.070   8.025  0.2549 -1.3657 -3.2183
  152SAPE  C31316902  -0.217   2.107   8.022  0.7718 -0.4303 -0.1460
  152SAPE  H13X16903  -0.248   2.004   7.995 -0.3869 -0.6592  1.8390
  152SAPE  H13Y16904  -0.280   2.183   7.969 -0.8334  0.4398  2.7867
  152SAPE  C31416905  -0.247   2.147   8.171 -0.1938  0.2386  0.9531
  152SAPE  H14X16906  -0.355   2.126   8.186 -0.9642  0.5388 -3.0125
  152SAPE  H14Y16907  -0.216   2.252   8.187 -0.3802  0.7790 -1.8534
  152SAPE  C31516908  -0.176   2.057   8.281  0.6150  0.2186  0.2560
  152SAPE  H15X16909  -0.069   2.034   8.264  0.8992  0.9148  1.0134
  152SAPE  H15Y16910  -0.218   1.955   8.267  1.1317 -0.1454  1.2228
  152SAPE  C31616911  -0.204   2.098   8.425  0.4303 -0.6804 -0.5420
  152SAPE  H16X16912  -0.311   2.125   8.433  0.4735 -0.2274 -1.4196
  152SAPE  H16Y16913  -0.149   2.194   8.441  1.0069 -1.1804  0.5699
  152SAPE  C31716914  -0.147   2.012   8.536  0.1063 -0.3895 -0.3778
  152SAPE  H17X16915  -0.039   1.985   8.528 -0.3272 -2.8052  0.8135
  152SAPE  H17Y16916  -0.186   1.909   8.523  0.1311 -0.2977 -1.2066
  152SAPE  C31816917  -0.168   2.075   8.676 -0.7082  0.1672 -0.1038
  152SAPE  H18X16918  -0.144   1.998   8.753  0.5951 -0.7561 -1.3921
  152SAPE  H18Y16919  -0.278   2.076   8.695 -0.8569 -0.2064 -0.9197
  152SAPE  H18Z16920  -0.115   2.171   8.695 -0.4707  0.1570 -0.7235
  153SAPE     N16921   2.549   3.149   6.398  0.5251  0.0520  0.0453
  153SAPE   HN116922   2.552   3.253   6.389  0.9525  0.2506  2.0752
  153SAPE   HN216923   2.517   3.126   6.494 -1.7011 -2.1451 -1.0973
  153SAPE   HN316924   2.646   3.113   6.398  0.6504  0.2615  2.4664
  153SAPE   C1216925   2.473   3.081   6.277 -0.1399  0.1256  0.8121
  153SAPE  H12A16926   2.527   3.113   6.185 -1.7351  1.4199  0.2825
  153SAPE  H12B16927   2.372   3.127   6.274 -0.9806 -1.6733 -1.5873
  153SAPE   C1116928   2.466   2.929   6.287 -0.2003  0.0859  0.1879
  153SAPE  H11A16929   2.566   2.879   6.290  0.0505  0.4780 -1.0725
  153SAPE  H11B16930   2.427   2.887   6.192 -0.2169 -0.4807  0.4388
  153SAPE     P16931   2.328   2.748   6.414  0.0747  0.2382  0.1461
  153SAPE   O1316932   2.318   2.680   6.284 -0.0293 -0.1869 -0.5557
  153SAPE   O1416933   2.402   2.684   6.526  0.7129 -0.6192  0.5059
  153SAPE   O1216934   2.384   2.892   6.400  0.0043 -0.1534 -1.0546
  153SAPE   O1116935   2.175   2.772   6.460 -0.4500 -0.0552  0.3826
  153SAPE    C116936   2.097   2.880   6.407  0.0212  0.3579 -0.0340
  153SAPE    HA16937   2.133   2.915   6.308  1.4489 -0.3978  0.1880
  153SAPE    HB16938   1.998   2.841   6.376  0.1672  1.5715 -2.2338
  153SAPE    C216939   2.101   2.994   6.509  0.7311  0.0833 -0.0903
  153SAPE    HS16940   2.209   3.013   6.527  1.4140 -1.1459 -2.4121
  153SAPE   O2116941   2.027   2.959   6.632  0.4400  0.6259 -0.4148
  153SAPE   C2116942   2.105   2.961   6.742  0.5613  0.4497  0.3074
  153SAPE   O2216943   2.215   3.010   6.749  0.6574 -0.2545 -0.3548
  153SAPE   C2216944   2.033   2.897   6.862 -0.5526  0.3902 -0.3372
  153SAPE   H2R16945   1.969   2.815   6.824 -0.9906  0.1920  0.7918
  153SAPE   H2S16946   2.113   2.842   6.917 -1.5445 -0.8738 -0.1135
  153SAPE    C316947   2.041   3.118   6.443  0.1547  0.0494 -0.1903
  153SAPE    HX16948   1.945   3.095   6.392  0.0852  0.9931 -0.5128
  153SAPE    HY16949   2.108   3.147   6.359 -0.6841 -1.7755 -1.5646
  153SAPE   O3116950   2.012   3.213   6.547 -0.1644  0.4716 -0.0288
  153SAPE   C3116951   2.119   3.300   6.566 -0.2695 -0.7673  0.9247
  153SAPE   O3216952   2.214   3.306   6.493 -0.0714  0.1749  0.4636
  153SAPE   C3216953   2.089   3.382   6.693 -0.1137  0.5442 -0.0427
  153SAPE   H2X16954   1.988   3.346   6.723 -0.3005  1.5448  0.5961
  153SAPE   H2Y16955   2.073   3.487   6.661 -2.0302  0.7398  1.3769
  153SAPE   C2316956   1.978   2.998   6.960 -0.0041  0.0877 -0.0663
  153SAPE   H3R16957   1.902   2.959   7.031  1.3371  0.5944  1.7198
  153SAPE   H3S16958   1.915   3.068   6.901 -0.1046 -0.0822 -0.1645
  153SAPE   C2416959   2.090   3.055   7.049 -0.4818  0.4366 -0.7866
  153SAPE   H4R16960   2.175   3.083   6.983  0.9069 -0.4207  0.5743
  153SAPE   H4S16961   2.129   2.972   7.111 -1.0086  0.7338 -0.0437
  153SAPE   C2516962   2.042   3.183   7.117  0.0815  0.1065 -0.2975
  153SAPE   H5R16963   1.987   3.253   7.053 -1.5130 -3.2011 -2.8612
  153SAPE   C2616964   2.041   3.191   7.252 -0.2692 -0.5571 -0.0832
  153SAPE   H6R16965   2.011   3.284   7.304 -2.4490 -1.1986 -0.1102
  153SAPE   C2716966   2.076   3.101   7.362 -0.0666 -0.4970  0.2077
  153SAPE   H7R16967   2.100   3.000   7.322 -1.4630  0.0358 -2.2001
  153SAPE   H7S16968   1.989   3.092   7.430  0.4317  2.2793  1.3401
  153SAPE   C2816969   2.198   3.153   7.435 -0.3709 -0.1737 -1.0197
  153SAPE   H8R16970   2.271   3.211   7.378  0.7531 -0.8642 -0.3414
  153SAPE   C2916971   2.212   3.142   7.570  0.0732 -0.5494 -0.8235
  153SAPE   H9R16972   2.301   3.177   7.624 -0.8762 -1.0054  1.1438
  153SAPE  C21016973   2.130   3.069   7.675  0.1656  0.2944  0.2092
  153SAPE  H10R16974   2.203   3.002   7.727 -2.0728 -2.2933  0.2317
  153SAPE  H10S16975   2.058   2.996   7.633  4.4612 -4.6124  0.2261
  153SAPE  C21116976   2.070   3.165   7.773 -0.3376 -0.1092 -0.0508
  153SAPE  H11R16977   2.041   3.268   7.746 -2.0009 -0.2366  1.0796
  153SAPE  C21216978   2.006   3.132   7.886 -0.3645  0.3330 -0.3482
  153SAPE  H12R16979   1.952   3.203   7.951 -0.7781 -0.6052  0.3637
  153SAPE  C21316980   2.005   2.993   7.944 -0.1824  0.4548  0.3970
  153SAPE  H13R16981   2.091   2.980   8.014  0.3735 -1.9050 -0.6373
  153SAPE  H13S16982   2.028   2.912   7.872  0.3898  0.5160  0.5053
  153SAPE  C21416983   1.872   2.956   8.014  0.0153  0.2626  0.0486
  153SAPE  H14R16984   1.782   2.968   7.952  1.0068 -3.1070 -2.3279
  153SAPE  C21516985   1.854   2.904   8.139  0.1164 -0.1388  0.1112
  153SAPE  H15R16986   1.753   2.883   8.179  0.7136 -3.2338  0.2252
  153SAPE  C21616987   1.951   2.877   8.248 -0.3362  0.0083  0.2969
  153SAPE  H16R16988   2.046   2.877   8.191 -0.9066 -0.2862 -0.6669
  153SAPE  H16S16989   1.947   2.770   8.281 -0.4738  0.3347  1.3821
  153SAPE  C21716990   1.953   2.962   8.375  0.2500  0.1974 -0.2230
  153SAPE  H17R16991   1.890   2.905   8.446  0.6221 -1.7319 -1.3674
  153SAPE  H17S16992   1.916   3.066   8.358  1.4874  1.2012  2.6672
  153SAPE  C21816993   2.094   2.978   8.437  0.3336 -0.4982  0.8080
  153SAPE  H18R16994   2.146   3.058   8.380  0.1260 -1.5283 -0.8936
  153SAPE  H18S16995   2.153   2.886   8.419  0.8390 -0.7930  3.4848
  153SAPE  C21916996   2.091   3.001   8.581 -0.6790  0.2586 -0.4167
  153SAPE  H19R16997   2.057   2.906   8.629  1.1313 -1.1306 -1.7579
  153SAPE  H19S16998   2.028   3.090   8.603 -1.4138  0.2135 -2.1816
  153SAPE  C22016999   2.231   3.029   8.640  0.4986  0.8444  0.8671
  153SAPE  H20R17000   2.216   3.035   8.750  1.0701 -1.3352  1.1095
  153SAPE  H20S17001   2.277   3.123   8.603  2.2628 -0.1702  0.3466
  153SAPE  H20T17002   2.295   2.944   8.609 -1.2907 -0.5097  0.7329
  153SAPE   C3317003   2.200   3.376   6.799  0.3933 -0.8221  0.0045
  153SAPE   H3X17004   2.294   3.413   6.753  0.1714  0.9980  0.9238
  153SAPE   H3Y17005   2.229   3.275   6.833  0.4733 -0.1158  2.2256
  153SAPE   C3417006   2.165   3.459   6.927 -0.0111 -0.5127 -0.4244
  153SAPE   H4X17007   2.060   3.437   6.954 -0.0138  0.5105  0.4414
  153SAPE   H4Y17008   2.170   3.564   6.893 -0.9178  0.3592  2.0078
  153SAPE   C3517009   2.275   3.433   7.034  0.5643  0.4639  0.5163
  153SAPE   H5X17010   2.372   3.406   6.986  0.4768 -1.5785  1.3702
  153SAPE   H5Y17011   2.250   3.338   7.085 -0.1150  1.0819  1.3421
  153SAPE   C3617012   2.290   3.537   7.143 -0.2979  0.6463  0.9584
  153SAPE   H6X17013   2.342   3.616   7.084 -1.4350  0.7923  0.1173
  153SAPE   H6Y17014   2.355   3.489   7.219  1.6796 -0.7170 -1.4022
  153SAPE   C3717015   2.157   3.576   7.194  0.5743  0.2853  0.6598
  153SAPE   H7X17016   2.098   3.484   7.218 -1.0566  1.2177  0.3733
  153SAPE   H7Y17017   2.114   3.637   7.113 -0.6908 -1.7829 -0.3119
  153SAPE   C3817018   2.139   3.656   7.320 -0.0795  0.1016 -0.4085
  153SAPE   H8X17019   2.038   3.696   7.345  1.5064  2.8073  2.3388
  153SAPE   H8Y17020   2.202   3.746   7.302  0.0796 -0.4516 -3.1598
  153SAPE   C3917021   2.184   3.583   7.445  0.6701 -0.1896 -0.2174
  153SAPE   H9X17022   2.290   3.550   7.432  1.2488  1.0080  1.1525
  153SAPE   H9Y17023   2.126   3.489   7.457  1.3586 -0.3677  2.3139
  153SAPE  C31017024   2.160   3.661   7.579  0.0419 -0.3508 -0.1296
  153SAPE  H10X17025   2.053   3.693   7.575  0.5944  1.5614 -0.3294
  153SAPE  H10Y17026   2.224   3.751   7.572  3.5880 -2.7594 -1.4501
  153SAPE  C31117027   2.186   3.576   7.706  0.2778 -0.2262  0.6191
  153SAPE  H11X17028   2.293   3.550   7.693  1.0442  3.1835 -1.2478
  153SAPE  H11Y17029   2.118   3.489   7.712 -1.3758  1.0694  1.7894
  153SAPE  C31217030   2.172   3.654   7.843 -0.4987 -0.4823  0.1380
  153SAPE  H12X17031   2.081   3.625   7.900 -0.5745  2.1275  1.4726
  153SAPE  H12Y17032   2.168   3.760   7.809 -0.3509 -0.3606  0.5020
  153SAPE  C31317033   2.298   3.648   7.929 -0.4492 -0.8518 -0.3593
  153SAPE  H13X17034   2.297   3.727   8.007 -0.4883 -0.2503 -0.9582
  153SAPE  H13Y17035   2.390   3.666   7.870 -0.0056 -1.7986  0.0087
  153SAPE  C31417036   2.323   3.513   7.992 -0.0578 -0.7171 -0.4681
  153SAPE  H14X17037   2.427   3.505   8.029 -0.2298 -1.4689 -0.1300
  153SAPE  H14Y17038   2.316   3.442   7.907  0.2139 -0.6497 -0.5455
  153SAPE  C31517039   2.216   3.463   8.090 -0.1856  0.1377  0.4818
  153SAPE  H15X17040   2.224   3.352   8.088  0.0812  0.1103 -2.5731
  153SAPE  H15Y17041   2.113   3.481   8.051 -0.4282  1.1853  1.5469
  153SAPE  C31617042   2.204   3.544   8.225  0.0195 -0.2086  0.4126
  153SAPE  H16X17043   2.207   3.652   8.202  0.0109 -0.2849  0.0498
  153SAPE  H16Y17044   2.296   3.513   8.281  0.2087 -2.9126 -1.2163
  153SAPE  C31717045   2.077   3.513   8.299 -0.2951 -0.2353  0.0176
  153SAPE  H17X17046   2.063   3.403   8.307  0.1095 -0.2914 -0.0678
  153SAPE  H17Y17047   1.983   3.558   8.259 -0.7842 -0.5681  0.7696
  153SAPE  C31817048   2.085   3.573   8.437  0.0088  0.4765  0.0815
  153SAPE  H18X17049   2.177   3.534   8.485 -1.6920 -3.7467  0.2973
  153SAPE  H18Y17050   1.997   3.542   8.498 -0.7437  2.0919 -0.1111
  153SAPE  H18Z17051   2.087   3.684   8.433 -1.5344  0.6366  2.0237
  154SAPE     N17052   1.173   2.309   6.036  0.0663  0.5313 -0.1499
  154SAPE   HN117053   1.214   2.292   6.130  1.0869  2.2391 -0.2555
  154SAPE   HN217054   1.259   2.332   5.984  0.9038 -2.7987 -0.4675
  154SAPE   HN317055   1.110   2.392   6.032 -1.3001 -0.4828 -0.4891
  154SAPE   C1217056   1.108   2.190   5.986 -0.3769  0.6010  0.1086
  154SAPE  H12A17057   1.149   2.097   6.032 -2.6432 -1.0420 -0.9748
  154SAPE  H12B17058   1.127   2.187   5.876  0.8985  2.0454  0.2626
  154SAPE   C1117059   0.961   2.188   6.017  0.4723  0.6778 -0.0522
  154SAPE  H11A17060   0.947   2.147   6.120  2.8287 -1.1667 -0.3784
  154SAPE  H11B17061   0.906   2.116   5.953  0.0432  0.3463  0.6740
  154SAPE     P17062   0.754   2.339   6.050  0.1762 -0.4785  0.5541
  154SAPE   O1317063   0.713   2.482   6.048 -0.2886  0.2712 -0.2275
  154SAPE   O1417064   0.664   2.256   5.970 -0.0169  0.4819 -0.1304
  154SAPE   O1217065   0.908   2.321   6.015  0.2924 -0.3477  0.1498
  154SAPE   O1117066   0.750   2.297   6.198 -0.5643 -0.3338 -0.3738
  154SAPE    C117067   0.843   2.333   6.304 -0.4920  0.3171 -0.1232
  154SAPE    HA17068   0.912   2.248   6.323  0.4786  1.0246 -0.3973
  154SAPE    HB17069   0.903   2.422   6.275 -0.5122 -0.3303 -2.3596
  154SAPE    C217070   0.766   2.336   6.439 -0.6198  0.3243  0.2661
  154SAPE    HS17071   0.702   2.427   6.446  1.5777  1.8099  2.8463
  154SAPE   O2117072   0.873   2.333   6.542  0.1790  0.0095  0.3410
  154SAPE   C2117073   0.948   2.445   6.553  0.5884  0.7391  0.0067
  154SAPE   O2217074   0.945   2.538   6.473 -0.1262 -0.0596 -0.1295
  154SAPE   C2217075   1.035   2.428   6.676 -0.8499 -0.3281  0.0966
  154SAPE   H2R17076   0.965   2.413   6.761 -1.2586 -0.9221 -0.3376
  154SAPE   H2S17077   1.111   2.349   6.659 -1.3672 -0.4877 -1.7292
  154SAPE    C317078   0.674   2.212   6.460 -0.0048  0.1789 -0.1551
  154SAPE    HX17079   0.727   2.121   6.424  0.1457  0.3688 -0.4124
  154SAPE    HY17080   0.572   2.216   6.415  0.7189  2.1706 -1.7887
  154SAPE   O3117081   0.642   2.198   6.605  0.0047  0.2137  0.0773
  154SAPE   C3117082   0.551   2.288   6.659 -0.8237  0.1297 -0.0949
  154SAPE   O3217083   0.525   2.395   6.604 -0.2226  0.1455 -0.4283
  154SAPE   C3217084   0.492   2.231   6.778  0.2021 -0.8873  0.7271
  154SAPE   H2X17085   0.546   2.137   6.803  0.3013 -0.7189  1.1686
  154SAPE   H2Y17086   0.386   2.211   6.751  0.2343  0.1700 -0.2473
  154SAPE   C2317087   1.104   2.569   6.696  0.0856  0.1522  0.6100
  154SAPE   H3R17088   1.033   2.652   6.676 -0.3680 -0.5367 -0.7932
  154SAPE   H3S17089   1.175   2.584   6.612 -0.4916  3.4238  0.5735
  154SAPE   C2417090   1.182   2.561   6.835  0.1340 -0.8799 -0.7711
  154SAPE   H4R17091   1.244   2.653   6.826 -0.8278 -0.1322 -0.0905
  154SAPE   H4S17092   1.268   2.490   6.832 -1.1972 -2.5561 -0.6101
  154SAPE   C2517093   1.116   2.543   6.962  0.3946 -0.4994 -0.0337
  154SAPE   H5R17094   1.057   2.451   6.975  0.7684 -0.5771  1.3555
  154SAPE   C2617095   1.130   2.639   7.061 -0.0233 -0.0955  0.4128
  154SAPE   H6R17096   1.063   2.630   7.148 -2.2453 -3.0774 -1.3925
  154SAPE   C2717097   1.210   2.768   7.056 -0.2199 -0.6975  0.2173
  154SAPE   H7R17098   1.132   2.842   7.084 -0.3659  0.2070 -2.3708
  154SAPE   H7S17099   1.243   2.795   6.954 -1.2826 -0.7054 -0.1429
  154SAPE   C2817100   1.321   2.768   7.159 -0.2233 -0.8234  0.3107
  154SAPE   H8R17101   1.421   2.766   7.114  0.2520  1.6710  1.0798
  154SAPE   C2917102   1.312   2.781   7.292 -0.4152 -0.7547 -0.0158
  154SAPE   H9R17103   1.408   2.790   7.344 -0.5979 -2.5382  0.7066
  154SAPE  C21017104   1.185   2.798   7.372  0.1821  0.3025  0.5064
  154SAPE  H10R17105   1.098   2.822   7.308  1.2471  0.0161 -1.1060
  154SAPE  H10S17106   1.196   2.866   7.460 -0.3303 -1.4018  1.9547
  154SAPE  C21117107   1.142   2.670   7.432 -0.3490  0.3260 -0.0511
  154SAPE  H11R17108   1.080   2.600   7.373 -1.6898  1.8365 -0.5046
  154SAPE  C21217109   1.191   2.611   7.546 -0.2644 -0.6183  0.1297
  154SAPE  H12R17110   1.154   2.514   7.582  1.7201 -1.6613 -0.4483
  154SAPE  C21317111   1.301   2.672   7.634  0.5107  0.0659  0.5665
  154SAPE  H13R17112   1.318   2.777   7.603 -1.1210  0.0685 -0.4518
  154SAPE  H13S17113   1.399   2.621   7.629 -0.3621 -1.8008  1.4571
  154SAPE  C21417114   1.256   2.684   7.778 -0.0486 -0.2056  0.1174
  154SAPE  H14R17115   1.240   2.788   7.809  0.9529 -0.5255  1.8590
  154SAPE  C21517116   1.225   2.590   7.876 -0.2915  0.2904  0.0122
  154SAPE  H15R17117   1.207   2.628   7.977  0.2529  1.0830 -0.1780
  154SAPE  C21617118   1.239   2.438   7.868 -0.4470  0.2800  0.0705
  154SAPE  H16R17119   1.225   2.398   7.765 -0.7342 -0.4295  0.3752
  154SAPE  H16S17120   1.164   2.384   7.929  0.2332 -1.1183 -0.2773
  154SAPE  C21717121   1.374   2.393   7.923  0.3925 -0.2637 -0.5277
  154SAPE  H17R17122   1.450   2.398   7.842 -0.6332  0.6370 -1.4620
  154SAPE  H17S17123   1.369   2.286   7.953  0.4294 -0.3913 -0.9668
  154SAPE  C21817124   1.427   2.472   8.046  0.9300  0.1221 -0.4424
  154SAPE  H18R17125   1.352   2.489   8.127  0.9021  1.2101 -0.6843
  154SAPE  H18S17126   1.445   2.578   8.019 -0.6272  0.6314  0.3613
  154SAPE  C21917127   1.556   2.427   8.110  0.6072  0.3374 -0.0425
  154SAPE  H19R17128   1.640   2.442   8.039  0.5552 -2.2687 -0.7487
  154SAPE  H19S17129   1.540   2.317   8.112  0.6463  0.3362  0.2258
  154SAPE  C22017130   1.583   2.497   8.245  0.4611 -0.8456  0.0339
  154SAPE  H20R17131   1.598   2.607   8.239 -1.4967 -0.5205  0.5894
  154SAPE  H20S17132   1.673   2.467   8.303  0.4065 -0.9968  0.0400
  154SAPE  H20T17133   1.495   2.490   8.311  1.4799  0.0408  1.5476
  154SAPE   C3317134   0.505   2.320   6.900  0.3481 -0.3067 -0.0372
  154SAPE   H3X17135   0.435   2.401   6.870  0.6976 -0.5819 -1.7148
  154SAPE   H3Y17136   0.609   2.359   6.902  0.4292 -0.5216  2.5867
  154SAPE   C3417137   0.467   2.252   7.031  0.0541 -0.3255  1.1249
  154SAPE   H4X17138   0.527   2.159   7.027 -0.1980 -0.5155 -2.7510
  154SAPE   H4Y17139   0.361   2.219   7.027  0.0316 -0.1697 -1.6979
  154SAPE   C3517140   0.491   2.343   7.152  0.1081  0.1458 -0.2148
  154SAPE   H5X17141   0.413   2.422   7.165  2.1623  2.2873 -0.0532
  154SAPE   H5Y17142   0.583   2.405   7.137  0.4417 -0.8784 -3.0304
  154SAPE   C3617143   0.496   2.265   7.284 -0.4424  0.3012 -0.4585
  154SAPE   H6X17144   0.551   2.325   7.360  0.4283 -0.6993 -0.2731
  154SAPE   H6Y17145   0.566   2.179   7.278  1.5720  1.7406  1.0505
  154SAPE   C3717146   0.354   2.225   7.321  0.7273  0.4174  0.5068
  154SAPE   H7X17147   0.297   2.166   7.246 -0.5700  0.1497  1.6573
  154SAPE   H7Y17148   0.296   2.317   7.344  0.4681  0.3549  0.1127
  154SAPE   C3817149   0.361   2.146   7.450  0.1261 -0.7292 -0.0619
  154SAPE   H8X17150   0.428   2.058   7.453  0.2627 -0.7957 -2.9174
  154SAPE   H8Y17151   0.261   2.104   7.472  0.5278 -0.8245  1.7743
  154SAPE   C3917152   0.388   2.244   7.572  0.1463  0.8218  0.5499
  154SAPE   H9X17153   0.349   2.342   7.539  1.6978  0.9667 -0.9761
  154SAPE   H9Y17154   0.495   2.265   7.596 -0.3662 -1.1317  6.0399
  154SAPE  C31017155   0.324   2.199   7.702  0.4732 -0.0662  0.0505
  154SAPE  H10X17156   0.343   2.090   7.708  0.1343 -0.1245  0.0380
  154SAPE  H10Y17157   0.217   2.226   7.698  0.7079  1.1313  1.2367
  154SAPE  C31117158   0.391   2.263   7.829  0.0067  0.9038 -0.1243
  154SAPE  H11X17159   0.358   2.368   7.838  1.4362  1.4217 -0.6593
  154SAPE  H11Y17160   0.500   2.261   7.811  0.2070  2.0047  0.8606
  154SAPE  C31217161   0.340   2.186   7.950 -0.4151  0.2038 -0.8502
  154SAPE  H12X17162   0.374   2.082   7.933  2.7771  1.1888 -1.1620
  154SAPE  H12Y17163   0.230   2.192   7.940 -0.8071 -0.9924  1.7462
  154SAPE  C31317164   0.390   2.245   8.090  0.6112 -0.5374  1.0978
  154SAPE  H13X17165   0.501   2.239   8.096  0.7494  0.9324  0.2743
  154SAPE  H13Y17166   0.352   2.166   8.159 -2.3886 -1.0550 -0.9749
  154SAPE  C31417167   0.340   2.379   8.140 -0.1445  0.2893  0.4567
  154SAPE  H14X17168   0.377   2.447   8.060  1.3735  0.5924  1.3652
  154SAPE  H14Y17169   0.388   2.404   8.237 -0.5116  0.2107  0.6586
  154SAPE  C31517170   0.182   2.389   8.158 -0.5752  0.1095  0.1059
  154SAPE  H15X17171   0.140   2.371   8.057  0.0865 -0.7212 -0.0281
  154SAPE  H15Y17172   0.167   2.496   8.185  1.4136  0.3296  0.5056
  154SAPE  C31617173   0.106   2.288   8.250 -0.3714  0.6642 -0.8749
  154SAPE  H16X17174   0.091   2.190   8.201 -1.1559 -0.2544  1.1267
  154SAPE  H16Y17175   0.005   2.329   8.272 -0.8353 -1.6693  1.8554
  154SAPE  C31717176   0.181   2.266   8.387 -0.7981  0.1671  0.3197
  154SAPE  H17X17177   0.279   2.221   8.361 -1.5953 -0.9992 -0.7896
  154SAPE  H17Y17178   0.124   2.187   8.440 -0.8267  0.2290  0.3809
  154SAPE  C31817179   0.200   2.391   8.473 -0.1278  0.4062 -0.2368
  154SAPE  H18X17180   0.099   2.428   8.498 -0.5741 -0.6178 -0.4817
  154SAPE  H18Y17181   0.256   2.474   8.424 -0.6791  1.9110  1.5423
  154SAPE  H18Z17182   0.248   2.355   8.567 -1.5565 -0.5457  0.1475
  155SAPE     N17183   2.460   4.185   6.348 -0.1087 -0.2680 -0.3568
  155SAPE   HN117184   2.535   4.114   6.360  0.2240 -0.4030 -2.7773
  155SAPE   HN217185   2.475   4.267   6.410 -2.0932  2.3230 -3.0208
  155SAPE   HN317186   2.368   4.138   6.366 -2.1191  2.5646 -2.3488
  155SAPE   C1217187   2.453   4.245   6.212  0.0642  0.2366  0.1273
  155SAPE  H12A17188   2.416   4.166   6.144 -0.0442 -0.1661  0.6490
  155SAPE  H12B17189   2.556   4.263   6.177  1.0149 -1.3491  1.9154
  155SAPE   C1117190   2.360   4.365   6.213  0.0924  0.0358  0.0263
  155SAPE  H11A17191   2.360   4.384   6.104 -0.5294 -0.1925 -0.0144
  155SAPE  H11B17192   2.414   4.442   6.273  1.5212 -1.4394  0.6981
  155SAPE     P17193   2.159   4.452   6.344 -0.3494 -0.0846  0.1823
  155SAPE   O1317194   2.243   4.494   6.457  0.8925 -0.0716 -0.8073
  155SAPE   O1417195   2.124   4.562   6.248  0.5400  0.2381  0.2339
  155SAPE   O1217196   2.232   4.331   6.266  0.2880 -1.0315  0.3595
  155SAPE   O1117197   2.029   4.396   6.403  0.0644 -0.7072 -0.4958
  155SAPE    C117198   1.998   4.262   6.422 -0.8128  0.2327  0.0382
  155SAPE    HA17199   1.890   4.245   6.403 -1.0800  0.8176  0.9258
  155SAPE    HB17200   2.068   4.195   6.370 -1.9044  2.2031 -4.4458
  155SAPE    C217201   2.013   4.229   6.572  0.3063 -0.1451  0.2675
  155SAPE    HS17202   2.122   4.225   6.593  0.5001 -0.2283 -0.7479
  155SAPE   O2117203   1.929   4.107   6.605  0.1983  0.0254  0.2286
  155SAPE   C2117204   1.999   4.022   6.683 -0.6277  0.5850  0.4205
  155SAPE   O2217205   2.114   4.033   6.724 -0.2457  0.2110  0.3524
  155SAPE   C2217206   1.903   3.911   6.721 -0.0226  0.5537  0.2605
  155SAPE   H2R17207   1.818   3.948   6.782  0.6233  0.0482  1.4910
  155SAPE   H2S17208   1.864   3.873   6.624  1.3283 -2.2129  0.6997
  155SAPE    C317209   1.968   4.350   6.661 -0.2436  0.3191 -0.2773
  155SAPE    HX17210   1.858   4.364   6.653 -0.1034  0.8032 -1.4971
  155SAPE    HY17211   2.018   4.443   6.628 -1.3312  1.2211  0.5197
  155SAPE   O3117212   1.997   4.317   6.803  0.0332 -0.1069 -0.0270
  155SAPE   C3117213   1.980   4.410   6.892  0.2831  0.0960 -0.2241
  155SAPE   O3217214   1.938   4.522   6.871  0.2069 -0.4330 -0.8251
  155SAPE   C3217215   2.019   4.367   7.030  0.3040 -0.4747 -1.0855
  155SAPE   H2X17216   2.128   4.384   7.043  0.0499 -0.2982  1.1751
  155SAPE   H2Y17217   1.989   4.261   7.044 -1.6713  0.1449 -0.1548
  155SAPE   C2317218   1.963   3.788   6.798  0.2876  0.1912  0.2813
  155SAPE   H3R17219   2.036   3.814   6.878  1.0059  1.8278 -0.8400
  155SAPE   H3S17220   2.014   3.727   6.721  0.3476  2.2031 -1.3759
  155SAPE   C2417221   1.853   3.711   6.868 -0.2302  0.5469  0.4493
  155SAPE   H4R17222   1.814   3.776   6.950  2.0833  0.9942  1.2580
  155SAPE   H4S17223   1.897   3.617   6.909  0.9936  0.5947 -0.7096
  155SAPE   C2517224   1.753   3.668   6.762 -0.8689  0.4376  0.1114
  155SAPE   H5R17225   1.796   3.615   6.676  0.1292 -0.8026  1.3323
  155SAPE   C2617226   1.615   3.667   6.773  0.2488 -0.7359 -0.4660
  155SAPE   H6R17227   1.552   3.639   6.687  0.2511 -0.0966 -0.6753
  155SAPE   C2717228   1.540   3.721   6.889  0.0572  0.3422  0.5066
  155SAPE   H7R17229   1.477   3.808   6.863 -0.6133  0.2432  1.7236
  155SAPE   H7S17230   1.604   3.761   6.971 -0.8743  1.8912  0.5096
  155SAPE   C2817231   1.446   3.609   6.929  0.0039  0.1528 -0.0109
  155SAPE   H8R17232   1.380   3.565   6.853 -0.1432  1.4307 -0.6511
  155SAPE   C2917233   1.443   3.558   7.052  0.7934 -0.1585  0.2210
  155SAPE   H9R17234   1.378   3.473   7.076  1.0244 -0.3575  0.1397
  155SAPE  C21017235   1.539   3.603   7.165 -1.0304  0.5079  0.4658
  155SAPE  H10R17236   1.504   3.560   7.262 -0.1550 -3.1921 -0.6740
  155SAPE  H10S17237   1.540   3.713   7.178 -1.4336  0.4286  1.2615
  155SAPE  C21117238   1.685   3.559   7.136  1.0046 -0.3582 -0.5379
  155SAPE  H11R17239   1.709   3.536   7.031 -1.3029 -1.7410 -0.8180
  155SAPE  C21217240   1.786   3.559   7.224 -0.1539 -0.0265  0.6981
  155SAPE  H12R17241   1.883   3.521   7.189  0.1880 -0.7333  2.3423
  155SAPE  C21317242   1.770   3.581   7.370 -0.0300  0.4356  0.3111
  155SAPE  H13R17243   1.662   3.598   7.391 -0.0831  1.3857 -0.6759
  155SAPE  H13S17244   1.819   3.676   7.399 -2.3548  1.9603 -0.4702
  155SAPE  C21417245   1.816   3.456   7.448  0.2390 -0.8327 -0.3492
  155SAPE  H14R17246   1.822   3.362   7.391 -1.9077 -0.2201 -1.6966
  155SAPE  C21517247   1.832   3.447   7.584  0.2668 -0.0582 -0.1142
  155SAPE  H15R17248   1.878   3.353   7.617  0.7317  0.5726  1.1046
  155SAPE  C21617249   1.819   3.556   7.689 -0.3751 -0.3070  0.3660
  155SAPE  H16R17250   1.775   3.648   7.645  0.0941 -1.5574 -3.0579
  155SAPE  H16S17251   1.920   3.581   7.727 -0.4951  0.0787  0.4358
  155SAPE  C21717252   1.730   3.522   7.810 -0.2836  0.0342  0.1318
  155SAPE  H17R17253   1.625   3.501   7.782 -0.6789  1.2732  0.5977
  155SAPE  H17S17254   1.722   3.611   7.876 -4.1982  0.3314 -0.4738
  155SAPE  C21817255   1.778   3.407   7.898 -0.6701  0.5292  0.1026
  155SAPE  H18R17256   1.887   3.417   7.920 -0.2239 -0.3129 -1.5759
  155SAPE  H18S17257   1.777   3.312   7.841 -0.3312  1.2375 -1.1387
  155SAPE  C21917258   1.703   3.408   8.026 -0.3284 -0.4067  0.5257
  155SAPE  H19R17259   1.598   3.388   7.996 -0.6117 -0.2063  1.3662
  155SAPE  H19S17260   1.709   3.505   8.079 -0.4911  0.0162 -0.2214
  155SAPE  C22017261   1.748   3.304   8.140 -0.1810 -0.2676  0.2569
  155SAPE  H20R17262   1.828   3.352   8.200 -0.1576 -0.0997  0.0951
  155SAPE  H20S17263   1.788   3.202   8.123  1.1068 -0.1835  2.3828
  155SAPE  H20T17264   1.672   3.302   8.221  1.5438  1.7448  2.0710
  155SAPE   C3317265   1.947   4.447   7.138 -0.2999  0.6321 -0.2216
  155SAPE   H3X17266   1.838   4.435   7.118 -0.3625  0.8573 -0.0152
  155SAPE   H3Y17267   1.965   4.555   7.122 -0.7229  0.4102 -2.5777
  155SAPE   C3417268   1.980   4.395   7.285  0.3258  0.2692  0.0359
  155SAPE   H4X17269   2.089   4.404   7.305  0.3784  1.4603 -0.6877
  155SAPE   H4Y17270   1.969   4.284   7.289  0.2069  0.2857  0.1391
  155SAPE   C3517271   1.901   4.466   7.394 -0.0988 -0.1885  0.2062
  155SAPE   H5X17272   1.794   4.441   7.407 -0.2451  0.8451  1.1977
  155SAPE   H5Y17273   1.911   4.576   7.377 -1.0892 -0.5062 -2.8322
  155SAPE   C3617274   1.959   4.438   7.535  0.5878  0.7298  1.2130
  155SAPE   H6X17275   2.055   4.489   7.555  0.9095  0.2025  1.0302
  155SAPE   H6Y17276   1.988   4.331   7.541  1.7870  0.9560 -0.0656
  155SAPE   C3717277   1.863   4.468   7.651  0.4842  0.5544  0.0221
  155SAPE   H7X17278   1.763   4.423   7.635  0.7862 -0.1218  0.0295
  155SAPE   H7Y17279   1.840   4.577   7.662  0.7564  0.4345  2.0881
  155SAPE   C3817280   1.917   4.414   7.784 -0.5187  0.1435 -0.3479
  155SAPE   H8X17281   2.019   4.453   7.806 -0.6539  0.1204  0.3695
  155SAPE   H8Y17282   1.931   4.304   7.789  2.3244  0.4616  0.5888
  155SAPE   C3917283   1.816   4.428   7.903 -0.2520 -0.0702  0.4612
  155SAPE   H9X17284   1.738   4.357   7.869  1.4553 -1.0233 -1.7997
  155SAPE   H9Y17285   1.782   4.532   7.923  0.0397  0.1529 -0.1553
  155SAPE  C31017286   1.885   4.371   8.026  0.0172 -0.1103  0.3431
  155SAPE  H10X17287   1.934   4.274   7.999  0.9876  0.2911  0.6377
  155SAPE  H10Y17288   1.813   4.357   8.110 -0.1293  1.5130  0.5074
  155SAPE  C31117289   2.000   4.461   8.075  0.0723 -0.5728 -0.5605
  155SAPE  H11X17290   1.959   4.551   8.126  1.4877 -1.6691  2.7965
  155SAPE  H11Y17291   2.068   4.492   7.993 -0.3313  1.7208 -0.1066
  155SAPE  C31217292   2.090   4.396   8.190 -0.3686  0.4706  0.6663
  155SAPE  H12X17293   2.167   4.335   8.138  0.4158  0.8654  1.3437
  155SAPE  H12Y17294   2.017   4.337   8.250 -2.4373 -1.3774 -3.2573
  155SAPE  C31317295   2.166   4.508   8.265 -0.0264 -0.1354  0.1201
  155SAPE  H13X17296   2.094   4.586   8.298  1.4318  1.4927 -0.3790
  155SAPE  H13Y17297   2.250   4.544   8.202  0.9703  0.3687  1.6647
  155SAPE  C31417298   2.222   4.452   8.395 -0.5329  0.3050 -0.4626
  155SAPE  H14X17299   2.283   4.364   8.366  0.3985  1.5996 -2.6017
  155SAPE  H14Y17300   2.151   4.411   8.471  0.4316  0.4265  0.5333
  155SAPE  C31517301   2.315   4.544   8.477 -0.0367 -0.0193  0.3559
  155SAPE  H15X17302   2.341   4.494   8.573 -1.0776 -1.0862  0.1143
  155SAPE  H15Y17303   2.251   4.633   8.493 -1.7574 -0.8390 -1.4675
  155SAPE  C31617304   2.453   4.585   8.415 -0.0957 -0.4850  0.3857
  155SAPE  H16X17305   2.435   4.603   8.307 -1.7992 -1.0872  0.5418
  155SAPE  H16Y17306   2.540   4.517   8.429 -0.0370 -0.7006 -0.8543
  155SAPE  C31717307   2.502   4.722   8.470  0.4287 -0.5987  0.1584
  155SAPE  H17X17308   2.424   4.801   8.477  1.3886  0.2517  1.6481
  155SAPE  H17Y17309   2.575   4.763   8.397  0.3992 -1.5525 -0.4171
  155SAPE  C31817310   2.568   4.705   8.612 -0.0077 -0.7114 -0.5221
  155SAPE  H18X17311   2.652   4.634   8.592  0.5188 -0.0595 -0.6565
  155SAPE  H18Y17312   2.495   4.661   8.683  0.3859  0.5240  0.6779
  155SAPE  H18Z17313   2.614   4.795   8.657 -0.3822 -0.3319 -0.8900
  156SAPE     N17314   0.779   4.209   6.718 -0.0300 -0.5200 -0.0947
  156SAPE   HN117315   0.841   4.143   6.667  1.8388 -0.4850  1.9971
  156SAPE   HN217316   0.722   4.276   6.663 -1.2121 -2.3137 -1.1479
  156SAPE   HN317317   0.845   4.270   6.770  0.2135  0.8828 -1.9260
  156SAPE   C1217318   0.676   4.129   6.807  0.2158  0.1992  0.2231
  156SAPE  H12A17319   0.624   4.208   6.866 -1.6140 -1.4378  0.9097
  156SAPE  H12B17320   0.754   4.072   6.861  0.3085  0.3914  0.2963
  156SAPE   C1117321   0.566   4.051   6.741 -0.4861 -0.2888  0.2190
  156SAPE  H11A17322   0.497   4.132   6.708  2.0935  1.6180 -0.7706
  156SAPE  H11B17323   0.512   3.990   6.817  0.0155 -0.1771  0.6712
  156SAPE     P17324   0.528   3.921   6.508 -0.0708 -0.1378 -0.1210
  156SAPE   O1317325   0.534   4.029   6.412 -0.2722  0.4104 -0.5406
  156SAPE   O1417326   0.575   3.792   6.449  0.1793 -0.2055  1.0263
  156SAPE   O1217327   0.607   3.964   6.638 -0.7875  0.3816 -0.1773
  156SAPE   O1117328   0.379   3.906   6.568 -0.8849 -0.4564  0.4925
  156SAPE    C117329   0.339   3.791   6.640  0.6283  1.0702 -0.4701
  156SAPE    HA17330   0.318   3.710   6.567  1.9563  1.5962 -1.4683
  156SAPE    HB17331   0.424   3.761   6.704 -1.5362 -3.1568  0.8059
  156SAPE    C217332   0.217   3.827   6.729  0.1629  0.4668  0.6886
  156SAPE    HS17333   0.140   3.850   6.653  2.1477  1.1861 -1.2008
  156SAPE   O2117334   0.266   3.939   6.805  0.2939  0.5391  0.1380
  156SAPE   C2117335   0.174   3.986   6.883 -0.6518 -0.1888 -0.4261
  156SAPE   O2217336   0.057   3.955   6.893  0.8559  0.1995 -0.4680
  156SAPE   C2217337   0.231   4.116   6.956 -0.1641 -0.3320  0.3955
  156SAPE   H2R17338   0.152   4.136   7.032 -0.6641  0.6913 -0.3673
  156SAPE   H2S17339   0.328   4.089   7.004 -0.0888  0.2412  0.5758
  156SAPE    C317340   0.167   3.705   6.811 -0.5570 -0.0298 -0.0501
  156SAPE    HX17341   0.171   3.620   6.739 -1.8464 -0.9476  0.9155
  156SAPE    HY17342   0.060   3.707   6.841 -0.7156 -0.1645 -0.5818
  156SAPE   O3117343   0.235   3.676   6.932  0.2267  0.1568 -0.0710
  156SAPE   C3117344   0.352   3.602   6.923 -0.4322  0.4389  0.0419
  156SAPE   O3217345   0.381   3.530   6.833 -1.0778  0.4162 -0.2239
  156SAPE   C3217346   0.443   3.637   7.040  0.4398  0.3250 -0.2663
  156SAPE   H2X17347   0.503   3.726   7.009  3.4151 -1.8042 -1.0350
  156SAPE   H2Y17348   0.514   3.552   7.045  1.2082  0.9603 -0.2231
  156SAPE   C2317349   0.242   4.243   6.862  0.2564 -0.5414  0.2170
  156SAPE   H3R17350   0.160   4.231   6.787  0.7438 -1.8242 -0.1431
  156SAPE   H3S17351   0.335   4.246   6.802 -0.9650 -0.5598 -1.7863
  156SAPE   C2417352   0.218   4.367   6.937  0.0662  0.4053  0.0216
  156SAPE   H4R17353   0.132   4.366   7.007 -0.5362  0.1874 -0.7095
  156SAPE   H4S17354   0.186   4.447   6.867 -0.2259 -1.2378 -1.8045
  156SAPE   C2517355   0.345   4.420   7.001  0.0881  0.8927  0.6367
  156SAPE   H5R17356   0.436   4.405   6.942 -1.1798 -1.2423 -0.9269
  156SAPE   C2617357   0.352   4.469   7.130 -0.1933 -0.3889  0.0715
  156SAPE   H6R17358   0.444   4.526   7.152 -0.6603  0.1549  0.6613
  156SAPE   C2717359   0.234   4.486   7.231 -0.1377 -0.3099  0.4137
  156SAPE   H7R17360   0.181   4.389   7.235 -0.1815 -0.2463  1.4528
  156SAPE   H7S17361   0.148   4.542   7.187 -0.1529 -0.8838 -0.3044
  156SAPE   C2817362   0.274   4.527   7.372 -1.0269  0.1555  0.2299
  156SAPE   H8R17363   0.380   4.547   7.391 -1.2839  1.1287  0.6823
  156SAPE   C2917364   0.194   4.539   7.476  0.3526  0.3316 -0.1910
  156SAPE   H9R17365   0.231   4.561   7.577  2.8606 -2.0352 -0.4516
  156SAPE  C21017366   0.047   4.505   7.475 -0.3335 -0.5911 -0.1569
  156SAPE  H10R17367  -0.008   4.519   7.380  0.0725  2.3532 -0.0688
  156SAPE  H10S17368  -0.004   4.580   7.539  0.3929  0.6098 -0.9491
  156SAPE  C21117369   0.038   4.373   7.538  0.4569 -0.0392  0.0476
  156SAPE  H11R17370   0.052   4.293   7.463  2.8253  0.6796 -0.3423
  156SAPE  C21217371   0.010   4.345   7.669 -0.2145 -0.2416  0.5623
  156SAPE  H12R17372  -0.006   4.241   7.702 -1.8776 -0.6861 -1.4042
  156SAPE  C21317373  -0.015   4.449   7.777  0.8694  0.0589  0.6970
  156SAPE  H13R17374  -0.091   4.405   7.845  1.1540 -1.0841  0.3093
  156SAPE  H13S17375  -0.054   4.545   7.738  2.8836  1.3184  1.5674
  156SAPE  C21417376   0.106   4.490   7.858  0.2381 -0.8013  0.3624
  156SAPE  H14R17377   0.181   4.543   7.798 -0.9083  0.3311 -0.1029
  156SAPE  C21517378   0.127   4.468   7.992 -0.2232  0.2934 -0.1255
  156SAPE  H15R17379   0.219   4.513   8.032 -1.1787  0.6979  1.7130
  156SAPE  C21617380   0.041   4.384   8.083 -0.1464 -0.9049 -0.3171
  156SAPE  H16R17381  -0.056   4.366   8.033 -0.0753 -0.3653 -0.6549
  156SAPE  H16S17382   0.015   4.447   8.171 -0.3668 -0.4272 -0.7203
  156SAPE  C21717383   0.111   4.250   8.130 -0.1300 -0.1033  0.4227
  156SAPE  H17R17384   0.211   4.277   8.172  1.0099  1.4198 -2.8803
  156SAPE  H17S17385   0.113   4.182   8.042 -0.7563  1.8839 -1.1894
  156SAPE  C21817386   0.033   4.176   8.238 -0.2579  0.2578 -0.4322
  156SAPE  H18R17387   0.108   4.099   8.267  0.1139  1.6400  2.6100
  156SAPE  H18S17388  -0.066   4.138   8.204  0.4965 -1.5544 -0.7599
  156SAPE  C21917389   0.022   4.249   8.376 -0.3570 -0.3725 -0.1072
  156SAPE  H19R17390  -0.020   4.183   8.455 -1.6007 -0.1544 -0.5655
  156SAPE  H19S17391  -0.053   4.328   8.355  1.2078  0.6554 -2.2598
  156SAPE  C22017392   0.149   4.321   8.421 -0.9430  0.4188  0.0889
  156SAPE  H20R17393   0.183   4.388   8.338 -2.8745 -0.5418 -1.5680
  156SAPE  H20S17394   0.222   4.248   8.461 -2.5011 -0.8828  0.6441
  156SAPE  H20T17395   0.126   4.390   8.505 -0.1505 -1.2296  1.7246
  156SAPE   C3317396   0.366   3.654   7.175  0.4148  0.4347 -0.0503
  156SAPE   H3X17397   0.353   3.549   7.209 -0.5778  0.6807  0.3422
  156SAPE   H3Y17398   0.277   3.717   7.158  1.4494  2.4115  1.4265
  156SAPE   C3417399   0.433   3.728   7.283 -0.1680  0.5971 -0.4455
  156SAPE   H4X17400   0.412   3.837   7.274 -1.3187  0.6345  1.9796
  156SAPE   H4Y17401   0.544   3.724   7.290 -0.0244  1.5776 -1.8245
  156SAPE   C3517402   0.396   3.673   7.425  0.3218 -0.3600  0.2417
  156SAPE   H5X17403   0.443   3.573   7.434 -0.8732 -1.0094 -0.5498
  156SAPE   H5Y17404   0.285   3.679   7.426  0.3611  1.2972 -0.7435
  156SAPE   C3617405   0.443   3.762   7.535  0.4581 -0.1331 -0.2421
  156SAPE   H6X17406   0.386   3.857   7.539  0.6386 -0.0447  0.2421
  156SAPE   H6Y17407   0.552   3.782   7.530  0.1466  1.4978 -1.4195
  156SAPE   C3717408   0.417   3.715   7.681 -0.0421  0.0032 -0.0510
  156SAPE   H7X17409   0.479   3.623   7.688  0.5416  0.5063  2.0536
  156SAPE   H7Y17410   0.310   3.696   7.704 -0.1938  2.5363  1.8513
  156SAPE   C3817411   0.470   3.828   7.765 -0.7464 -0.3556 -0.7546
  156SAPE   H8X17412   0.389   3.904   7.758 -0.2751  0.2102 -0.2348
  156SAPE   H8Y17413   0.571   3.866   7.736 -1.3734  2.3180  0.2600
  156SAPE   C3917414   0.479   3.807   7.919  0.0123 -0.0042 -0.0787
  156SAPE   H9X17415   0.546   3.722   7.944 -1.2617 -0.6859  1.1683
  156SAPE   H9Y17416   0.381   3.768   7.954  1.4130 -1.9607  1.9712
  156SAPE  C31017417   0.499   3.943   7.990  0.1684 -0.6737  0.0685
  156SAPE  H10X17418   0.408   4.003   7.967  0.3971  0.2373  1.4530
  156SAPE  H10Y17419   0.582   4.008   7.955 -1.0700 -0.1315 -2.0668
  156SAPE  C31117420   0.507   3.939   8.145  0.0682 -0.2462 -0.4657
  156SAPE  H11X17421   0.507   4.043   8.183 -4.4220 -0.2085 -0.0118
  156SAPE  H11Y17422   0.597   3.887   8.184 -1.4321 -1.0328  2.3078
  156SAPE  C31217423   0.398   3.857   8.198  0.6462  0.3798  0.1663
  156SAPE  H12X17424   0.413   3.747   8.187 -2.6846 -0.3692  1.7473
  156SAPE  H12Y17425   0.296   3.885   8.164  0.2411  0.4451  1.4218
  156SAPE  C31317426   0.389   3.886   8.353  0.4805  0.0555 -0.5712
  156SAPE  H13X17427   0.331   3.980   8.360 -0.8340 -0.7984  0.8757
  156SAPE  H13Y17428   0.490   3.897   8.397  0.1384  0.7047  0.0728
  156SAPE  C31417429   0.312   3.786   8.437  0.0707  0.1256  0.5941
  156SAPE  H14X17430   0.205   3.787   8.410  0.4885  0.8858 -1.2052
  156SAPE  H14Y17431   0.320   3.818   8.543 -1.7914  1.3688  0.3983
  156SAPE  C31517432   0.362   3.641   8.421 -0.0483  0.0217 -0.0104
  156SAPE  H15X17433   0.460   3.628   8.471  0.5338 -0.1022 -1.1496
  156SAPE  H15Y17434   0.369   3.609   8.315  0.6407 -0.2324  0.1075
  156SAPE  C31617435   0.276   3.536   8.494 -0.3445 -0.2380  0.1745
  156SAPE  H16X17436   0.238   3.579   8.589 -1.1572 -0.6258  0.0339
  156SAPE  H16Y17437   0.326   3.438   8.511 -1.3417 -0.9505 -0.8349
  156SAPE  C31717438   0.154   3.497   8.411 -0.0436  0.8933 -0.5183
  156SAPE  H17X17439   0.183   3.459   8.311  1.9879  1.6294 -0.2501
  156SAPE  H17Y17440   0.097   3.590   8.391  2.0331  2.0061 -1.6141
  156SAPE  C31817441   0.054   3.394   8.477 -0.4643 -0.0054 -0.1015
  156SAPE  H18X17442   0.113   3.301   8.490  1.1724  1.0610  0.5957
  156SAPE  H18Y17443  -0.033   3.382   8.410 -1.9934  0.5080  1.7141
  156SAPE  H18Z17444   0.014   3.420   8.578 -1.0976 -1.6747  0.1006
  157SAPE     N17445   4.402   5.648   5.817 -0.0332 -0.5931  0.5476
  157SAPE   HN117446   4.303   5.639   5.789 -1.0516 -0.0218  3.5653
  157SAPE   HN217447   4.446   5.728   5.767 -2.4454  0.5446  0.1436
  157SAPE   HN317448   4.447   5.556   5.800 -1.9969 -1.9533  2.3093
  157SAPE   C1217449   4.407   5.687   5.954  0.0373 -0.0458  0.4040
  157SAPE  H12A17450   4.332   5.768   5.960  0.9013  0.9469 -1.3027
  157SAPE  H12B17451   4.506   5.727   5.984 -0.1711  0.8967 -0.1210
  157SAPE   C1117452   4.359   5.576   6.046  0.1728 -0.7217 -0.1056
  157SAPE  H11A17453   4.348   5.606   6.153 -1.2226 -1.5002  0.0039
  157SAPE  H11B17454   4.435   5.496   6.039 -1.2505 -2.0180 -1.7850
  157SAPE     P17455   4.176   5.381   6.073  0.1322 -0.1288  0.0095
  157SAPE   O1317456   4.028   5.394   6.066 -0.8762  0.8561 -0.1572
  157SAPE   O1417457   4.243   5.272   5.997  0.3606  0.1173 -0.2490
  157SAPE   O1217458   4.233   5.518   6.006  0.1157 -0.2115 -0.1462
  157SAPE   O1117459   4.232   5.388   6.220 -0.4293 -0.2483 -0.0956
  157SAPE    C117460   4.150   5.433   6.330 -0.3245 -0.3027 -0.8096
  157SAPE    HA17461   4.089   5.520   6.296 -1.9886 -1.6907 -1.5683
  157SAPE    HB17462   4.081   5.349   6.354  0.5389 -0.2265  2.3397
  157SAPE    C217463   4.226   5.463   6.463  0.1186 -0.0351 -0.1369
  157SAPE    HS17464   4.149   5.505   6.531  1.6309  1.5205  0.7096
  157SAPE   O2117465   4.336   5.547   6.437 -0.4822  0.0744 -0.9810
  157SAPE   C2117466   4.308   5.681   6.460 -0.9571  0.8211  0.2916
  157SAPE   O2217467   4.206   5.725   6.508 -0.5763 -0.5625  0.0968
  157SAPE   C2217468   4.426   5.759   6.396 -0.6696  0.6398  0.6667
  157SAPE   H2R17469   4.507   5.683   6.392 -2.0588 -0.8464 -0.9813
  157SAPE   H2S17470   4.398   5.791   6.293 -0.9463  0.5101  0.7010
  157SAPE    C317471   4.282   5.327   6.510 -0.1610  0.1935 -0.0507
  157SAPE    HX17472   4.352   5.289   6.434  0.2625 -3.3467  1.8971
  157SAPE    HY17473   4.198   5.255   6.497 -0.9058  0.9721  0.3110
  157SAPE   O3117474   4.346   5.331   6.634  0.1675 -0.3034 -0.3106
  157SAPE   C3117475   4.275   5.331   6.745 -0.3342 -0.6711 -0.7505
  157SAPE   O3217476   4.157   5.334   6.764  0.0153  0.1992 -0.4817
  157SAPE   C3217477   4.376   5.340   6.854 -0.0110  0.1533 -0.1590
  157SAPE   H2X17478   4.458   5.414   6.841 -0.3106  1.0963  2.4840
  157SAPE   H2Y17479   4.422   5.239   6.851 -0.6833 -0.2918  2.2176
  157SAPE   C2317480   4.464   5.886   6.479  0.3368 -0.6048 -0.2436
  157SAPE   H3R17481   4.373   5.949   6.491  1.7242  1.5974 -0.7354
  157SAPE   H3S17482   4.548   5.941   6.431 -0.4542  1.4896  0.6394
  157SAPE   C2417483   4.512   5.853   6.623 -0.4325 -0.2597  0.3490
  157SAPE   H4R17484   4.582   5.767   6.622  0.7778  0.6920 -1.6047
  157SAPE   H4S17485   4.419   5.834   6.681  0.2635 -0.1409  1.5540
  157SAPE   C2517486   4.592   5.971   6.673 -0.1802  0.0025  0.4772
  157SAPE   H5R17487   4.691   5.990   6.630  0.4535 -2.8428  0.5102
  157SAPE   C2617488   4.541   6.056   6.760  0.3664 -0.2281  0.6780
  157SAPE   H6R17489   4.607   6.134   6.802  0.2872 -2.1064  4.7400
  157SAPE   C2717490   4.404   6.059   6.825  0.2347  0.7980  0.1660
  157SAPE   H7R17491   4.410   5.990   6.911 -2.7686 -2.8405 -2.2467
  157SAPE   H7S17492   4.324   6.005   6.770 -1.6773  1.0903  2.5218
  157SAPE   C2817493   4.349   6.196   6.859 -0.4140 -0.4392  0.3634
  157SAPE   H8R17494   4.343   6.260   6.770 -0.9877 -0.0444  0.6732
  157SAPE   C2917495   4.314   6.233   6.987  0.3367 -0.5108 -0.0597
  157SAPE   H9R17496   4.263   6.328   7.007  0.6765 -0.2786 -0.2770
  157SAPE  C21017497   4.339   6.160   7.116 -0.1919  0.1230  0.1320
  157SAPE  H10R17498   4.285   6.063   7.122  0.8460 -0.4781 -0.0095
  157SAPE  H10S17499   4.277   6.223   7.184 -1.3663  0.0788 -0.8471
  157SAPE  C21117500   4.485   6.150   7.151 -0.5663  0.5295 -0.0710
  157SAPE  H11R17501   4.558   6.183   7.076 -0.0304  0.3947  0.3921
  157SAPE  C21217502   4.543   6.106   7.263  1.0734  0.0630  1.0546
  157SAPE  H12R17503   4.651   6.128   7.270  1.3943 -1.0937 -0.0035
  157SAPE  C21317504   4.472   6.051   7.386 -0.3698 -0.6622 -0.2614
  157SAPE  H13R17505   4.380   5.993   7.366 -2.0406  2.2198 -1.4989
  157SAPE  H13S17506   4.433   6.140   7.440 -1.8496 -1.4612  0.0642
  157SAPE  C21417507   4.555   5.961   7.470 -0.6880 -0.2848  0.8183
  157SAPE  H14R17508   4.548   5.857   7.433 -1.2247  0.1213 -0.2730
  157SAPE  C21517509   4.644   5.994   7.567  0.0618 -0.7833  0.0150
  157SAPE  H15R17510   4.705   5.914   7.612  1.8191  0.6858  0.3612
  157SAPE  C21617511   4.683   6.126   7.628  0.9411  0.4671 -0.1674
  157SAPE  H16R17512   4.649   6.209   7.562  1.7471 -0.6395 -2.0571
  157SAPE  H16S17513   4.793   6.132   7.620  1.0383 -1.1358 -0.2606
  157SAPE  C21717514   4.649   6.159   7.772  0.6127  0.4485 -0.1012
  157SAPE  H17R17515   4.546   6.121   7.783  1.2156 -1.1460  0.3217
  157SAPE  H17S17516   4.651   6.268   7.792  2.2085  0.2377  1.0780
  157SAPE  C21817517   4.737   6.078   7.878  0.2135  0.5031 -0.3600
  157SAPE  H18R17518   4.826   6.136   7.912 -1.0895  1.1735  2.1589
  157SAPE  H18S17519   4.772   5.987   7.825 -0.8932  0.3505 -0.8411
  157SAPE  C21917520   4.653   6.035   7.991 -0.1671 -0.3750  0.3211
  157SAPE  H19R17521   4.710   5.974   8.064 -1.6367  0.8218  2.5988
  157SAPE  H19S17522   4.574   5.972   7.944 -0.3995  2.5292 -3.7144
  157SAPE  C22017523   4.597   6.150   8.069 -0.3430  0.2204 -0.0238
  157SAPE  H20R17524   4.674   6.223   8.101  0.6924 -0.5734 -0.5999
  157SAPE  H20S17525   4.546   6.120   8.163  2.7206 -1.7736  1.1728
  157SAPE  H20T17526   4.523   6.209   8.011 -0.5066  0.0690  0.0279
  157SAPE   C3317527   4.311   5.368   6.991 -0.3364 -0.3943 -0.0178
  157SAPE   H3X17528   4.223   5.305   7.018  0.1538 -0.5751  1.1949
  157SAPE   H3Y17529   4.280   5.475   7.000 -0.0337 -0.2828 -0.3050
  157SAPE   C3417530   4.407   5.334   7.105 -0.4439  0.8212 -0.4514
  157SAPE   H4X17531   4.487   5.411   7.099 -1.0440  1.3868 -1.4105
  157SAPE   H4Y17532   4.454   5.235   7.091 -2.7244 -0.3184 -0.4791
  157SAPE   C3517533   4.340   5.336   7.241  0.2300 -0.2628  1.1340
  157SAPE   H5X17534   4.249   5.272   7.238 -0.7287  1.0883  0.1426
  157SAPE   H5Y17535   4.295   5.436   7.260 -2.4058 -1.5118  2.0230
  157SAPE   C3617536   4.430   5.310   7.361 -0.2017  1.0261  0.1720
  157SAPE   H6X17537   4.501   5.396   7.369  1.4450 -0.0243 -2.0650
  157SAPE   H6Y17538   4.495   5.224   7.332 -1.4793  0.1972 -0.2865
  157SAPE   C3717539   4.355   5.293   7.488  0.4526  0.0576 -0.0316
  157SAPE   H7X17540   4.280   5.213   7.473  1.5477 -1.5123  2.3150
  157SAPE   H7Y17541   4.313   5.395   7.499 -0.6285 -0.2444 -1.1294
  157SAPE   C3817542   4.440   5.264   7.607 -0.2529 -0.1539  0.4659
  157SAPE   H8X17543   4.541   5.308   7.597 -0.0941 -0.9997 -2.9224
  157SAPE   H8Y17544   4.443   5.153   7.612 -0.9653 -0.1244  2.4170
  157SAPE   C3917545   4.379   5.307   7.752  0.3165  0.2587 -0.2223
  157SAPE   H9X17546   4.269   5.293   7.749  0.1904  0.4343  2.0467
  157SAPE   H9Y17547   4.404   5.414   7.766  2.4239 -0.4326  1.8809
  157SAPE  C31017548   4.431   5.222   7.871  0.3666 -0.0581  0.1918
  157SAPE  H10X17549   4.538   5.251   7.871  0.0600  1.1705 -0.8924
  157SAPE  H10Y17550   4.431   5.116   7.839  2.7304  0.5037 -1.9524
  157SAPE  C31117551   4.347   5.243   7.999  1.2680  0.2663  0.5478
  157SAPE  H11X17552   4.244   5.210   7.973  1.5933 -1.9183  1.7550
  157SAPE  H11Y17553   4.345   5.351   8.024  0.9134 -0.3639  3.5997
  157SAPE  C31217554   4.394   5.167   8.123  0.3385  0.2737 -0.1533
  157SAPE  H12X17555   4.503   5.179   8.141  0.4071 -2.6509  2.1652
  157SAPE  H12Y17556   4.392   5.061   8.088  3.3429 -0.3945  1.3955
  157SAPE  C31317557   4.309   5.198   8.237 -0.2601 -0.4247  0.1281
  157SAPE  H13X17558   4.206   5.183   8.198 -0.5660  1.7993 -0.0298
  157SAPE  H13Y17559   4.316   5.302   8.275 -1.2713 -0.2255 -0.2185
  157SAPE  C31417560   4.335   5.100   8.362  0.1009 -0.0460  0.2500
  157SAPE  H14X17561   4.446   5.088   8.363  0.4814  2.4699 -1.5661
  157SAPE  H14Y17562   4.300   4.998   8.334  1.1062 -0.1943 -0.5483
  157SAPE  C31517563   4.271   5.135   8.499 -0.3137 -0.0256 -0.4927
  157SAPE  H15X17564   4.271   5.034   8.546  0.8727  0.5087  0.7393
  157SAPE  H15Y17565   4.163   5.160   8.494 -0.2255  0.6865  0.6120
  157SAPE  C31617566   4.362   5.228   8.578 -0.3557 -0.3179  0.1142
  157SAPE  H16X17567   4.394   5.315   8.516  0.7544  0.0252  1.1390
  157SAPE  H16Y17568   4.456   5.176   8.608  0.1897  0.5161 -0.1090
  157SAPE  C31717569   4.288   5.291   8.690 -0.3860  0.0396 -0.0963
  157SAPE  H17X17570   4.226   5.214   8.739 -2.2053  0.5507 -1.5082
  157SAPE  H17Y17571   4.222   5.372   8.653 -0.8477  1.6781  3.7789
  157SAPE  C31817572   4.380   5.361   8.792 -0.5599  0.7736 -0.4116
  157SAPE  H18X17573   4.443   5.435   8.739 -0.8728  1.0025 -0.4707
  157SAPE  H18Y17574   4.455   5.290   8.834  1.4689  1.9613 -1.8745
  157SAPE  H18Z17575   4.323   5.407   8.876 -0.8650 -0.5149  0.1110
  158SAPE     N17576   6.648   4.463   5.799 -0.4400  0.0847 -0.7449
  158SAPE   HN117577   6.642   4.552   5.745  0.5087  0.0826 -0.8765
  158SAPE   HN217578   6.614   4.378   5.750  0.4219 -2.0389  2.0372
  158SAPE   HN317579   6.594   4.460   5.888  0.9383  0.2699  0.1436
  158SAPE   C1217580   6.789   4.445   5.840  0.4172 -0.1118  0.5065
  158SAPE  H12A17581   6.849   4.426   5.749 -0.6147  1.8271 -0.6248
  158SAPE  H12B17582   6.783   4.348   5.895  1.4763 -2.0015 -2.4250
  158SAPE   C1117583   6.849   4.563   5.919  0.2639 -0.9821  0.4119
  158SAPE  H11A17584   6.845   4.644   5.843 -2.2226 -1.4180 -0.0247
  158SAPE  H11B17585   6.950   4.531   5.950  0.8006  0.8510  0.6787
  158SAPE     P17586   6.808   4.735   6.103  0.3722 -0.2914 -0.0657
  158SAPE   O1317587   6.923   4.715   6.199 -0.0267  0.1755 -0.3205
  158SAPE   O1417588   6.814   4.844   6.001 -0.4854 -0.0727  0.1218
  158SAPE   O1217589   6.775   4.601   6.035 -0.2001  0.8369 -0.7167
  158SAPE   O1117590   6.674   4.753   6.187  0.4138 -0.1467  0.6211
  158SAPE    C117591   6.542   4.727   6.135  0.1838 -0.2227 -0.8963
  158SAPE    HA17592   6.489   4.822   6.115  2.6254  1.2959 -0.6265
  158SAPE    HB17593   6.545   4.683   6.033  1.5991 -1.0252 -0.5373
  158SAPE    C217594   6.462   4.636   6.228  0.2422  0.2678  0.9096
  158SAPE    HS17595   6.385   4.580   6.171  0.9165  1.9990 -1.8782
  158SAPE   O2117596   6.404   4.728   6.321  0.2601 -0.1330 -0.0395
  158SAPE   C2117597   6.289   4.684   6.374 -0.1001 -0.1224  0.1837
  158SAPE   O2217598   6.224   4.595   6.327 -0.7038 -0.2330  0.2248
  158SAPE   C2217599   6.260   4.758   6.489  0.4730  0.4829  0.3519
  158SAPE   H2R17600   6.348   4.765   6.556  0.4454  1.6455  0.2934
  158SAPE   H2S17601   6.232   4.861   6.456  0.8561 -0.0982 -1.9672
  158SAPE    C317602   6.552   4.536   6.297  0.1896  0.4327 -0.2728
  158SAPE    HX17603   6.629   4.588   6.357  0.2981  0.0878 -0.1111
  158SAPE    HY17604   6.606   4.482   6.216 -1.7192 -2.1911  0.0681
  158SAPE   O3117605   6.476   4.431   6.362 -0.5937 -0.0500  0.3347
  158SAPE   C3117606   6.507   4.428   6.495  0.9308 -0.1347 -0.2664
  158SAPE   O3217607   6.549   4.516   6.562 -0.4303  0.1026 -0.2718
  158SAPE   C3217608   6.468   4.288   6.551 -0.3398  0.3950 -0.8820
  158SAPE   H2X17609   6.533   4.218   6.494 -2.4591 -2.2329 -0.2642
  158SAPE   H2Y17610   6.366   4.253   6.527 -0.5985  0.6185 -0.1522
  158SAPE   C2317611   6.127   4.726   6.566 -0.0652  1.1779 -0.3017
  158SAPE   H3R17612   6.131   4.617   6.584 -1.2203  0.7167 -2.4912
  158SAPE   H3S17613   6.034   4.742   6.507 -1.1402  0.7563  1.2364
  158SAPE   C2417614   6.128   4.795   6.708  0.1768  0.5050 -0.6859
  158SAPE   H4R17615   6.213   4.757   6.769 -1.1804 -0.8789  0.4129
  158SAPE   H4S17616   6.034   4.754   6.749  0.5168 -1.0458 -1.3464
  158SAPE   C2517617   6.121   4.939   6.684  0.4927 -0.0326  0.1731
  158SAPE   H5R17618   6.205   4.983   6.629 -1.3440  1.3291 -1.6814
  158SAPE   C2617619   6.008   5.009   6.694  0.0738  0.1421  0.1300
  158SAPE   H6R17620   6.024   5.112   6.661  1.5147 -0.2645 -0.5081
  158SAPE   C2717621   5.874   4.975   6.743  0.6357  0.5689 -0.1208
  158SAPE   H7R17622   5.828   5.060   6.798 -2.4293 -1.0167 -0.0196
  158SAPE   H7S17623   5.880   4.904   6.828  0.5659  1.6097  0.7778
  158SAPE   C2817624   5.797   4.923   6.620  0.2768 -0.2745  0.1091
  158SAPE   H8R17625   5.838   4.847   6.552 -0.7825  1.5264 -2.7267
  158SAPE   C2917626   5.669   4.967   6.600  0.9309 -0.3539  0.3660
  158SAPE   H9R17627   5.614   4.934   6.510  0.0598 -0.0465  0.7829
  158SAPE  C21017628   5.590   5.063   6.685 -0.2560 -0.0698 -0.4494
  158SAPE  H10R17629   5.651   5.154   6.705 -0.9547 -0.1274  2.3353
  158SAPE  H10S17630   5.577   5.024   6.788  0.4580  0.2028 -0.2534
  158SAPE  C21117631   5.451   5.109   6.640  0.4052  0.3741  0.0777
  158SAPE  H11R17632   5.414   5.072   6.544  0.2780  1.5246 -0.3285
  158SAPE  C21217633   5.369   5.198   6.714  0.3387  0.1253 -0.0270
  158SAPE  H12R17634   5.268   5.214   6.673 -0.1971 -2.3337  0.2305
  158SAPE  C21317635   5.419   5.266   6.842  0.8506  0.1307  1.0311
  158SAPE  H13R17636   5.530   5.252   6.848  1.0835  1.5203  0.2770
  158SAPE  H13S17637   5.362   5.210   6.918  0.9361 -2.2213 -0.5222
  158SAPE  C21417638   5.388   5.410   6.860  1.2517  0.1951  0.6047
  158SAPE  H14R17639   5.312   5.452   6.792 -0.0853 -1.8461  0.7579
  158SAPE  C21517640   5.426   5.498   6.957  0.5124 -0.3900  0.1033
  158SAPE  H15R17641   5.376   5.596   6.951 -1.9944 -1.6944 -2.8592
  158SAPE  C21617642   5.505   5.475   7.084  0.2826  0.5123  0.1039
  158SAPE  H16R17643   5.595   5.538   7.089  0.1642  0.7315 -0.4825
  158SAPE  H16S17644   5.539   5.369   7.087 -1.1137  0.0065 -0.6948
  158SAPE  C21717645   5.448   5.520   7.225 -0.5859  0.6086  0.1626
  158SAPE  H17R17646   5.423   5.628   7.215 -1.5475  0.3920  0.1424
  158SAPE  H17S17647   5.518   5.502   7.310 -0.6187 -2.2456 -0.3115
  158SAPE  C21817648   5.321   5.447   7.271 -1.2116  0.1278  0.3879
  158SAPE  H18R17649   5.253   5.441   7.183 -0.2963  0.1615 -0.3444
  158SAPE  H18S17650   5.264   5.508   7.344 -4.0675 -1.7054 -0.1275
  158SAPE  C21917651   5.357   5.315   7.334  0.2552 -0.6228 -0.8378
  158SAPE  H19R17652   5.428   5.338   7.416 -0.6297  2.5421 -0.8432
  158SAPE  H19S17653   5.413   5.248   7.265  1.3544 -1.8572  1.1510
  158SAPE  C22017654   5.231   5.241   7.390 -0.7899  0.0170 -1.1703
  158SAPE  H20R17655   5.272   5.154   7.447  1.8605  1.8305 -0.1262
  158SAPE  H20S17656   5.180   5.201   7.300  0.1311 -1.5761 -1.0169
  158SAPE  H20T17657   5.166   5.296   7.462  1.2275 -0.0181  0.8034
  158SAPE   C3317658   6.486   4.270   6.700  0.0491  0.6356 -0.5624
  158SAPE   H3X17659   6.423   4.184   6.731  1.2832 -0.1536 -0.1913
  158SAPE   H3Y17660   6.441   4.357   6.752  3.1512  1.1158  1.5676
  158SAPE   C3417661   6.629   4.261   6.759  0.5160 -0.4221 -0.2167
  158SAPE   H4X17662   6.695   4.347   6.736 -2.3048  1.9339 -0.1680
  158SAPE   H4Y17663   6.691   4.176   6.724  2.2137  1.0387 -0.8952
  158SAPE   C3517664   6.628   4.242   6.913 -0.1322  0.6557 -0.0447
  158SAPE   H5X17665   6.729   4.214   6.949  0.6773  1.9834 -1.1788
  158SAPE   H5Y17666   6.553   4.167   6.945 -0.1013 -0.9548 -3.3009
  158SAPE   C3617667   6.597   4.381   6.981 -0.6287  0.1667  0.6402
  158SAPE   H6X17668   6.495   4.406   6.944 -0.9157 -0.9174  0.6675
  158SAPE   H6Y17669   6.662   4.458   6.935 -1.4413  0.0754 -0.7300
  158SAPE   C3717670   6.609   4.390   7.133 -0.2724  0.3889 -0.1283
  158SAPE   H7X17671   6.689   4.317   7.158  0.4852  0.3255 -2.4585
  158SAPE   H7Y17672   6.640   4.493   7.160 -1.0912  0.9243 -1.1533
  158SAPE   C3817673   6.480   4.364   7.198  0.4765 -0.5287  0.4153
  158SAPE   H8X17674   6.486   4.255   7.220 -1.1469 -0.8750 -0.6899
  158SAPE   H8Y17675   6.390   4.375   7.134  1.0285  0.9875 -0.1375
  158SAPE   C3917676   6.461   4.438   7.332 -0.1032 -0.1463 -0.2536
  158SAPE   H9X17677   6.430   4.542   7.310  0.0535  0.1030  0.6712
  158SAPE   H9Y17678   6.554   4.435   7.393  0.0916  0.8008 -0.4927
  158SAPE  C31017679   6.349   4.381   7.417 -1.1230 -0.1371  0.2268
  158SAPE  H10X17680   6.359   4.273   7.443  0.4181  0.2716  1.4734
  158SAPE  H10Y17681   6.251   4.392   7.366 -1.1141 -1.7627 -0.2162
  158SAPE  C31117682   6.336   4.447   7.559  0.3808  0.7276  0.5212
  158SAPE  H11X17683   6.235   4.428   7.601  0.5248  0.0797  0.5915
  158SAPE  H11Y17684   6.353   4.556   7.548 -0.1122  1.0025  2.2546
  158SAPE  C31217685   6.421   4.382   7.669  0.1907  1.0464 -0.6514
  158SAPE  H12X17686   6.520   4.430   7.648 -0.0555  1.0913 -1.7972
  158SAPE  H12Y17687   6.415   4.273   7.650 -2.6504  1.2370 -1.2162
  158SAPE  C31317688   6.377   4.418   7.807  0.5194 -0.2511  0.1451
  158SAPE  H13X17689   6.274   4.387   7.831  0.3069  1.7289  2.1612
  158SAPE  H13Y17690   6.389   4.528   7.819 -1.3980  0.0908 -0.6861
  158SAPE  C31417691   6.449   4.346   7.920 -0.9567  0.3004  0.0495
  158SAPE  H14X17692   6.560   4.344   7.909 -0.9197 -2.0754  0.2930
  158SAPE  H14Y17693   6.415   4.240   7.917  0.1943 -0.0640 -1.8825
  158SAPE  C31517694   6.438   4.410   8.055  0.2981  0.4045 -0.1022
  158SAPE  H15X17695   6.332   4.439   8.074  0.2902 -0.6740  1.6479
  158SAPE  H15Y17696   6.499   4.503   8.061  2.5387 -1.0398  0.4419
  158SAPE  C31617697   6.493   4.323   8.173 -0.3730 -0.3557 -0.5272
  158SAPE  H16X17698   6.596   4.285   8.155  0.4697  0.3754  2.2200
  158SAPE  H16Y17699   6.429   4.233   8.168  1.2521 -1.5406 -0.6372
  158SAPE  C31717700   6.472   4.396   8.306  0.5434 -0.1578 -0.5526
  158SAPE  H17X17701   6.545   4.479   8.322  0.2592 -0.0263  0.0879
  158SAPE  H17Y17702   6.476   4.326   8.392 -1.9412  0.3440  0.0447
  158SAPE  C31817703   6.329   4.448   8.314  0.4442  0.4516  0.1104
  158SAPE  H18X17704   6.296   4.479   8.416 -0.3807  1.4059 -0.4278
  158SAPE  H18Y17705   6.249   4.373   8.296  0.2164  0.2915  1.5962
  158SAPE  H18Z17706   6.308   4.538   8.253 -1.5021  0.9746  1.4326
  159SAPE     N17707   3.671   0.025   5.888  0.0339 -0.0109  0.0697
  159SAPE   HN117708   3.622   0.115   5.904 -0.0340  0.5028 -2.5476
  159SAPE   HN217709   3.770   0.030   5.859 -0.1271  0.2006 -0.4626
  159SAPE   HN317710   3.622  -0.016   5.806  0.7861 -0.3895 -0.1987
  159SAPE   C1217711   3.657  -0.062   6.014 -0.0969  0.3463 -0.3028
  159SAPE  H12A17712   3.740  -0.136   6.013 -0.3189  0.0947 -0.1330
  159SAPE  H12B17713   3.557  -0.109   6.007 -1.0212  1.6895  2.4927
  159SAPE   C1117714   3.653   0.031   6.136  0.3893  0.2179 -0.6159
  159SAPE  H11A17715   3.631  -0.021   6.232 -1.0049  1.8897  0.0142
  159SAPE  H11B17716   3.566   0.099   6.127 -0.0416 -0.2771 -0.2578
  159SAPE     P17717   3.867   0.113   6.271  0.0242 -0.1536 -0.0122
  159SAPE   O1317718   4.004   0.146   6.218  0.4962 -0.0377  0.0315
  159SAPE   O1417719   3.800   0.208   6.367 -0.4036 -0.2149 -0.4128
  159SAPE   O1217720   3.772   0.111   6.152  0.2154  0.1695  0.6211
  159SAPE   O1117721   3.871  -0.037   6.318  0.5011  0.7373  0.1863
  159SAPE    C117722   3.968  -0.126   6.272 -0.0389 -0.5451  0.2496
  159SAPE    HA17723   3.955  -0.134   6.162 -1.4218 -0.4840  0.3963
  159SAPE    HB17724   4.068  -0.089   6.304  0.1375  0.4148 -1.3206
  159SAPE    C217725   3.945  -0.268   6.330  0.0581 -0.0523  0.3302
  159SAPE    HS17726   3.843  -0.298   6.301  0.2452 -1.3246  0.9128
  159SAPE   O2117727   3.959  -0.268   6.471  0.1329  0.2219  0.7803
  159SAPE   C2117728   3.906  -0.372   6.529 -0.0250 -0.0776  0.5094
  159SAPE   O2217729   3.854  -0.467   6.474 -0.7398 -0.1636  0.1791
  159SAPE   C2217730   3.912  -0.355   6.680 -0.1907 -0.4598  0.3873
  159SAPE   H2R17731   4.018  -0.373   6.708 -0.2486 -2.2727 -0.4425
  159SAPE   H2S17732   3.885  -0.249   6.699 -1.0549 -0.7032  0.5409
  159SAPE    C317733   4.046  -0.378   6.264 -0.5493 -0.4743  0.8105
  159SAPE    HX17734   4.008  -0.362   6.161  0.8190 -0.8290  0.2317
  159SAPE    HY17735   4.021  -0.480   6.302  0.2644 -0.2941  1.8988
  159SAPE   O3117736   4.188  -0.356   6.274 -0.9801 -0.7651  0.8585
  159SAPE   C3117737   4.236  -0.396   6.389  0.2414 -0.3219  0.2660
  159SAPE   O3217738   4.169  -0.450   6.481 -0.2791  0.4860  0.4203
  159SAPE   C3217739   4.385  -0.359   6.396  0.4765  0.2694 -0.2148
  159SAPE   H2X17740   4.399  -0.249   6.410 -0.1614  0.3786 -0.3891
  159SAPE   H2Y17741   4.438  -0.385   6.301  2.6965  1.6954  0.5606
  159SAPE   C2317742   3.817  -0.448   6.752 -0.1799 -0.4511 -0.5084
  159SAPE   H3R17743   3.863  -0.549   6.745  3.6687  0.8856  1.8903
  159SAPE   H3S17744   3.716  -0.451   6.707  0.0752  1.1573 -1.2895
  159SAPE   C2417745   3.801  -0.397   6.903 -0.1779 -0.4285 -0.1827
  159SAPE   H4R17746   3.755  -0.486   6.951  1.3637 -1.1870 -0.0599
  159SAPE   H4S17747   3.738  -0.305   6.902  2.5607  1.5682  0.1214
  159SAPE   C2517748   3.930  -0.365   6.979  0.1051 -0.0321  0.1742
  159SAPE   H5R17749   4.005  -0.314   6.916  1.2493 -3.3079 -1.3416
  159SAPE   C2617750   3.967  -0.408   7.103  0.0019 -0.2661  0.0814
  159SAPE   H6R17751   4.065  -0.378   7.141  0.2341 -1.1306  0.1777
  159SAPE   C2717752   3.882  -0.500   7.192 -0.4655 -0.6223 -0.7084
  159SAPE   H7R17753   3.788  -0.539   7.147 -1.9191  0.4968  1.2421
  159SAPE   H7S17754   3.844  -0.444   7.280 -3.4884 -2.4311 -0.7156
  159SAPE   C2817755   3.964  -0.622   7.214 -0.4858  0.0849 -0.5834
  159SAPE   H8R17756   3.988  -0.689   7.130  1.6156  0.2815 -0.1968
  159SAPE   C2917757   4.019  -0.665   7.332  0.0843  0.2582  0.0203
  159SAPE   H9R17758   4.073  -0.761   7.324 -0.6808 -0.0814 -1.3171
  159SAPE  C21017759   4.008  -0.602   7.473 -0.5106  0.2960  0.7298
  159SAPE  H10R17760   3.946  -0.669   7.538 -0.9786  0.8919  0.9071
  159SAPE  H10S17761   3.955  -0.505   7.466  1.0534  1.1656  0.6881
  159SAPE  C21117762   4.148  -0.589   7.542 -0.1559  0.9013  1.1351
  159SAPE  H11R17763   4.231  -0.621   7.477 -1.7666  1.1159 -1.1636
  159SAPE  C21217764   4.167  -0.552   7.669 -0.0978  1.0414  1.0103
  159SAPE  H12R17765   4.267  -0.535   7.712  0.3948 -0.7804  0.6859
  159SAPE  C21317766   4.049  -0.531   7.762  0.6107 -0.1397  0.1942
  159SAPE  H13R17767   3.963  -0.491   7.705  2.1194  1.5259 -1.0552
  159SAPE  H13S17768   4.083  -0.451   7.832  2.3427 -1.4455  0.9288
  159SAPE  C21417769   4.012  -0.658   7.832  0.0993 -0.4873  0.2112
  159SAPE  H14R17770   3.930  -0.711   7.781 -0.5629 -0.8688  1.6143
  159SAPE  C21517771   4.063  -0.718   7.939  0.3258 -0.1304  0.0945
  159SAPE  H15R17772   4.026  -0.819   7.959 -0.5731  0.1525 -0.0815
  159SAPE  C21617773   4.173  -0.667   8.020 -0.5405 -0.0649 -0.6060
  159SAPE  H16R17774   4.217  -0.568   7.994  0.9120 -0.4319  0.3283
  159SAPE  H16S17775   4.258  -0.738   8.014  0.2243  0.7595  0.1386
  159SAPE  C21717776   4.131  -0.665   8.170  0.4317  0.6898  0.0585
  159SAPE  H17R17777   4.084  -0.762   8.196  1.2538  0.0841 -0.6617
  159SAPE  H17S17778   4.071  -0.576   8.198  2.1013  1.0031  3.0221
  159SAPE  C21817779   4.253  -0.661   8.269 -0.0200 -0.3494 -0.1759
  159SAPE  H18R17780   4.304  -0.562   8.265  2.6882 -1.6529  0.2055
  159SAPE  H18S17781   4.334  -0.729   8.235 -0.2417 -1.3330  1.1948
  159SAPE  C21917782   4.227  -0.694   8.415  0.4451 -1.0115 -0.4557
  159SAPE  H19R17783   4.322  -0.699   8.472  2.3266  1.2682 -3.0950
  159SAPE  H19S17784   4.191  -0.799   8.425  2.3062 -1.9126 -2.4034
  159SAPE  C22017785   4.114  -0.608   8.477 -0.6834  0.1405 -0.5872
  159SAPE  H20R17786   4.129  -0.498   8.467  1.9028  0.0416  1.2189
  159SAPE  H20S17787   4.114  -0.616   8.587  0.3385  1.0845 -0.5077
  159SAPE  H20T17788   4.018  -0.631   8.425 -1.1078 -1.1365  0.7065
  159SAPE   C3317789   4.460  -0.433   6.502  0.2277  0.1939 -0.1267
  159SAPE   H3X17790   4.434  -0.541   6.493  0.3631  0.2854 -2.0091
  159SAPE   H3Y17791   4.416  -0.407   6.601 -0.2591 -1.8629  0.2516
  159SAPE   C3417792   4.606  -0.405   6.497 -0.1849 -0.4997 -0.2613
  159SAPE   H4X17793   4.641  -0.331   6.422  0.8617 -2.5470 -1.8840
  159SAPE   H4Y17794   4.662  -0.495   6.463  0.4901 -0.0789 -0.2899
  159SAPE   C3517795   4.653  -0.358   6.631 -0.0029  0.1176  0.3077
  159SAPE   H5X17796   4.636  -0.433   6.711  3.5129  0.0656  1.1848
  159SAPE   H5Y17797   4.608  -0.259   6.654 -0.2704  0.0278  0.1697
  159SAPE   C3617798   4.807  -0.336   6.639  0.5372  0.2740 -0.1371
  159SAPE   H6X17799   4.847  -0.254   6.574  2.5922 -1.4312 -1.1430
  159SAPE   H6Y17800   4.851  -0.431   6.601 -1.9672 -1.3263  0.7175
  159SAPE   C3717801   4.869  -0.302   6.776  0.2017  0.2507  0.2360
  159SAPE   H7X17802   4.878  -0.192   6.781 -1.1248  0.3318  2.4322
  159SAPE   H7Y17803   4.966  -0.356   6.777 -0.2896 -0.6713  0.5979
  159SAPE   C3817804   4.794  -0.338   6.906 -0.0289 -0.9518  0.2162
  159SAPE   H8X17805   4.778  -0.448   6.907  0.7706 -1.1207 -1.3982
  159SAPE   H8Y17806   4.699  -0.280   6.902  0.1873 -0.3735  2.3885
  159SAPE   C3917807   4.854  -0.276   7.034 -1.0643  0.4090 -0.1881
  159SAPE   H9X17808   4.830  -0.168   7.044  1.5158  1.1772 -1.4171
  159SAPE   H9Y17809   4.963  -0.275   7.016 -0.8449 -0.9564  0.8814
  159SAPE  C31017810   4.824  -0.352   7.166  0.0661  0.1480 -0.0134
  159SAPE  H10X17811   4.859  -0.454   7.139  2.1230  1.0695 -1.0102
  159SAPE  H10Y17812   4.715  -0.347   7.188 -0.0540  0.4264 -0.6434
  159SAPE  C31117813   4.894  -0.304   7.296  0.6866 -0.5127 -0.5468
  159SAPE  H11X17814   4.857  -0.203   7.322  0.7311 -0.0948 -1.9922
  159SAPE  H11Y17815   5.004  -0.297   7.278  0.9771 -1.0301  0.8894
  159SAPE  C31217816   4.867  -0.397   7.415 -0.1582 -0.5812  0.3263
  159SAPE  H12X17817   4.894  -0.500   7.383  0.7652 -0.0726 -0.5947
  159SAPE  H12Y17818   4.762  -0.397   7.450  0.9324  1.0910  4.0720
  159SAPE  C31317819   4.964  -0.374   7.534 -0.2752  0.2931  0.2586
  159SAPE  H13X17820   5.021  -0.279   7.526 -0.0168  0.3206  2.0720
  159SAPE  H13Y17821   5.041  -0.454   7.533  0.4032  0.9343 -0.5285
  159SAPE  C31417822   4.892  -0.365   7.670  0.4346  0.1736 -0.5270
  159SAPE  H14X17823   4.831  -0.458   7.680  3.0838 -1.4440  2.0498
  159SAPE  H14Y17824   4.820  -0.280   7.666  0.4499  0.2196  0.0959
  159SAPE  C31517825   4.985  -0.346   7.788 -0.6319  0.5274 -0.8945
  159SAPE  H15X17826   5.034  -0.249   7.763 -0.4437  0.1457 -2.0399
  159SAPE  H15Y17827   5.060  -0.427   7.795 -1.8070 -0.5448 -0.3664
  159SAPE  C31617828   4.910  -0.325   7.920  0.0654  0.1283 -0.3317
  159SAPE  H16X17829   4.856  -0.420   7.941  0.9417  0.2743  3.0164
  159SAPE  H16Y17830   4.841  -0.238   7.905  1.3654  1.0877 -0.9403
  159SAPE  C31717831   5.003  -0.287   8.037  0.1116  0.9176  0.2354
  159SAPE  H17X17832   5.062  -0.199   8.005  1.1503 -0.0398 -0.5775
  159SAPE  H17Y17833   5.068  -0.373   8.064  1.3452  1.4387 -0.9910
  159SAPE  C31817834   4.927  -0.243   8.168  0.3274  0.1475 -0.0329
  159SAPE  H18X17835   4.973  -0.163   8.229 -0.2544  0.6516 -0.2411
  159SAPE  H18Y17836   4.914  -0.330   8.237  0.2230  0.3276  0.1761
  159SAPE  H18Z17837   4.828  -0.197   8.145  0.3371  0.9728  1.4472
  160SAPE     N17838   0.104   5.663   6.375  0.4757  0.1387  0.1548
  160SAPE   HN117839   0.063   5.616   6.459 -1.3210  2.7045  0.8048
  160SAPE   HN217840   0.181   5.602   6.340 -0.2003 -0.0089 -1.1305
  160SAPE   HN317841   0.143   5.756   6.401  0.4292  0.6251 -1.4352
  160SAPE   C1217842  -0.010   5.689   6.271  0.2689 -0.7583  0.6862
  160SAPE  H12A17843   0.043   5.728   6.181 -1.3062 -0.0120  0.0419
  160SAPE  H12B17844  -0.071   5.768   6.319  1.1324  0.3953 -0.0479
  160SAPE   C1117845  -0.090   5.565   6.224  0.4236  0.0874 -0.0689
  160SAPE  H11A17846  -0.014   5.507   6.168  1.1460  1.5708 -0.7035
  160SAPE  H11B17847  -0.173   5.589   6.154  1.2804 -0.7014 -1.4133
  160SAPE     P17848  -0.273   5.538   6.411  0.1899 -0.2712 -0.0568
  160SAPE   O1317849  -0.281   5.686   6.436  0.3536  0.2965  0.5918
  160SAPE   O1417850  -0.391   5.471   6.350 -0.6607 -0.3685 -0.4785
  160SAPE   O1217851  -0.142   5.491   6.334 -0.2178  0.1615  0.0454
  160SAPE   O1117852  -0.243   5.462   6.541  0.6556  0.4836  0.0183
  160SAPE    C117853  -0.200   5.317   6.539  0.1796  0.4950  0.0240
  160SAPE    HA17854  -0.256   5.247   6.473 -0.5551  0.9323  0.1753
  160SAPE    HB17855  -0.094   5.324   6.506  0.3046 -1.2546 -0.0424
  160SAPE    C217856  -0.191   5.253   6.689  1.3505  0.7865  1.0825
  160SAPE    HS17857  -0.126   5.163   6.684  0.2372  0.0184 -2.0407
  160SAPE   O2117858  -0.329   5.227   6.724 -0.5427 -0.2100  0.6506
  160SAPE   C2117859  -0.354   5.145   6.824 -0.1672  0.3105 -0.6479
  160SAPE   O2217860  -0.278   5.061   6.875 -0.1143 -0.0413  0.3111
  160SAPE   C2217861  -0.491   5.157   6.870  0.3507 -0.1346 -0.3134
  160SAPE   H2R17862  -0.503   5.257   6.917 -0.7945 -0.2960 -0.2140
  160SAPE   H2S17863  -0.559   5.165   6.781  0.4849  0.7585 -0.3486
  160SAPE    C317864  -0.123   5.351   6.784 -0.2923 -0.8590 -0.6584
  160SAPE    HX17865  -0.179   5.447   6.780  0.2259 -0.5948 -1.7399
  160SAPE    HY17866  -0.018   5.366   6.753  0.2490 -0.9122  1.0500
  160SAPE   O3117867  -0.127   5.308   6.919  0.2467  0.5766 -0.3232
  160SAPE   C3117868  -0.040   5.230   6.961 -0.6043  0.5829  0.0313
  160SAPE   O3217869   0.060   5.186   6.900 -0.0464  0.3386  0.0381
  160SAPE   C3217870  -0.073   5.187   7.110 -0.2325 -0.1801 -0.1787
  160SAPE   H2X17871   0.022   5.141   7.143  0.4013  1.5864  0.6001
  160SAPE   H2Y17872  -0.155   5.112   7.103  0.4339 -0.7996 -1.8450
  160SAPE   C2317873  -0.525   5.055   6.988  0.0649  0.0231 -0.1411
  160SAPE   H3R17874  -0.495   4.950   6.969  2.3799  0.6187 -0.1495
  160SAPE   H3S17875  -0.634   5.033   6.990  0.5028 -2.3200  1.1558
  160SAPE   C2417876  -0.475   5.106   7.129  0.1552 -0.2303  0.6490
  160SAPE   H4R17877  -0.531   5.194   7.167 -0.3474  1.1351 -2.7979
  160SAPE   H4S17878  -0.365   5.120   7.130  0.0764  0.6933 -0.7374
  160SAPE   C2517879  -0.514   4.994   7.229 -0.3651 -0.2965  0.8108
  160SAPE   H5R17880  -0.554   4.903   7.182 -0.6617 -0.3582  1.1767
  160SAPE   C2617881  -0.545   5.008   7.359 -1.1565  0.3221 -0.0567
  160SAPE   H6R17882  -0.571   4.923   7.423 -0.2773 -0.8504 -1.1947
  160SAPE   C2717883  -0.540   5.134   7.443  0.0440  0.5410  0.4577
  160SAPE   H7R17884  -0.460   5.197   7.398 -0.4170 -0.5379 -2.0653
  160SAPE   H7S17885  -0.510   5.110   7.547  1.1802  0.1328  0.0553
  160SAPE   C2817886  -0.682   5.198   7.441 -0.4399 -0.6838 -0.1939
  160SAPE   H8R17887  -0.732   5.208   7.344 -1.5026  5.6793  0.5953
  160SAPE   C2917888  -0.738   5.248   7.551  0.0770  0.3889 -0.0208
  160SAPE   H9R17889  -0.842   5.284   7.544 -0.0022  0.5440  1.7033
  160SAPE  C21017890  -0.678   5.258   7.693  0.0766  0.3809  0.3645
  160SAPE  H10R17891  -0.714   5.352   7.741 -2.9135 -1.0785  1.2637
  160SAPE  H10S17892  -0.569   5.276   7.687  0.4295 -1.8862 -1.1416
  160SAPE  C21117893  -0.694   5.148   7.796 -0.3667 -0.3024  0.5050
  160SAPE  H11R17894  -0.686   5.045   7.760  0.1158 -0.2302  0.3952
  160SAPE  C21217895  -0.734   5.165   7.928  0.1988 -1.5563  0.2969
  160SAPE  H12R17896  -0.717   5.074   7.988  0.5117 -2.1997 -0.7209
  160SAPE  C21317897  -0.771   5.286   8.015  0.7610  0.6079  0.1593
  160SAPE  H13R17898  -0.824   5.357   7.947  2.5655  1.7491 -0.1200
  160SAPE  H13S17899  -0.680   5.335   8.055 -0.7777  1.1175  3.2632
  160SAPE  C21417900  -0.858   5.246   8.133 -0.3235  0.2182  0.2791
  160SAPE  H14R17901  -0.962   5.229   8.099 -0.0574  0.4923 -0.6991
  160SAPE  C21517902  -0.817   5.226   8.264 -0.4717  0.3164  0.6944
  160SAPE  H15R17903  -0.884   5.188   8.342 -1.3090 -0.7801 -0.5273
  160SAPE  C21617904  -0.676   5.244   8.322 -0.0317  0.6096  0.2592
  160SAPE  H16R17905  -0.606   5.263   8.239  0.2055  0.2632  0.3753
  160SAPE  H16S17906  -0.647   5.147   8.368  2.3405  2.5349  3.2381
  160SAPE  C21717907  -0.660   5.354   8.429 -0.5015 -0.0253 -0.9020
  160SAPE  H17R17908  -0.564   5.330   8.481 -1.1758  1.3794  1.1111
  160SAPE  H17S17909  -0.744   5.346   8.501  0.4912 -1.7721  0.1482
  160SAPE  C21817910  -0.669   5.492   8.371  0.1704 -0.2319 -0.0704
  160SAPE  H18R17911  -0.741   5.502   8.287  1.2286 -3.0700 -1.4519
  160SAPE  H18S17912  -0.569   5.503   8.324  0.2119 -0.2853  0.0062
  160SAPE  C21917913  -0.691   5.608   8.480 -0.1638  0.1159  0.9604
  160SAPE  H19R17914  -0.789   5.595   8.531 -0.7014  1.2566  0.2391
  160SAPE  H19S17915  -0.702   5.698   8.417 -0.1897 -1.1649 -0.9513
  160SAPE  C22017916  -0.582   5.633   8.585 -0.4057  0.2612 -0.4982
  160SAPE  H20R17917  -0.623   5.701   8.662  0.4167  0.0623  0.1277
  160SAPE  H20S17918  -0.501   5.693   8.538 -0.8931  3.1159  2.0309
  160SAPE  H20T17919  -0.561   5.539   8.641 -1.6977 -0.3830 -1.0496
  160SAPE   C3317920  -0.102   5.310   7.204 -0.0651  0.0384 -0.7127
  160SAPE   H3X17921  -0.193   5.365   7.173 -0.3340  1.3550  2.0416
  160SAPE   H3Y17922  -0.019   5.385   7.208 -0.2318  0.1947 -0.0798
  160SAPE   C3417923  -0.141   5.249   7.338  0.6873  0.0365 -0.0637
  160SAPE   H4X17924  -0.054   5.190   7.372 -1.2596 -2.5863  0.6932
  160SAPE   H4Y17925  -0.223   5.175   7.325  1.5405 -0.8380 -0.5703
  160SAPE   C3517926  -0.187   5.357   7.438  0.8513 -0.2501 -0.1689
  160SAPE   H5X17927  -0.295   5.381   7.429  0.4228 -1.2642  1.7138
  160SAPE   H5Y17928  -0.123   5.448   7.434  0.5591 -0.0628 -0.6623
  160SAPE   C3617929  -0.178   5.290   7.578 -0.2769 -0.2212 -0.3952
  160SAPE   H6X17930  -0.071   5.268   7.594 -0.0523  0.1510 -1.3290
  160SAPE   H6Y17931  -0.229   5.191   7.572 -0.0074 -0.3418 -0.7143
  160SAPE   C3717932  -0.222   5.375   7.698 -0.5357 -0.2778 -0.1900
  160SAPE   H7X17933  -0.332   5.356   7.703 -0.7279  0.8121  0.1989
  160SAPE   H7Y17934  -0.198   5.481   7.675 -1.1208 -0.2336 -0.6131
  160SAPE   C3817935  -0.160   5.328   7.827  0.1472  0.0998  0.0334
  160SAPE   H8X17936  -0.050   5.337   7.824  0.2276 -0.9158 -1.1567
  160SAPE   H8Y17937  -0.198   5.226   7.851 -0.7769  0.5814  0.6867
  160SAPE   C3917938  -0.202   5.396   7.953 -0.1348  0.1433  0.0087
  160SAPE   H9X17939  -0.145   5.343   8.032  2.3444  2.1416 -0.2923
  160SAPE   H9Y17940  -0.313   5.400   7.951 -0.1649 -0.3930 -2.0488
  160SAPE  C31017941  -0.158   5.546   7.957 -0.2002 -0.4527 -0.0055
  160SAPE  H10X17942  -0.220   5.600   7.882 -0.3924 -0.0921  0.4057
  160SAPE  H10Y17943  -0.054   5.559   7.921 -1.2243 -1.7681 -3.9098
  160SAPE  C31117944  -0.186   5.607   8.093  0.2011 -0.3530  0.4397
  160SAPE  H11X17945  -0.144   5.556   8.183 -0.9416 -2.3140 -0.0693
  160SAPE  H11Y17946  -0.296   5.621   8.105  0.4241  1.8844  0.2614
  160SAPE  C31217947  -0.136   5.755   8.092  1.0376 -0.7450 -0.3448
  160SAPE  H12X17948  -0.168   5.801   7.996 -1.0317  1.6776  1.3645
  160SAPE  H12Y17949  -0.027   5.753   8.114  0.9172 -3.2404  0.3490
  160SAPE  C31317950  -0.201   5.838   8.208 -0.2849  0.2478  0.2203
  160SAPE  H13X17951  -0.309   5.847   8.182 -0.6173 -1.9569  0.6610
  160SAPE  H13Y17952  -0.160   5.942   8.211  1.0569 -0.2457 -0.2531
  160SAPE  C31417953  -0.190   5.776   8.349  0.3844 -0.2306  0.3516
  160SAPE  H14X17954  -0.082   5.778   8.375  0.3910  2.0134  0.3416
  160SAPE  H14Y17955  -0.217   5.669   8.337  0.8376 -0.4102  0.8954
  160SAPE  C31517956  -0.285   5.839   8.450  0.7985 -0.0022  0.9314
  160SAPE  H15X17957  -0.257   5.783   8.542  0.9419 -1.7784 -0.1536
  160SAPE  H15Y17958  -0.389   5.824   8.414  0.6301  2.0178  0.4339
  160SAPE  C31617959  -0.273   5.999   8.459 -0.3233  0.7897 -0.0236
  160SAPE  H16X17960  -0.332   6.046   8.378 -1.3176  0.0647  0.2558
  160SAPE  H16Y17961  -0.165   6.021   8.447 -0.3963  0.6723 -0.9565
  160SAPE  C31717962  -0.315   6.045   8.597 -0.8816 -0.0744  0.5726
  160SAPE  H17X17963  -0.278   6.147   8.620  2.0089 -0.8327 -0.3138
  160SAPE  H17Y17964  -0.258   5.979   8.666 -0.5560 -0.6756 -0.2521
  160SAPE  C31817965  -0.465   6.033   8.629  0.2640 -0.3053 -0.1220
  160SAPE  H18X17966  -0.533   6.068   8.548 -1.7498 -3.7831 -0.1191
  160SAPE  H18Y17967  -0.498   6.086   8.721  1.7530  1.0383 -0.3267
  160SAPE  H18Z17968  -0.490   5.928   8.656 -1.1896  0.1530  0.4402
  161SOPE     N17969   0.002   1.441  10.564  0.1478  0.1961  0.0871
  161SOPE   HN117970  -0.019   1.469  10.466 -1.5513  3.4049  1.2409
  161SOPE   HN217971   0.105   1.440  10.558  0.1176  1.0827 -0.9347
  161SOPE   HN317972  -0.034   1.345  10.586 -0.2234  0.5440  1.0434
  161SOPE   C1217973  -0.028   1.535  10.671 -0.5454  0.0344  0.3919
  161SOPE  H12A17974   0.022   1.628  10.635  1.4099 -0.1925  2.2893
  161SOPE  H12B17975   0.031   1.507  10.761  1.5089 -0.7496 -1.1227
  161SOPE   C1117976  -0.170   1.536  10.701 -0.1344  0.6931  0.1486
  161SOPE  H11A17977  -0.224   1.549  10.605  0.3710 -0.2407 -0.2759
  161SOPE  H11B17978  -0.198   1.625  10.762 -1.1728  0.6573 -0.2480
  161SOPE     P17979  -0.337   1.332  10.725  0.2400  0.2242 -0.1008
  161SOPE   O1317980  -0.455   1.413  10.777  0.2258 -0.2671 -0.2201
  161SOPE   O1417981  -0.332   1.188  10.762  0.0100 -0.2076  0.4172
  161SOPE   O1217982  -0.202   1.410  10.763  0.2587  0.5110  0.5009
  161SOPE   O1117983  -0.333   1.350  10.561  0.0365  0.5766  0.1212
  161SOPE    C117984  -0.431   1.423  10.485 -0.2986 -0.3351  0.4581
  161SOPE    HA17985  -0.383   1.465  10.394  2.5657  0.1806  2.1202
  161SOPE    HB17986  -0.474   1.513  10.534  0.0489  0.9516 -1.4731
  161SOPE    C217987  -0.551   1.338  10.440  0.4184 -0.1460 -0.3739
  161SOPE    HS17988  -0.612   1.330  10.533  1.4562  1.3944  0.4752
  161SOPE   O2117989  -0.518   1.196  10.412  0.0604  0.5168 -0.0319
  161SOPE   C2117990  -0.631   1.114  10.393 -0.2747  0.1239  0.4554
  161SOPE   O2217991  -0.744   1.138  10.426 -0.0576 -0.4314  0.4707
  161SOPE   C2217992  -0.586   0.980  10.324  0.2867 -0.1878  0.0902
  161SOPE   H2R17993  -0.549   0.919  10.409  1.9553  2.4907  1.4247
  161SOPE   H2S17994  -0.497   0.999  10.260 -0.4199  1.4806 -0.4537
  161SOPE    C317995  -0.634   1.401  10.329 -0.0652 -0.0314  0.0504
  161SOPE    HX17996  -0.665   1.503  10.361 -0.3789  0.1242 -0.7302
  161SOPE    HY17997  -0.726   1.341  10.314 -1.9772  2.5425  0.8421
  161SOPE   O3117998  -0.557   1.401  10.208  0.0013  0.4521 -0.3648
  161SOPE   C3117999  -0.597   1.488  10.121 -0.9706 -0.4206  0.0291
  161SOPE   O3218000  -0.692   1.561  10.134  0.7595 -0.2235  0.1321
  161SOPE   C3218001  -0.502   1.478   9.992  0.5611  0.4507  0.1514
  161SOPE   H2X18002  -0.492   1.370   9.971  1.4411  0.7790 -1.2321
  161SOPE   H2Y18003  -0.399   1.503  10.028  1.3889  0.7320 -2.2476
  161SOPE   C2318004  -0.693   0.916  10.241  0.3237  0.2292 -0.2846
  161SOPE   H3R18005  -0.781   0.897  10.305  1.7005 -2.3479  1.0087
  161SOPE   H3S18006  -0.651   0.819  10.208  1.0316  0.5005 -0.1982
  161SOPE   C2418007  -0.738   0.995  10.118  0.0167 -0.2717  0.8831
  161SOPE   H4R18008  -0.834   0.949  10.086  0.4845 -1.1087  0.6465
  161SOPE   H4S18009  -0.765   1.100  10.141 -0.1408 -0.1164  0.0159
  161SOPE   C2518010  -0.638   0.985  10.009  0.2411  0.0153  0.2157
  161SOPE   H5R18011  -0.539   0.998  10.057  0.9483  2.7856 -1.7502
  161SOPE   H5S18012  -0.639   0.886   9.959 -0.9601  0.3365 -0.4369
  161SOPE   C2618013  -0.652   1.092   9.895  0.0413  0.6471  0.0558
  161SOPE   H6R18014  -0.745   1.074   9.837 -1.0944  0.1041  1.9654
  161SOPE   H6S18015  -0.654   1.197   9.931 -3.6145  1.2500 -1.4742
  161SOPE   C2718016  -0.537   1.079   9.790  0.3306 -0.0530  0.0867
  161SOPE   H7R18017  -0.443   1.104   9.844 -0.6591  1.1849  1.3125
  161SOPE   H7S18018  -0.520   0.973   9.758  1.3576 -0.8534  2.9639
  161SOPE   C2818019  -0.559   1.179   9.674  0.1378  0.1307  0.5666
  161SOPE   H8R18020  -0.586   1.277   9.720 -1.8334  0.3995 -1.0127
  161SOPE   H8S18021  -0.466   1.197   9.617 -0.4638  0.2076 -0.4164
  161SOPE   C2918022  -0.676   1.137   9.585 -0.0112 -0.1004  0.0666
  161SOPE   H9118023  -0.766   1.107   9.641 -0.5942 -0.1594 -0.8880
  161SOPE  C21018024  -0.676   1.131   9.451 -0.1463 -0.0074 -0.2307
  161SOPE  H10118025  -0.760   1.081   9.400  0.3012 -1.6229  0.5345
  161SOPE  C21118026  -0.555   1.161   9.367  0.1540 -0.4613 -0.1745
  161SOPE  H11R18027  -0.475   1.089   9.395 -0.1797  0.2942  3.1900
  161SOPE  H11S18028  -0.516   1.262   9.390 -1.3892 -0.3791  2.4278
  161SOPE  C21218029  -0.577   1.158   9.219 -0.7683 -0.3664 -0.5094
  161SOPE  H12R18030  -0.658   1.232   9.200 -1.2519 -0.5059  0.8989
  161SOPE  H12S18031  -0.616   1.059   9.184 -0.5461 -0.2019 -1.2485
  161SOPE  C21318032  -0.460   1.208   9.125 -0.4908  0.5739  0.3508
  161SOPE  H13R18033  -0.373   1.140   9.134  0.3912  1.1042 -2.9917
  161SOPE  H13S18034  -0.436   1.313   9.150  0.2564  0.3425  0.6212
  161SOPE  C21418035  -0.490   1.175   8.978 -0.5049 -0.4039 -0.2463
  161SOPE  H14R18036  -0.440   1.253   8.917 -1.2230 -0.5317 -1.0173
  161SOPE  H14S18037  -0.596   1.194   8.953 -0.0672  2.9841  0.0398
  161SOPE  C21518038  -0.460   1.031   8.926  0.3123  0.1108 -0.5158
  161SOPE  H15R18039  -0.506   0.956   8.994 -1.6382  0.6778 -1.1192
  161SOPE  H15S18040  -0.352   1.014   8.907 -0.2016 -1.6688 -2.1314
  161SOPE  C21618041  -0.523   1.005   8.790 -0.1586 -0.1165  0.4959
  161SOPE  H16R18042  -0.493   1.082   8.716 -0.1916 -1.1218 -0.6077
  161SOPE  H16S18043  -0.634   1.002   8.790 -0.1595 -0.1618  0.8461
  161SOPE  C21718044  -0.476   0.862   8.749  0.5029  0.5408  0.5816
  161SOPE  H17R18045  -0.496   0.794   8.835 -0.3497  1.8963  1.4825
  161SOPE  H17S18046  -0.367   0.860   8.724  0.1048 -0.0734 -1.3056
  161SOPE  C21818047  -0.548   0.803   8.620  0.1993  0.3305  0.0968
  161SOPE  H18R18048  -0.533   0.692   8.615  0.5375  0.4139 -2.0370
  161SOPE  H18S18049  -0.494   0.848   8.534  0.0714  2.1416  0.9316
  161SOPE  H18T18050  -0.656   0.827   8.628  0.3109  1.0506 -0.4964
  161SOPE   C3318051  -0.543   1.559   9.867  0.4211 -0.4041 -0.0111
  161SOPE   H3X18052  -0.566   1.661   9.907 -2.7854 -1.3527  0.9113
  161SOPE   H3Y18053  -0.637   1.517   9.824 -0.7034 -0.4377  2.2911
  161SOPE   C3418054  -0.432   1.568   9.760  0.9164  0.2688  0.2855
  161SOPE   H4X18055  -0.412   1.469   9.715  2.3713  0.7375 -0.1658
  161SOPE   H4Y18056  -0.332   1.605   9.791  1.8217 -1.7739 -0.0909
  161SOPE   C3518057  -0.474   1.651   9.636  0.1404 -0.4662 -0.7636
  161SOPE   H5X18058  -0.487   1.756   9.668 -0.5256 -0.9052  0.4424
  161SOPE   H5Y18059  -0.574   1.619   9.598 -0.1025 -0.4255 -0.1663
  161SOPE   C3618060  -0.374   1.632   9.519  0.2996  0.4457  0.3559
  161SOPE   H6X18061  -0.398   1.527   9.489 -2.5983  1.5606 -1.7339
  161SOPE   H6Y18062  -0.270   1.652   9.551  0.4011  0.6940 -0.1248
  161SOPE   C3718063  -0.405   1.729   9.402  0.1639 -0.2829 -0.4261
  161SOPE   H7X18064  -0.376   1.832   9.431 -0.6464 -0.1198 -0.1773
  161SOPE   H7Y18065  -0.511   1.723   9.371  0.4991 -0.7965 -1.5268
  161SOPE   C3818066  -0.330   1.699   9.280  0.4138  0.3717 -0.0539
  161SOPE   H8X18067  -0.362   1.601   9.238  2.0387 -0.0831 -0.2957
  161SOPE   H8Y18068  -0.224   1.693   9.313  0.1346 -0.2953  0.7848
  161SOPE   C3918069  -0.346   1.810   9.175  0.1998  0.5660 -0.4473
  161SOPE   H9X18070  -0.321   1.904   9.228 -0.1117 -0.7436  2.2346
  161SOPE   H9Y18071  -0.454   1.815   9.148  0.4242  1.9587 -1.1442
  161SOPE  C31018072  -0.256   1.785   9.059 -0.5467  0.8468 -0.5149
  161SOPE  H10X18073  -0.152   1.765   9.093 -0.4973 -1.8044 -1.9786
  161SOPE  H10Y18074  -0.259   1.869   8.987 -0.9688  0.8848 -0.4554
  161SOPE  C31118075  -0.306   1.658   8.976  0.1618  0.4676  0.1858
  161SOPE  H11X18076  -0.406   1.671   8.929 -0.3550 -0.1477  1.0916
  161SOPE  H11Y18077  -0.316   1.572   9.046  1.4567 -0.1354 -0.3431
  161SOPE  C31218078  -0.210   1.617   8.864  0.7022 -0.4504 -0.5756
  161SOPE  H12X18079  -0.116   1.584   8.913 -0.7006 -2.2211  1.1213
  161SOPE  H12Y18080  -0.183   1.704   8.801  0.6849 -1.9099 -2.7092
  161SOPE  C31318081  -0.249   1.498   8.771  0.4937  0.6189 -0.3598
  161SOPE  H13X18082  -0.262   1.410   8.836  0.6093 -0.3351 -1.5831
  161SOPE  H13Y18083  -0.166   1.482   8.698  0.2962  0.0513 -0.4638
  161SOPE  C31418084  -0.386   1.515   8.710  0.1331 -0.0407  0.2477
  161SOPE  H14X18085  -0.382   1.609   8.650  2.1955 -0.0587  0.3021
  161SOPE  H14Y18086  -0.465   1.537   8.785  1.1688  0.7157  1.1494
  161SOPE  C31518087  -0.435   1.402   8.619  0.2830 -0.0701 -0.8493
  161SOPE  H15X18088  -0.432   1.310   8.682 -0.7386 -0.0504 -0.7589
  161SOPE  H15Y18089  -0.372   1.377   8.530 -1.2409 -3.2415 -1.1892
  161SOPE  C31618090  -0.572   1.424   8.566  0.7772  0.0957  0.0412
  161SOPE  H16X18091  -0.560   1.507   8.492  1.0181  0.6995  0.7401
  161SOPE  H16Y18092  -0.625   1.477   8.647  1.4410 -1.4740  1.5455
  161SOPE  C31718093  -0.643   1.300   8.515 -0.1258 -0.6159  0.1018
  161SOPE  H17X18094  -0.749   1.329   8.498  0.2145 -0.5666 -2.3592
  161SOPE  H17Y18095  -0.645   1.227   8.598 -1.7709  0.4715  1.0669
  161SOPE  C31818096  -0.578   1.254   8.383  0.0233  0.2188  0.2286
  161SOPE  H18X18097  -0.587   1.324   8.297  1.6658  0.7023  0.4083
  161SOPE  H18Y18098  -0.622   1.159   8.346 -1.4534  0.1832  1.9549
  161SOPE  H18Z18099  -0.470   1.231   8.400  0.2016  2.5542  2.7927
  162SOPE     N18100   4.225   1.456  11.234  0.3446 -0.4626 -0.7926
  162SOPE   HN118101   4.198   1.548  11.196 -1.3129 -0.4691  0.2564
  162SOPE   HN218102   4.180   1.433  11.325  0.2383 -0.5231 -0.8591
  162SOPE   HN318103   4.328   1.445  11.241  0.6185  0.7702 -2.4393
  162SOPE   C1218104   4.162   1.350  11.145 -0.2171 -0.6851 -0.5351
  162SOPE  H12A18105   4.056   1.382  11.138 -0.8742 -1.1452  4.2112
  162SOPE  H12B18106   4.169   1.254  11.201  0.5680 -0.9639 -1.0859
  162SOPE   C1118107   4.246   1.336  11.015 -0.2868 -0.0579  0.1251
  162SOPE  H11A18108   4.236   1.438  10.971  2.1072 -0.6311 -1.9745
  162SOPE  H11B18109   4.201   1.270  10.938  0.6523  1.3125 -1.6849
  162SOPE     P18110   4.477   1.224  10.976  0.1325 -0.2497  0.5533
  162SOPE   O1318111   4.462   1.087  11.031  0.1699  0.4194  0.2430
  162SOPE   O1418112   4.607   1.276  10.955 -0.0038 -0.7265 -0.1195
  162SOPE   O1218113   4.383   1.322  11.055 -0.0905 -0.3829 -0.4321
  162SOPE   O1118114   4.411   1.227  10.832 -0.1178 -0.6395  0.5892
  162SOPE    C118115   4.472   1.165  10.720  0.0688 -0.8609  0.1868
  162SOPE    HA18116   4.539   1.086  10.759  2.9612  1.5000  0.3038
  162SOPE    HB18117   4.544   1.240  10.682 -1.5567  0.2547 -0.8161
  162SOPE    C218118   4.373   1.100  10.616 -0.0187 -0.1448  0.4179
  162SOPE    HS18119   4.432   1.056  10.533 -1.0118 -0.8628  0.0909
  162SOPE   O2118120   4.286   1.198  10.567 -0.1262 -0.2105 -0.4749
  162SOPE   C2118121   4.338   1.293  10.489 -0.1692 -0.2293 -0.2308
  162SOPE   O2218122   4.452   1.296  10.448 -0.1856  0.0111  0.1616
  162SOPE   C2218123   4.232   1.397  10.452  0.2624 -0.1793  0.4699
  162SOPE   H2R18124   4.230   1.481  10.525 -1.8172 -1.4773  2.0168
  162SOPE   H2S18125   4.133   1.348  10.455  0.4685 -0.9100 -2.0225
  162SOPE    C318126   4.297   0.986  10.677  0.0878  0.0345 -0.3995
  162SOPE    HX18127   4.244   1.027  10.765 -0.7922  0.9167 -1.3144
  162SOPE    HY18128   4.375   0.918  10.717  1.7916  2.1821  0.1331
  162SOPE   O3118129   4.217   0.919  10.576 -0.1697  0.1351 -0.2868
  162SOPE   C3118130   4.091   0.913  10.608 -0.4086 -0.5695  0.0673
  162SOPE   O3218131   4.039   0.963  10.706  0.1528  0.6157  0.3259
  162SOPE   C3218132   4.021   0.826  10.506  0.1477  0.4635 -0.6136
  162SOPE   H2X18133   3.939   0.789  10.571  1.2156  1.0368  1.1233
  162SOPE   H2Y18134   4.081   0.738  10.475 -0.0265 -0.1880  0.8280
  162SOPE   C2318135   4.246   1.449  10.308 -0.3405  0.0638  0.6042
  162SOPE   H3R18136   4.353   1.453  10.281 -0.0368 -0.4248  1.6908
  162SOPE   H3S18137   4.200   1.550  10.306 -0.7300 -0.1047  0.9782
  162SOPE   C2418138   4.189   1.360  10.193 -0.0521  0.2744 -0.8183
  162SOPE   H4R18139   4.240   1.261  10.185 -1.4774 -0.5082 -0.5466
  162SOPE   H4S18140   4.088   1.330  10.228  0.2358 -0.4288 -0.5767
  162SOPE   C2518141   4.191   1.440  10.054  0.2578  0.0976 -0.0889
  162SOPE   H5R18142   4.132   1.532  10.069 -0.1948 -0.2500  0.2706
  162SOPE   H5S18143   4.298   1.469  10.039  0.6214  0.0361  2.0786
  162SOPE   C2618144   4.137   1.355   9.935 -0.3694  0.2887  0.5931
  162SOPE   H6R18145   4.227   1.298   9.904  0.8736  2.8911 -0.8484
  162SOPE   H6S18146   4.056   1.286   9.968  1.9176 -1.7713  2.2915
  162SOPE   C2718147   4.077   1.446   9.831  0.0531  0.5035 -0.1185
  162SOPE   H7R18148   4.024   1.375   9.764 -0.0220 -1.5843  2.0236
  162SOPE   H7S18149   3.999   1.508   9.881 -0.4729  0.2630 -0.6363
  162SOPE   C2818150   4.180   1.539   9.764 -0.1972 -0.5738 -0.0293
  162SOPE   H8R18151   4.131   1.633   9.731  1.6707  0.2315 -0.6487
  162SOPE   H8S18152   4.248   1.578   9.843 -2.5587 -0.3617  2.0526
  162SOPE   C2918153   4.248   1.461   9.651 -0.3960 -0.0467 -0.3316
  162SOPE   H9118154   4.300   1.368   9.680  0.2473  0.2710 -0.4573
  162SOPE  C21018155   4.223   1.494   9.520 -0.3638 -0.1617  0.2148
  162SOPE  H10118156   4.278   1.435   9.444  0.0371  0.5378 -0.0549
  162SOPE  C21118157   4.144   1.610   9.461  0.4227  0.1723 -0.2608
  162SOPE  H11R18158   4.104   1.684   9.533  0.3724 -0.9711  0.9246
  162SOPE  H11S18159   4.048   1.572   9.420  0.3256  0.6278 -0.4552
  162SOPE  C21218160   4.217   1.665   9.339 -0.4361 -0.2401  0.2879
  162SOPE  H12R18161   4.326   1.681   9.350  0.1544 -0.8576 -3.2567
  162SOPE  H12S18162   4.162   1.757   9.307  0.4305  0.3126  0.3564
  162SOPE  C21318163   4.206   1.580   9.211 -0.1380  0.3670  0.0537
  162SOPE  H13R18164   4.111   1.523   9.208  0.7222 -1.1351 -0.0585
  162SOPE  H13S18165   4.284   1.500   9.216 -1.1106 -1.4229 -5.8097
  162SOPE  C21418166   4.230   1.661   9.089  0.5119  0.3547  0.6016
  162SOPE  H14R18167   4.304   1.743   9.104 -0.2285  1.4340 -1.2815
  162SOPE  H14S18168   4.131   1.705   9.068  0.7881  1.1786  0.9974
  162SOPE  C21518169   4.262   1.569   8.966  0.0760  0.2099 -0.1220
  162SOPE  H15R18170   4.198   1.480   8.980 -0.0208  0.3816  0.5534
  162SOPE  H15S18171   4.365   1.528   8.962 -0.0163 -0.2149  1.4301
  162SOPE  C21618172   4.240   1.637   8.836 -0.4402  0.7445 -0.0457
  162SOPE  H16R18173   4.333   1.686   8.800 -0.6279  1.2404  0.1396
  162SOPE  H16S18174   4.167   1.720   8.838  0.2953  1.3997 -0.2170
  162SOPE  C21718175   4.197   1.535   8.725 -0.3559 -0.4726  0.2336
  162SOPE  H17R18176   4.100   1.491   8.754  1.0497 -4.4518 -0.4684
  162SOPE  H17S18177   4.262   1.445   8.731 -1.8101 -1.8995 -3.0672
  162SOPE  C21818178   4.189   1.592   8.586  0.3055 -0.5487  0.4594
  162SOPE  H18R18179   4.282   1.648   8.563 -0.0125 -0.2138 -0.0386
  162SOPE  H18S18180   4.106   1.666   8.588 -0.5010 -1.3426 -1.4400
  162SOPE  H18T18181   4.162   1.517   8.509 -0.1790 -0.5575  0.6383
  162SOPE   C3318182   3.966   0.902  10.386  1.1869 -0.5272  0.6110
  162SOPE   H3X18183   3.956   0.831  10.301  0.1027 -1.4047  1.4389
  162SOPE   H3Y18184   4.051   0.969  10.361  1.6626 -1.3347  0.0508
  162SOPE   C3418185   3.838   0.996  10.394 -1.0105  0.0215 -0.6846
  162SOPE   H4X18186   3.857   1.078  10.466 -2.3076  1.3269 -1.7594
  162SOPE   H4Y18187   3.753   0.928  10.414 -0.1049 -1.6838 -2.3230
  162SOPE   C3518188   3.813   1.055  10.253 -0.2111  0.0694 -0.0733
  162SOPE   H5X18189   3.755   0.974  10.203  1.4123 -1.0615 -0.2222
  162SOPE   H5Y18190   3.903   1.067  10.188  0.9125  1.6952  1.7027
  162SOPE   C3618191   3.734   1.179  10.257  0.1258 -0.8362  0.3446
  162SOPE   H6X18192   3.762   1.259  10.329 -0.5447  0.0770 -0.3821
  162SOPE   H6Y18193   3.629   1.162  10.287  0.0539 -1.5024 -0.2488
  162SOPE   C3718194   3.724   1.237  10.112  0.3606 -0.2138 -0.3327
  162SOPE   H7X18195   3.698   1.162  10.035  3.8222  0.1086 -2.0253
  162SOPE   H7Y18196   3.831   1.266  10.099  1.7650 -1.4213  5.3890
  162SOPE   C3818197   3.645   1.368  10.097  0.1534 -0.1087  0.7303
  162SOPE   H8X18198   3.640   1.431  10.188 -2.3435  0.9517 -0.0394
  162SOPE   H8Y18199   3.538   1.344  10.077 -0.2327  0.5834  1.9050
  162SOPE   C3918200   3.695   1.460   9.986 -0.0502 -0.7122 -0.1215
  162SOPE   H9X18201   3.801   1.489  10.002 -0.3249  0.5856 -0.5305
  162SOPE   H9Y18202   3.644   1.558   9.995  3.2905  1.1617  0.0978
  162SOPE  C31018203   3.669   1.392   9.849  0.1994  0.4893 -0.0522
  162SOPE  H10X18204   3.562   1.361   9.840  0.3758 -0.7363  1.5084
  162SOPE  H10Y18205   3.730   1.299   9.851 -1.2919 -0.5552 -0.8978
  162SOPE  C31118206   3.721   1.467   9.727 -0.4425 -0.1754 -0.0032
  162SOPE  H11X18207   3.824   1.507   9.739 -0.7372  0.3613  0.7937
  162SOPE  H11Y18208   3.655   1.555   9.713 -1.7859 -1.0986  0.3701
  162SOPE  C31218209   3.701   1.388   9.603 -0.6081  0.2582 -0.8365
  162SOPE  H12X18210   3.591   1.374   9.593 -0.9581  1.0448  1.2991
  162SOPE  H12Y18211   3.760   1.298   9.633 -0.5810  0.0840 -1.4045
  162SOPE  C31318212   3.752   1.451   9.476 -0.1387 -0.2597  0.4075
  162SOPE  H13X18213   3.852   1.489   9.507 -0.2179 -0.1304  0.5079
  162SOPE  H13Y18214   3.681   1.528   9.439 -0.4881 -1.0481 -0.5962
  162SOPE  C31418215   3.770   1.359   9.348  0.4774 -0.3613  0.3849
  162SOPE  H14X18216   3.680   1.293   9.349 -1.4634  2.0926  2.9766
  162SOPE  H14Y18217   3.865   1.302   9.360  1.2936  0.6316 -1.1273
  162SOPE  C31518218   3.796   1.433   9.220 -0.0854 -0.2519  0.1669
  162SOPE  H15X18219   3.852   1.529   9.223 -0.7964  0.2030 -0.7057
  162SOPE  H15Y18220   3.697   1.459   9.178 -0.0981 -0.6682 -0.0705
  162SOPE  C31618221   3.857   1.341   9.109  0.7242 -0.2164 -0.0795
  162SOPE  H16X18222   3.815   1.238   9.102 -1.0882  0.5843 -3.0414
  162SOPE  H16Y18223   3.964   1.335   9.137  0.7241  0.6428  0.1554
  162SOPE  C31718224   3.845   1.416   8.967  0.5863  0.8888 -0.1433
  162SOPE  H17X18225   3.896   1.514   8.965  2.2824  0.0292 -1.1512
  162SOPE  H17Y18226   3.735   1.428   8.956  0.3066  0.4482  1.7050
  162SOPE  C31818227   3.897   1.329   8.853 -0.3027  0.3930 -0.2817
  162SOPE  H18X18228   3.830   1.241   8.849  0.2384 -0.0447  0.0276
  162SOPE  H18Y18229   4.004   1.299   8.857  0.0893  1.7154 -0.6123
  162SOPE  H18Z18230   3.884   1.375   8.753  2.7766  2.3147  0.0806
  163SOPE     N18231   5.124   5.949  10.469 -0.5702  0.2519  0.4016
  163SOPE   HN118232   5.141   5.862  10.523 -0.3164  0.5584  0.8172
  163SOPE   HN218233   5.080   6.015  10.537 -1.1499 -0.5363  0.8063
  163SOPE   HN318234   5.062   5.914  10.393  0.7418 -1.9299  0.2749
  163SOPE   C1218235   5.252   5.990  10.406 -0.4082  0.2413  0.1274
  163SOPE  H12A18236   5.230   6.085  10.354  1.4795 -0.4904 -2.1991
  163SOPE  H12B18237   5.276   5.919  10.323  1.2600  1.0732 -0.1387
  163SOPE   C1118238   5.356   6.032  10.507 -0.2180 -0.4973 -0.0687
  163SOPE  H11A18239   5.321   6.123  10.560  2.1803  0.2994  0.3143
  163SOPE  H11B18240   5.453   6.064  10.463  0.7342 -0.1506  2.1427
  163SOPE     P18241   5.470   5.967  10.722 -0.0379  0.0313 -0.2771
  163SOPE   O1318242   5.442   5.870  10.829  0.5768 -0.3759  0.4588
  163SOPE   O1418243   5.452   6.109  10.752  0.5040 -0.7360 -0.5652
  163SOPE   O1218244   5.379   5.934  10.601 -0.2711  0.4243 -0.3671
  163SOPE   O1118245   5.607   5.943  10.666 -0.0930 -0.0236 -0.4746
  163SOPE    C118246   5.665   5.815  10.630 -0.0522  0.6906 -0.9430
  163SOPE    HA18247   5.586   5.737  10.622 -0.9766  1.4118  0.6933
  163SOPE    HB18248   5.734   5.784  10.711 -1.7784  1.0292  0.7151
  163SOPE    C218249   5.732   5.818  10.496  0.4949 -0.2030  0.4968
  163SOPE    HS18250   5.820   5.885  10.512 -0.0420  0.7685 -0.4278
  163SOPE   O2118251   5.639   5.865  10.391 -0.3972 -0.0740 -0.5044
  163SOPE   C2118252   5.696   5.944  10.300  0.0611 -0.5537 -0.7206
  163SOPE   O2218253   5.815   5.973  10.290  0.3947  0.0832 -0.1220
  163SOPE   C2218254   5.582   5.998  10.208 -0.1633  0.1808 -0.2590
  163SOPE   H2R18255   5.585   6.109  10.200 -1.2759  0.3820  1.3923
  163SOPE   H2S18256   5.485   5.977  10.259  0.3866  0.4225  0.9392
  163SOPE    C318257   5.783   5.674  10.450  0.2253  0.0264 -0.4249
  163SOPE    HX18258   5.701   5.599  10.445  0.1266  0.0659  0.3554
  163SOPE    HY18259   5.843   5.645  10.539  2.7012 -0.6785 -2.2320
  163SOPE   O3118260   5.870   5.676  10.337 -0.0182  0.1846  0.1316
  163SOPE   C3118261   5.817   5.642  10.220  0.1122 -0.8426 -0.0590
  163SOPE   O3218262   5.701   5.599  10.206  0.1872  0.2017 -0.1226
  163SOPE   C3218263   5.916   5.666  10.106 -0.5350 -0.4571  0.5174
  163SOPE   H2X18264   6.013   5.636  10.150 -1.6980 -1.7010  2.3974
  163SOPE   H2Y18265   5.914   5.775  10.083 -1.7473 -1.1427 -3.3882
  163SOPE   C2318266   5.573   5.932  10.069  0.1117 -0.2246  0.4845
  163SOPE   H3R18267   5.522   5.834  10.084  1.6499 -0.9581  1.0600
  163SOPE   H3S18268   5.671   5.896  10.031  0.4154  1.4789 -0.4544
  163SOPE   C2418269   5.503   6.017   9.968 -0.1409 -0.4450 -0.7636
  163SOPE   H4R18270   5.399   6.042   9.998  0.0981  0.3622 -0.5853
  163SOPE   H4S18271   5.553   6.116   9.964 -2.2482  0.7870  0.8862
  163SOPE   C2518272   5.514   5.975   9.818  0.1376  0.4414 -0.2684
  163SOPE   H5R18273   5.622   5.982   9.792 -0.1935  0.4878 -1.6888
  163SOPE   H5S18274   5.499   5.866   9.807 -0.3621  0.6787 -2.3304
  163SOPE   C2618275   5.427   6.053   9.713 -0.3896  0.7046 -0.5894
  163SOPE   H6R18276   5.321   6.047   9.745 -0.5127  0.9161 -0.9550
  163SOPE   H6S18277   5.463   6.157   9.726 -0.5818  0.9628 -2.0137
  163SOPE   C2718278   5.442   5.999   9.577 -0.4350  0.5808 -0.2404
  163SOPE   H7R18279   5.549   5.996   9.545 -0.0544 -0.4125  1.0086
  163SOPE   H7S18280   5.421   5.890   9.572  0.4362  0.1804  2.7690
  163SOPE   C2818281   5.360   6.088   9.488  0.4741  0.0429  0.2991
  163SOPE   H8R18282   5.255   6.100   9.525  0.8824  0.4995  1.3439
  163SOPE   H8S18283   5.406   6.188   9.506  1.8474 -0.1926 -1.6234
  163SOPE   C2918284   5.358   6.062   9.343  0.0331 -0.0434  0.1176
  163SOPE   H9118285   5.311   5.964   9.323 -1.3200  0.6256 -0.0521
  163SOPE  C21018286   5.394   6.131   9.235 -0.3963 -0.1275  0.3255
  163SOPE  H10118287   5.384   6.085   9.136  0.1599  2.6136 -1.1174
  163SOPE  C21118288   5.456   6.271   9.237 -0.5146 -0.4418 -0.4252
  163SOPE  H11R18289   5.502   6.292   9.336  0.1474  0.9299 -0.9897
  163SOPE  H11S18290   5.379   6.344   9.203 -0.1883 -0.2162 -0.6896
  163SOPE  C21218291   5.569   6.282   9.129  0.1440 -0.1036  0.2171
  163SOPE  H12R18292   5.635   6.194   9.139  1.5001  0.5495 -2.3041
  163SOPE  H12S18293   5.630   6.372   9.150  1.9702 -1.1510 -0.4243
  163SOPE  C21318294   5.507   6.306   8.992  0.3026  0.5494 -0.3856
  163SOPE  H13R18295   5.411   6.362   8.992  0.4122  0.7428 -0.7490
  163SOPE  H13S18296   5.471   6.208   8.954 -0.2980  0.8348 -0.5607
  163SOPE  C21418297   5.596   6.381   8.896 -0.7165  0.2046  0.0199
  163SOPE  H14R18298   5.685   6.314   8.897 -2.6603 -2.5736 -0.4988
  163SOPE  H14S18299   5.632   6.479   8.934  0.8935  0.0932 -1.0966
  163SOPE  C21518300   5.539   6.392   8.757  0.1824 -0.0809 -0.7628
  163SOPE  H15R18301   5.437   6.434   8.764 -0.3338 -1.4061  0.2055
  163SOPE  H15S18302   5.529   6.289   8.716 -1.6834 -1.1374  2.0748
  163SOPE  C21618303   5.632   6.475   8.658  0.0376 -0.5996 -0.1554
  163SOPE  H16R18304   5.733   6.436   8.684 -0.5647  0.1190  3.9932
  163SOPE  H16S18305   5.633   6.579   8.695  0.7042 -0.9281  0.8018
  163SOPE  C21718306   5.589   6.458   8.515 -0.6302 -0.1086  0.0208
  163SOPE  H17R18307   5.496   6.515   8.493 -1.1822 -0.7555  0.6470
  163SOPE  H17S18308   5.569   6.354   8.483  0.2653 -0.3332  0.1557
  163SOPE  C21818309   5.697   6.521   8.413  0.1851  0.5036 -0.5639
  163SOPE  H18R18310   5.796   6.482   8.444 -0.0499  0.1244 -0.2854
  163SOPE  H18S18311   5.684   6.630   8.424  0.6610  0.4495  0.6552
  163SOPE  H18T18312   5.665   6.491   8.311 -2.2906 -0.3855  0.4022
  163SOPE   C3318313   5.884   5.592   9.975  0.6671 -0.4678 -0.0447
  163SOPE   H3X18314   5.858   5.486   9.995  1.0840 -0.7018 -0.7272
  163SOPE   H3Y18315   5.982   5.583   9.923  0.4364 -0.7914 -0.4301
  163SOPE   C3418316   5.787   5.660   9.880  0.0721  1.3244  0.0239
  163SOPE   H4X18317   5.814   5.767   9.866 -0.5342  1.2936 -1.5809
  163SOPE   H4Y18318   5.686   5.655   9.926  0.8967  0.8621  1.8822
  163SOPE   C3518319   5.785   5.591   9.745 -0.2553 -0.3955 -0.3607
  163SOPE   H5X18320   5.743   5.488   9.750  0.0199 -0.4979 -0.1122
  163SOPE   H5Y18321   5.881   5.581   9.691  0.6454  2.1849  0.6493
  163SOPE   C3618322   5.704   5.673   9.645  0.1308 -0.0061 -0.9277
  163SOPE   H6X18323   5.755   5.768   9.620 -1.7558  1.0966 -0.7740
  163SOPE   H6Y18324   5.604   5.698   9.688  0.4287 -0.0405 -0.2001
  163SOPE   C3718325   5.676   5.604   9.512 -0.5822 -0.0821 -0.9175
  163SOPE   H7X18326   5.631   5.504   9.532 -1.5295  0.4476 -0.3585
  163SOPE   H7Y18327   5.772   5.607   9.456 -1.4158 -1.2637 -2.4779
  163SOPE   C3818328   5.590   5.687   9.420 -0.4499 -0.2078 -0.1014
  163SOPE   H8X18329   5.637   5.788   9.409 -0.7461 -0.3292 -3.3574
  163SOPE   H8Y18330   5.486   5.715   9.447 -0.4655 -0.3681  0.0084
  163SOPE   C3918331   5.582   5.627   9.281 -0.2124 -0.0680  0.5373
  163SOPE   H9X18332   5.530   5.531   9.300 -1.1442 -0.2477 -2.4390
  163SOPE   H9Y18333   5.685   5.592   9.257 -0.5594  0.3647 -1.8377
  163SOPE  C31018334   5.516   5.703   9.156 -0.6867  0.7640 -0.1050
  163SOPE  H10X18335   5.424   5.744   9.203 -0.3792  0.3174  0.9126
  163SOPE  H10Y18336   5.487   5.624   9.083 -0.8742  0.7092  0.0270
  163SOPE  C31118337   5.607   5.811   9.101 -0.2552  0.1759  0.3964
  163SOPE  H11X18338   5.707   5.766   9.082 -0.2476 -0.2695  1.4020
  163SOPE  H11Y18339   5.621   5.879   9.188  3.1679  1.2042 -0.8146
  163SOPE  C31218340   5.559   5.881   8.971 -0.5432 -0.2936  0.2650
  163SOPE  H12X18341   5.466   5.937   8.989  0.9437  2.0934  0.9649
  163SOPE  H12Y18342   5.549   5.808   8.888  0.2746  0.7193 -0.7670
  163SOPE  C31318343   5.667   5.981   8.919  0.3614 -0.1822  0.1639
  163SOPE  H13X18344   5.711   6.022   9.013 -0.3304  0.0136  0.4141
  163SOPE  H13Y18345   5.625   6.057   8.849  0.4852 -0.7176 -0.4923
  163SOPE  C31418346   5.771   5.904   8.837 -0.0548  0.2645 -0.5755
  163SOPE  H14X18347   5.719   5.874   8.743 -0.1256  1.6929 -1.0110
  163SOPE  H14Y18348   5.798   5.815   8.897  0.4335  1.7163  1.4540
  163SOPE  C31518349   5.900   5.981   8.795  0.3084  0.6068  0.5994
  163SOPE  H15X18350   5.968   5.906   8.748 -1.2094 -1.3751  1.4171
  163SOPE  H15Y18351   5.946   6.015   8.891  1.7481  1.9552 -0.5179
  163SOPE  C31618352   5.869   6.116   8.727  0.0462 -0.2114 -0.2333
  163SOPE  H16X18353   5.813   6.182   8.797 -0.5321 -1.7845  0.8552
  163SOPE  H16Y18354   5.803   6.099   8.639  0.2271 -0.2436 -0.3614
  163SOPE  C31718355   5.999   6.176   8.675  0.4603  0.2812 -0.5642
  163SOPE  H17X18356   6.036   6.098   8.606  0.7861 -0.7645  0.7517
  163SOPE  H17Y18357   6.073   6.181   8.758  0.1337  1.6648 -0.3222
  163SOPE  C31818358   5.976   6.310   8.600  0.0764 -0.1897 -0.2490
  163SOPE  H18X18359   6.070   6.347   8.555  0.3191 -0.0281  0.3820
  163SOPE  H18Y18360   5.929   6.385   8.667  2.0639 -0.3820  1.4741
  163SOPE  H18Z18361   5.906   6.307   8.513  0.3229 -0.2357 -0.4468
  164SOPE     N18362   2.231   5.215  10.909 -0.0072  0.0516  0.4494
  164SOPE   HN118363   2.165   5.261  10.843  0.9961 -2.2741 -2.3735
  164SOPE   HN218364   2.178   5.148  10.968  0.4994 -1.0770 -0.3491
  164SOPE   HN318365   2.289   5.285  10.960 -0.7971  1.6658 -0.7711
  164SOPE   C1218366   2.316   5.129  10.836  0.2965  0.4795  0.2593
  164SOPE  H12A18367   2.385   5.071  10.902  1.6208  3.1438  1.3846
  164SOPE  H12B18368   2.386   5.188  10.773  1.6212  0.5195  1.6993
  164SOPE   C1118369   2.238   5.034  10.736  0.9240  0.5693 -0.8378
  164SOPE  H11A18370   2.298   4.954  10.688  0.0141 -0.1795 -0.7690
  164SOPE  H11B18371   2.199   5.109  10.663 -0.8060  1.1185  0.5550
  164SOPE     P18372   1.979   4.996  10.774  0.1124 -0.0062 -0.0944
  164SOPE   O1318373   1.926   5.122  10.832 -0.3053 -0.6625  0.2176
  164SOPE   O1418374   1.905   4.880  10.824 -0.1384  0.3418 -0.1740
  164SOPE   O1218375   2.128   4.975  10.805  0.1336  0.1033 -0.2807
  164SOPE   O1118376   1.978   4.999  10.614 -0.4755 -0.2256 -0.7080
  164SOPE    C118377   1.890   4.915  10.537 -0.0617  0.5512 -0.0477
  164SOPE    HA18378   1.883   4.964  10.438 -0.6762 -1.3465 -0.9821
  164SOPE    HB18379   1.785   4.909  10.574  0.6359 -0.3769  1.9341
  164SOPE    C218380   1.939   4.771  10.524 -0.6999  0.3192  0.0888
  164SOPE    HS18381   1.943   4.734  10.629  2.0336  1.0028  0.3137
  164SOPE   O2118382   2.070   4.775  10.467 -0.1415 -0.0352  0.0964
  164SOPE   C2118383   2.158   4.696  10.510 -0.2645 -0.0406 -0.0646
  164SOPE   O2218384   2.140   4.616  10.597  0.3501  0.1275 -0.3935
  164SOPE   C2218385   2.287   4.720  10.421  0.5077  0.0309  0.7071
  164SOPE   H2R18386   2.282   4.828  10.398  0.2922  0.4944  2.7648
  164SOPE   H2S18387   2.268   4.655  10.333 -0.5485 -1.0300  1.6803
  164SOPE    C318388   1.839   4.676  10.447 -0.0078 -0.5148 -0.2786
  164SOPE    HX18389   1.747   4.684  10.508  0.1234  1.3293 -0.2808
  164SOPE    HY18390   1.870   4.569  10.447  0.3310 -0.4200 -0.1212
  164SOPE   O3118391   1.819   4.732  10.313  0.3087  0.7810 -0.4997
  164SOPE   C3118392   1.902   4.690  10.224 -0.1010 -0.7408  0.4982
  164SOPE   O3218393   1.974   4.592  10.225 -0.2414 -0.2043 -0.3185
  164SOPE   C3218394   1.902   4.784  10.108 -0.0133  0.3504 -0.0528
  164SOPE   H2X18395   1.815   4.852  10.116 -0.1814 -0.0050  1.5806
  164SOPE   H2Y18396   1.897   4.724  10.014 -1.2529 -1.6519  1.2224
  164SOPE   C2318397   2.425   4.687  10.472 -0.7835 -0.4107 -0.3097
  164SOPE   H3R18398   2.442   4.582  10.506 -0.6460 -0.1298  0.5165
  164SOPE   H3S18399   2.444   4.742  10.567 -0.1410 -2.0236  0.5343
  164SOPE   C2418400   2.532   4.728  10.366 -0.3063 -0.6479  0.0373
  164SOPE   H4R18401   2.511   4.687  10.265  1.3199 -3.3061  0.6718
  164SOPE   H4S18402   2.511   4.837  10.365 -1.0817 -0.7781  0.5370
  164SOPE   C2518403   2.682   4.715  10.396  0.8756  0.2657 -0.3011
  164SOPE   H5R18404   2.691   4.779  10.486  1.1070  0.0095 -0.1407
  164SOPE   H5S18405   2.714   4.615  10.433 -1.7025  0.2670  2.2757
  164SOPE   C2618406   2.770   4.769  10.285  0.2341  0.3832 -0.1768
  164SOPE   H6R18407   2.756   4.706  10.194  1.2369  1.0463 -0.8104
  164SOPE   H6S18408   2.731   4.869  10.256 -1.0210 -0.4047 -1.3699
  164SOPE   C2718409   2.917   4.778  10.313 -0.1148  0.5192  0.1438
  164SOPE   H7R18410   2.943   4.808  10.417  2.3433  2.8960 -1.0452
  164SOPE   H7S18411   2.964   4.680  10.293 -1.7349  0.2081 -2.7329
  164SOPE   C2818412   2.995   4.872  10.218  0.0919 -0.0461  1.0850
  164SOPE   H8R18413   2.931   4.962  10.206 -0.9101 -0.3601  3.4579
  164SOPE   H8S18414   3.089   4.907  10.266 -0.3021 -0.9182  2.5455
  164SOPE   C2918415   3.032   4.800  10.087  0.3272  0.4788  0.5945
  164SOPE   H9118416   3.101   4.717  10.103  1.5076  1.2316 -0.4471
  164SOPE  C21018417   3.014   4.828   9.958 -0.1608 -0.7033 -0.3479
  164SOPE  H10118418   3.051   4.754   9.886  2.3470 -1.1417  1.2604
  164SOPE  C21118419   2.946   4.953   9.907  0.9079 -0.4042  0.3359
  164SOPE  H11R18420   3.015   5.038   9.891 -1.4486  1.5355 -0.0653
  164SOPE  H11S18421   2.872   4.977   9.986  0.5258 -1.4948  0.3338
  164SOPE  C21218422   2.884   4.930   9.767 -0.3657 -0.2503  0.6162
  164SOPE  H12R18423   2.811   5.010   9.747  2.9071  2.7432 -0.4626
  164SOPE  H12S18424   2.821   4.839   9.758 -1.9894  0.9114 -0.1799
  164SOPE  C21318425   2.987   4.940   9.647  0.0686  0.3521 -0.4339
  164SOPE  H13R18426   3.028   4.838   9.634 -2.3304 -1.2656  3.2993
  164SOPE  H13S18427   3.071   5.006   9.678  1.4366 -1.3917 -0.3035
  164SOPE  C21418428   2.928   4.970   9.507 -0.6599  0.3552 -0.8389
  164SOPE  H14R18429   2.871   5.065   9.509  0.1655  0.8889 -2.0094
  164SOPE  H14S18430   2.854   4.891   9.480 -1.4041  0.7942 -0.1285
  164SOPE  C21518431   3.033   4.970   9.404 -0.3745  0.1847 -0.0420
  164SOPE  H15R18432   3.092   4.876   9.414  0.2353  0.6812  1.1508
  164SOPE  H15S18433   3.106   5.048   9.433 -0.0746 -0.3426  0.6648
  164SOPE  C21618434   2.985   4.996   9.264  0.1543 -0.0203 -0.7094
  164SOPE  H16R18435   2.889   5.051   9.255 -0.5137 -1.1876 -1.0166
  164SOPE  H16S18436   2.964   4.895   9.221  2.0328 -0.9075  0.3204
  164SOPE  C21718437   3.092   5.067   9.171  0.1966  1.0400  0.4219
  164SOPE  H17R18438   3.164   4.986   9.145 -0.6344  0.2657  0.4953
  164SOPE  H17S18439   3.146   5.132   9.244  0.1142  0.4975  0.9813
  164SOPE  C21818440   3.028   5.138   9.056  1.0417 -0.4026  0.5199
  164SOPE  H18R18441   2.971   5.229   9.085  0.8702 -0.3367 -0.0062
  164SOPE  H18S18442   2.948   5.078   9.007 -1.1442  3.1369 -0.6356
  164SOPE  H18T18443   3.108   5.174   8.988 -0.4139 -0.5173 -1.3426
  164SOPE   C3318444   2.033   4.870  10.101 -0.2608 -0.3376 -0.2673
  164SOPE   H3X18445   2.050   4.916  10.201  0.0979  2.9400 -1.7058
  164SOPE   H3Y18446   2.031   4.957  10.033  0.2449  0.3717  0.6035
  164SOPE   C3418447   2.163   4.791  10.068  0.6833 -0.3271  0.2453
  164SOPE   H4X18448   2.172   4.719  10.152 -0.5530  0.9372  1.5086
  164SOPE   H4Y18449   2.250   4.857  10.089 -0.3197  1.1709 -0.1775
  164SOPE   C3518450   2.176   4.725   9.931 -0.2799  0.7887 -0.6740
  164SOPE   H5X18451   2.091   4.653   9.927  0.9682 -0.7509 -0.7051
  164SOPE   H5Y18452   2.270   4.666   9.936 -0.9636 -0.2815  0.5042
  164SOPE   C3618453   2.169   4.812   9.802 -0.0218 -0.4737  0.1178
  164SOPE   H6X18454   2.235   4.900   9.817 -0.3648 -0.0584 -0.7807
  164SOPE   H6Y18455   2.065   4.844   9.780  0.3475  0.4990 -0.2559
  164SOPE   C3718456   2.223   4.735   9.676  0.0507  0.1936  0.1661
  164SOPE   H7X18457   2.150   4.654   9.654 -0.3832  0.3785  0.8672
  164SOPE   H7Y18458   2.325   4.704   9.708  0.1811  0.2145 -0.2304
  164SOPE   C3818459   2.236   4.823   9.552 -0.8215 -0.1318 -0.7764
  164SOPE   H8X18460   2.308   4.771   9.485 -0.9854 -1.5163  0.0792
  164SOPE   H8Y18461   2.283   4.915   9.593  0.3360 -0.8264 -0.5072
  164SOPE   C3918462   2.108   4.854   9.472  0.6951  0.2613  0.2815
  164SOPE   H9X18463   2.026   4.883   9.540 -1.0883 -2.1350 -0.6928
  164SOPE   H9Y18464   2.066   4.758   9.436  0.8640  1.0726 -2.2336
  164SOPE  C31018465   2.141   4.958   9.366 -0.2613 -0.2676  0.2748
  164SOPE  H10X18466   2.240   4.935   9.321  0.2497  1.2874  0.5590
  164SOPE  H10Y18467   2.152   5.058   9.413  0.1316 -0.9337  1.6767
  164SOPE  C31118468   2.036   4.964   9.254 -0.2477 -0.0327 -0.7403
  164SOPE  H11X18469   1.937   4.997   9.292 -0.5882 -2.2726  0.4701
  164SOPE  H11Y18470   2.023   4.858   9.223  1.3868  0.2639 -2.7028
  164SOPE  C31218471   2.079   5.044   9.136 -0.5992  0.4871 -0.0231
  164SOPE  H12X18472   2.167   4.993   9.093 -0.5967  0.5654 -0.1115
  164SOPE  H12Y18473   2.109   5.146   9.168 -0.4924 -0.0833  1.8029
  164SOPE  C31318474   1.964   5.044   9.033  0.4831 -0.1887 -0.5857
  164SOPE  H13X18475   1.869   5.080   9.077 -0.4429 -0.2108 -2.4682
  164SOPE  H13Y18476   1.947   4.935   9.018 -0.3514 -0.1334 -0.0979
  164SOPE  C31418477   2.017   5.116   8.907 -0.1020 -0.0591 -0.3189
  164SOPE  H14X18478   2.119   5.075   8.895  0.3472  1.6073 -3.3057
  164SOPE  H14Y18479   2.029   5.227   8.913  1.8657 -0.2814  0.4409
  164SOPE  C31518480   1.937   5.082   8.779 -0.1407  0.5132  0.1858
  164SOPE  H15X18481   1.844   5.142   8.786 -0.3320  0.1177  1.2295
  164SOPE  H15Y18482   1.904   4.976   8.777  4.1158 -0.9859 -0.4889
  164SOPE  C31618483   2.008   5.114   8.641 -0.3602  0.3975 -0.4410
  164SOPE  H16X18484   2.041   5.219   8.651  0.8641 -0.1078  1.2373
  164SOPE  H16Y18485   1.927   5.115   8.565 -0.7290  0.1193 -0.0494
  164SOPE  C31718486   2.129   5.028   8.618 -0.1835 -0.1497 -0.1456
  164SOPE  H17X18487   2.095   4.923   8.610 -0.7506  0.1192 -1.6186
  164SOPE  H17Y18488   2.196   5.038   8.707 -0.3561  1.2044 -0.1385
  164SOPE  C31818489   2.216   5.064   8.490  0.2621 -0.0328  0.0404
  164SOPE  H18X18490   2.301   4.992   8.489 -0.3259 -0.7451  0.6322
  164SOPE  H18Y18491   2.252   5.168   8.500  0.2139 -0.2219  2.9068
  164SOPE  H18Z18492   2.157   5.050   8.397 -1.7276 -3.0433  1.6172
  165SOPE     N18493   1.663   5.084  10.949 -0.5008 -0.2024  0.0544
  165SOPE   HN118494   1.728   5.124  10.879 -0.0006 -1.3505 -0.1725
  165SOPE   HN218495   1.668   4.980  10.950  1.1762 -0.1556 -0.2087
  165SOPE   HN318496   1.568   5.113  10.918 -0.4853 -1.6518 -1.5121
  165SOPE   C1218497   1.700   5.151  11.081  0.0857  0.4158  0.0715
  165SOPE  H12A18498   1.791   5.101  11.121 -0.3190  2.3116  3.7764
  165SOPE  H12B18499   1.621   5.132  11.157 -0.2929 -1.0181 -0.6537
  165SOPE   C1118500   1.729   5.300  11.071  0.6024  0.1795 -0.0809
  165SOPE  H11A18501   1.822   5.311  11.011  0.7903 -3.1256 -0.6266
  165SOPE  H11B18502   1.750   5.343  11.171 -1.4520  0.0803  0.4271
  165SOPE     P18503   1.620   5.514  10.946 -0.2073 -0.3482 -0.0104
  165SOPE   O1318504   1.733   5.598  10.997  0.2579  0.3191 -0.5934
  165SOPE   O1418505   1.486   5.575  10.952 -0.1750  0.0773 -0.6667
  165SOPE   O1218506   1.625   5.368  11.008 -0.4311 -0.3083  0.4068
  165SOPE   O1118507   1.654   5.484  10.795  0.3755 -0.1141 -0.6935
  165SOPE    C118508   1.630   5.349  10.745 -0.3541  0.2099  0.5796
  165SOPE    HA18509   1.552   5.295  10.803 -0.6748  0.6763  0.5887
  165SOPE    HB18510   1.722   5.289  10.765 -0.0612 -0.8277 -3.1061
  165SOPE    C218511   1.606   5.351  10.590 -0.3786 -0.3412  0.7640
  165SOPE    HS18512   1.551   5.259  10.562 -1.0493  0.1687  0.3701
  165SOPE   O2118513   1.734   5.366  10.521 -0.1751 -0.4055  0.0254
  165SOPE   C2118514   1.758   5.294  10.413 -0.3089  0.1030  0.7023
  165SOPE   O2218515   1.686   5.203  10.374  0.1596  0.1717 -0.0035
  165SOPE   C2218516   1.870   5.352  10.321 -0.0307  0.0127  1.1008
  165SOPE   H2R18517   1.952   5.388  10.387 -0.7535  2.5127  0.7355
  165SOPE   H2S18518   1.813   5.436  10.276  1.8305 -0.2477 -2.0442
  165SOPE    C318519   1.503   5.456  10.538 -0.1364 -0.1374  0.3751
  165SOPE    HX18520   1.570   5.543  10.521 -0.3210 -0.4612 -2.4224
  165SOPE    HY18521   1.430   5.475  10.619 -1.8687 -0.4648 -1.0456
  165SOPE   O3118522   1.445   5.436  10.404 -0.5019 -0.0216 -0.3603
  165SOPE   C3118523   1.335   5.377  10.417  0.6389  0.1554  0.2301
  165SOPE   O3218524   1.261   5.355  10.514 -0.1365 -0.5872  0.0778
  165SOPE   C3218525   1.302   5.326  10.273  0.0683 -0.1367 -0.3207
  165SOPE   H2X18526   1.384   5.254  10.253  0.6676  0.4772 -0.1210
  165SOPE   H2Y18527   1.307   5.414  10.205  0.0874 -0.5285 -0.8307
  165SOPE   C2318528   1.909   5.249  10.205  0.5909  0.1536 -0.5265
  165SOPE   H3R18529   1.822   5.202  10.154 -0.3471 -0.9396  1.9100
  165SOPE   H3S18530   1.952   5.164  10.263 -1.5371  0.8362  2.3052
  165SOPE   C2418531   2.025   5.307  10.118 -0.4469  0.8908  0.0846
  165SOPE   H4R18532   2.100   5.354  10.184 -1.5587  2.2087  0.4633
  165SOPE   H4S18533   2.073   5.226  10.060 -0.1551  1.8619 -1.0538
  165SOPE   C2518534   1.976   5.414  10.023  0.7579 -0.3272  1.3945
  165SOPE   H5R18535   1.876   5.377   9.993  1.0688  0.2345 -0.4993
  165SOPE   H5S18536   1.963   5.511  10.076 -1.3738  0.0467  0.2927
  165SOPE   C2618537   2.071   5.427   9.898 -0.6159  0.4306 -0.1401
  165SOPE   H6R18538   2.159   5.490   9.925  1.0917  0.3686 -4.6437
  165SOPE   H6S18539   2.111   5.326   9.874 -1.5894  0.1140 -0.4951
  165SOPE   C2718540   2.012   5.503   9.777  0.6039 -0.2356  0.0573
  165SOPE   H7R18541   1.953   5.591   9.812  0.3132 -0.9445  1.4484
  165SOPE   H7S18542   2.093   5.536   9.708  0.1690 -0.8460 -0.7567
  165SOPE   C2818543   1.914   5.422   9.690  0.2049  0.3084 -0.5742
  165SOPE   H8R18544   1.825   5.400   9.754  0.3335 -0.0240 -0.5089
  165SOPE   H8S18545   1.876   5.496   9.616 -0.5055  1.1335  0.5898
  165SOPE   C2918546   1.961   5.297   9.627  0.0107  0.2885  0.7091
  165SOPE   H9118547   2.004   5.219   9.692 -0.2861  0.4190  1.0643
  165SOPE  C21018548   1.949   5.258   9.498  0.9488 -0.4284  1.0137
  165SOPE  H10118549   1.965   5.151   9.479  0.3791 -0.1664 -1.1590
  165SOPE  C21118550   1.879   5.343   9.386  0.3892  0.1835  0.2638
  165SOPE  H11R18551   1.958   5.372   9.313 -0.3545 -0.1672 -0.6918
  165SOPE  H11S18552   1.838   5.433   9.435  0.7859 -0.9686  2.8669
  165SOPE  C21218553   1.763   5.274   9.317  0.1307  0.3718 -0.4185
  165SOPE  H12R18554   1.695   5.214   9.381 -0.6695 -1.2731 -2.6630
  165SOPE  H12S18555   1.807   5.194   9.253 -2.1325 -0.6699 -0.7741
  165SOPE  C21318556   1.673   5.367   9.233 -0.0527 -0.0233 -0.2793
  165SOPE  H13R18557   1.633   5.452   9.292 -1.4346  0.2049 -1.4857
  165SOPE  H13S18558   1.582   5.311   9.203 -1.5374  2.6768 -1.2144
  165SOPE  C21418559   1.738   5.410   9.100 -0.0093 -0.4184 -0.3276
  165SOPE  H14R18560   1.731   5.318   9.038  0.0655 -1.6466  1.3933
  165SOPE  H14S18561   1.844   5.432   9.124 -0.0934  0.1741 -0.4820
  165SOPE  C21518562   1.665   5.530   9.023  0.2636  0.3944  0.6410
  165SOPE  H15R18563   1.672   5.615   9.094  5.1024 -0.3142  1.2931
  165SOPE  H15S18564   1.560   5.498   9.004  1.0693 -1.7819 -0.4892
  165SOPE  C21618565   1.732   5.577   8.891  0.4512 -0.1817  0.4909
  165SOPE  H16R18566   1.727   5.495   8.816 -0.5107 -1.1492  1.5677
  165SOPE  H16S18567   1.840   5.595   8.908  0.6505 -0.6760 -0.1961
  165SOPE  C21718568   1.673   5.707   8.831  0.1880  0.0046  0.7624
  165SOPE  H17R18569   1.650   5.777   8.915 -2.3002 -1.8180  1.7229
  165SOPE  H17S18570   1.576   5.682   8.784 -0.3345 -0.2974  1.9517
  165SOPE  C21818571   1.765   5.767   8.725  0.1831  0.0293  0.6925
  165SOPE  H18R18572   1.861   5.805   8.766  0.2707  0.6241 -0.0349
  165SOPE  H18S18573   1.709   5.854   8.683 -0.6361 -1.0085 -0.4153
  165SOPE  H18T18574   1.785   5.697   8.642 -2.7351 -1.7579  1.3705
  165SOPE   C3318575   1.170   5.250  10.263  0.1438 -0.2802 -0.3963
  165SOPE   H3X18576   1.097   5.313  10.318  2.4134  4.8136 -2.5541
  165SOPE   H3Y18577   1.175   5.156  10.320  0.9003  0.7297  1.2729
  165SOPE   C3418578   1.121   5.221  10.122 -1.0718  0.5463  0.0929
  165SOPE   H4X18579   1.034   5.154  10.137 -0.3765 -0.3985  0.0003
  165SOPE   H4Y18580   1.201   5.159  10.076 -1.7883 -1.7922  1.8430
  165SOPE   C3518581   1.104   5.339  10.025 -0.3280 -0.4942 -0.7449
  165SOPE   H5X18582   1.205   5.375   9.997  0.3506  1.1650  3.2040
  165SOPE   H5Y18583   1.047   5.418  10.078  0.9061  1.8451 -2.7414
  165SOPE   C3618584   1.026   5.311   9.898 -0.5630  0.5557  0.6822
  165SOPE   H6X18585   1.087   5.239   9.840  0.8540  1.7033  0.6917
  165SOPE   H6Y18586   1.016   5.403   9.837 -2.5744  1.0801  1.6835
  165SOPE   C3718587   0.886   5.247   9.909  0.2201 -0.0927  0.1143
  165SOPE   H7X18588   0.808   5.298   9.970  0.0740  0.3244 -0.4226
  165SOPE   H7Y18589   0.894   5.148   9.959  0.2062 -1.7078 -2.8576
  165SOPE   C3818590   0.819   5.218   9.773  0.4296  0.4752 -0.2863
  165SOPE   H8X18591   0.731   5.152   9.789  1.8938 -1.7590 -0.9677
  165SOPE   H8Y18592   0.882   5.153   9.709 -0.8362 -0.9192 -0.1864
  165SOPE   C3918593   0.778   5.333   9.682 -0.4995 -0.3580  0.0967
  165SOPE   H9X18594   0.843   5.421   9.701 -0.1538 -0.1455 -1.8470
  165SOPE   H9Y18595   0.684   5.373   9.725 -1.3865 -1.3302 -0.8560
  165SOPE  C31018596   0.762   5.289   9.537 -0.2022 -0.0307  0.0106
  165SOPE  H10X18597   0.703   5.195   9.526  1.2057 -1.2072  1.8640
  165SOPE  H10Y18598   0.863   5.261   9.500 -0.2043 -0.4281  0.2956
  165SOPE  C31118599   0.705   5.405   9.453 -0.4532 -0.1490  1.0750
  165SOPE  H11X18600   0.784   5.483   9.464  0.3489 -0.7277 -0.2605
  165SOPE  H11Y18601   0.611   5.441   9.500 -1.5189 -0.7324 -0.5437
  165SOPE  C31218602   0.694   5.388   9.301 -0.3620 -0.3174  0.3576
  165SOPE  H12X18603   0.626   5.303   9.278 -0.3070 -0.3373  0.2706
  165SOPE  H12Y18604   0.795   5.357   9.266  0.1020  2.6350 -1.1801
  165SOPE  C31318605   0.660   5.516   9.229  0.0828 -0.1154  0.6484
  165SOPE  H13X18606   0.743   5.591   9.231 -2.3853  2.8293  0.5571
  165SOPE  H13Y18607   0.575   5.570   9.276 -0.0858  0.1461  0.0529
  165SOPE  C31418608   0.615   5.497   9.083  0.3773 -0.1215  0.2180
  165SOPE  H14X18609   0.551   5.407   9.075  0.5864 -0.3348  0.9253
  165SOPE  H14Y18610   0.705   5.491   9.018  0.5409  0.8912  0.3314
  165SOPE  C31518611   0.540   5.629   9.038 -0.0319 -0.1052 -0.1462
  165SOPE  H15X18612   0.597   5.722   9.061  0.9275 -0.9327  0.9693
  165SOPE  H15Y18613   0.444   5.632   9.094  0.5121  0.6266  0.7820
  165SOPE  C31618614   0.500   5.628   8.891  0.0552  0.0560 -0.3011
  165SOPE  H16X18615   0.427   5.545   8.876 -0.4061  0.5019 -0.5596
  165SOPE  H16Y18616   0.577   5.605   8.814  0.9386  0.0135  0.5852
  165SOPE  C31718617   0.428   5.761   8.848 -0.3428 -0.0367 -0.3171
  165SOPE  H17X18618   0.402   5.768   8.741 -3.3188 -2.4241  0.1143
  165SOPE  H17Y18619   0.498   5.844   8.874 -0.3517  0.2986 -1.3125
  165SOPE  C31818620   0.292   5.781   8.909  0.3738  0.0113 -0.5922
  165SOPE  H18X18621   0.290   5.745   9.014  0.7491  1.2519 -0.1481
  165SOPE  H18Y18622   0.231   5.710   8.848  0.4228  1.8557 -2.9239
  165SOPE  H18Z18623   0.263   5.888   8.901  0.6540  0.2046  0.8150
  166SOPE     N18624   5.411   5.618  10.896 -0.3159 -0.6668 -0.7302
  166SOPE   HN118625   5.402   5.567  10.986 -0.2844 -2.2532 -1.5738
  166SOPE   HN218626   5.507   5.601  10.861  0.6577  0.2240  1.3644
  166SOPE   HN318627   5.398   5.718  10.921 -2.0482 -0.8560 -0.7634
  166SOPE   C1218628   5.298   5.576  10.806 -0.2291 -0.3603  0.5214
  166SOPE  H12A18629   5.255   5.668  10.761  0.1489  0.3577  1.5795
  166SOPE  H12B18630   5.225   5.528  10.874 -1.5583  1.2018  0.2738
  166SOPE   C1118631   5.343   5.473  10.698 -0.1673 -0.1643  0.4964
  166SOPE  H11A18632   5.407   5.529  10.626  0.2391  0.5826  1.4315
  166SOPE  H11B18633   5.260   5.434  10.635 -1.3516  0.2744  1.7279
  166SOPE     P18634   5.358   5.249  10.816 -0.4298 -0.1104 -0.1168
  166SOPE   O1318635   5.292   5.300  10.936  0.6628  0.5947  0.0537
  166SOPE   O1418636   5.459   5.144  10.842  0.2652 -0.4281 -0.3505
  166SOPE   O1218637   5.424   5.371  10.746 -0.1779 -0.2063  0.5152
  166SOPE   O1118638   5.247   5.199  10.712  0.1170 -0.0365 -0.2745
  166SOPE    C118639   5.280   5.144  10.583  0.6730 -0.0637  0.0380
  166SOPE    HA18640   5.370   5.079  10.586  0.0730 -0.8902  1.2712
  166SOPE    HB18641   5.290   5.215  10.499  1.9705 -1.4529 -1.0342
  166SOPE    C218642   5.161   5.050  10.539  0.8081  0.1277  0.7736
  166SOPE    HS18643   5.132   4.973  10.613  1.8678 -1.1562 -0.1071
  166SOPE   O2118644   5.194   4.980  10.421  0.0002  0.3080 -0.2989
  166SOPE   C2118645   5.116   4.886  10.386  0.0984 -0.7733 -0.2993
  166SOPE   O2218646   5.031   4.832  10.454 -0.0305  0.1781 -0.2125
  166SOPE   C2218647   5.151   4.850  10.242 -0.5492 -0.0651  0.2001
  166SOPE   H2R18648   5.220   4.763  10.234 -0.1647  0.0777  1.6934
  166SOPE   H2S18649   5.205   4.935  10.196 -0.4645 -1.2324 -1.9738
  166SOPE    C318650   5.031   5.135  10.506 -0.1204  0.5395 -0.3617
  166SOPE    HX18651   5.021   5.212  10.586 -0.1205  0.1664  0.0021
  166SOPE    HY18652   4.937   5.076  10.513 -0.0417  0.1821 -1.9186
  166SOPE   O3118653   5.038   5.188  10.376 -0.0275  0.3120 -0.2973
  166SOPE   C3118654   5.072   5.318  10.360  0.2446  0.8781 -0.2866
  166SOPE   O3218655   5.087   5.396  10.451  0.3449  0.5036 -0.8792
  166SOPE   C3218656   5.094   5.352  10.212  0.0213 -0.1242  0.1224
  166SOPE   H2X18657   5.205   5.353  10.201  0.0081  0.0501  0.0086
  166SOPE   H2Y18658   5.065   5.458  10.202  1.1088  0.4472  2.4001
  166SOPE   C2318659   5.030   4.814  10.160 -0.1533  0.1217 -0.7274
  166SOPE   H3R18660   5.059   4.842  10.057  1.6084 -0.4690 -0.4346
  166SOPE   H3S18661   4.935   4.867  10.182 -0.8028 -1.8667  1.7468
  166SOPE   C2418662   5.000   4.660  10.180 -0.3839 -0.1732 -0.7788
  166SOPE   H4R18663   5.092   4.604  10.154 -1.0259 -0.2152 -3.2963
  166SOPE   H4S18664   4.986   4.640  10.288  0.9845  0.3711 -0.4856
  166SOPE   C2518665   4.890   4.603  10.088  0.3364  0.0386 -0.0132
  166SOPE   H5R18666   4.854   4.506  10.129  2.1386 -1.2064 -1.2158
  166SOPE   H5S18667   4.800   4.667  10.089 -1.1463 -1.8228 -2.3475
  166SOPE   C2618668   4.922   4.586   9.932  0.3373  0.2974 -0.3980
  166SOPE   H6R18669   4.964   4.682   9.894  0.0163  0.1204 -1.2211
  166SOPE   H6S18670   5.002   4.509   9.933 -0.0488 -0.1043  0.3104
  166SOPE   C2718671   4.803   4.537   9.849 -0.0208  0.1412 -0.4812
  166SOPE   H7R18672   4.762   4.452   9.908  0.2378  0.6186  0.4012
  166SOPE   H7S18673   4.730   4.621   9.845 -2.1528 -1.6460 -2.0077
  166SOPE   C2818674   4.835   4.486   9.706  0.7965  0.2111  0.1737
  166SOPE   H8R18675   4.899   4.396   9.705  1.7372  0.7551 -3.6544
  166SOPE   H8S18676   4.735   4.462   9.664  0.7227  2.0295 -0.8178
  166SOPE   C2918677   4.916   4.572   9.611  0.1899 -0.0042  0.5792
  166SOPE   H9118678   4.884   4.677   9.601  0.7964 -0.0354 -2.7716
  166SOPE  C21018679   5.012   4.538   9.528 -0.5122  0.3885 -0.3437
  166SOPE  H10118680   5.032   4.621   9.459 -3.8573  0.7856 -0.9663
  166SOPE  C21118681   5.071   4.401   9.496  0.3463  0.1580 -0.3169
  166SOPE  H11R18682   5.084   4.382   9.387  1.4867  0.5636 -0.2701
  166SOPE  H11S18683   5.001   4.322   9.530 -0.0249 -0.2776 -1.9992
  166SOPE  C21218684   5.215   4.373   9.560  0.0532  0.1198  0.6539
  166SOPE  H12R18685   5.234   4.264   9.548 -0.6971  0.1349 -0.8632
  166SOPE  H12S18686   5.211   4.393   9.670  2.0765  3.1426  0.3071
  166SOPE  C21318687   5.333   4.466   9.516  0.3098  0.6352 -0.5190
  166SOPE  H13R18688   5.430   4.423   9.548 -0.8077 -0.2353  1.9711
  166SOPE  H13S18689   5.305   4.566   9.555 -2.1689  0.8904 -2.6200
  166SOPE  C21418690   5.344   4.492   9.368  0.8279  0.8574 -0.4405
  166SOPE  H14R18691   5.407   4.582   9.355  2.9863 -0.3882  0.8490
  166SOPE  H14S18692   5.239   4.513   9.336  0.8728 -1.7913 -2.6626
  166SOPE  C21518693   5.416   4.380   9.296  0.5730 -0.7252 -0.0643
  166SOPE  H15R18694   5.523   4.385   9.328 -0.1359  1.8922  2.3203
  166SOPE  H15S18695   5.407   4.399   9.187 -1.5784 -2.4918 -0.2696
  166SOPE  C21618696   5.380   4.234   9.310 -0.4211 -0.7719 -0.5527
  166SOPE  H16R18697   5.280   4.214   9.265 -2.0256  0.5844  2.1920
  166SOPE  H16S18698   5.370   4.211   9.418 -1.3796  1.0976 -0.2044
  166SOPE  C21718699   5.492   4.145   9.250 -0.1812  0.6818 -0.7217
  166SOPE  H17R18700   5.590   4.157   9.302  0.8724  0.7237 -2.6514
  166SOPE  H17S18701   5.507   4.187   9.149 -0.6220 -0.0066 -1.0738
  166SOPE  C21818702   5.448   3.999   9.241 -0.2333  0.1855 -0.4358
  166SOPE  H18R18703   5.515   3.925   9.193 -1.2520 -0.1023 -1.4597
  166SOPE  H18S18704   5.344   3.992   9.202 -0.9212  1.2392  1.1160
  166SOPE  H18T18705   5.440   3.965   9.346 -0.4944 -0.0028 -0.5152
  166SOPE   C3318706   5.017   5.261  10.112 -0.0938  0.3632  0.5520
  166SOPE   H3X18707   4.908   5.262  10.136 -0.1623 -0.9556  0.3962
  166SOPE   H3Y18708   5.048   5.155  10.124 -1.2880 -0.2285 -1.2397
  166SOPE   C3418709   5.025   5.302   9.965  0.5012 -0.2363  0.1978
  166SOPE   H4X18710   5.128   5.293   9.925  1.3465 -1.7331  2.4609
  166SOPE   H4Y18711   4.999   5.409   9.952  1.2341 -0.3243 -2.4903
  166SOPE   C3518712   4.943   5.202   9.872  0.3568  0.4065 -0.1382
  166SOPE   H5X18713   4.843   5.216   9.917 -0.0212  0.4619 -0.9756
  166SOPE   H5Y18714   4.988   5.104   9.899  0.0758 -0.7126 -3.2503
  166SOPE   C3618715   4.954   5.227   9.721  0.2673 -0.1657 -0.6486
  166SOPE   H6X18716   4.925   5.134   9.667  0.2190 -0.8479  0.5149
  166SOPE   H6Y18717   5.062   5.240   9.697  0.5159 -0.7330  0.1176
  166SOPE   C3718718   4.879   5.348   9.659 -0.3469  0.8090  0.1865
  166SOPE   H7X18719   4.932   5.438   9.699  0.1391  0.3845  0.5034
  166SOPE   H7Y18720   4.769   5.349   9.674 -0.6980 -0.9968 -1.8471
  166SOPE   C3818721   4.878   5.349   9.502 -0.8271  0.0136  0.0311
  166SOPE   H8X18722   4.961   5.284   9.466  1.2634  3.4052 -1.8161
  166SOPE   H8Y18723   4.885   5.452   9.463 -0.9060 -1.0639 -3.1309
  166SOPE   C3918724   4.749   5.298   9.438  0.4689 -0.2957 -0.1904
  166SOPE   H9X18725   4.668   5.352   9.492 -0.6745 -0.5656 -1.5616
  166SOPE   H9Y18726   4.731   5.191   9.462 -0.5931  0.0694  0.7293
  166SOPE  C31018727   4.743   5.307   9.284  0.4039 -1.2873  0.0975
  166SOPE  H10X18728   4.766   5.411   9.251 -0.3712 -1.0957  0.1359
  166SOPE  H10Y18729   4.638   5.289   9.253 -0.4083  3.5774 -0.8503
  166SOPE  C31118730   4.848   5.213   9.227 -0.4775  0.4553  0.1390
  166SOPE  H11X18731   4.822   5.114   9.270 -0.5698  0.6504  0.5337
  166SOPE  H11Y18732   4.946   5.249   9.266 -1.1797  1.0409  1.4014
  166SOPE  C31218733   4.867   5.213   9.075  0.3191  0.2768  0.7653
  166SOPE  H12X18734   4.947   5.144   9.042  1.0938  1.4949  0.0035
  166SOPE  H12Y18735   4.876   5.314   9.029 -2.1213  0.3842  0.3939
  166SOPE  C31318736   4.741   5.152   9.004  0.9234  0.8713 -0.4257
  166SOPE  H13X18737   4.653   5.219   8.995 -0.2817 -0.6453 -0.4812
  166SOPE  H13Y18738   4.707   5.073   9.075  0.4669  0.4605 -1.0831
  166SOPE  C31418739   4.767   5.091   8.865 -0.1795  0.1746  0.4937
  166SOPE  H14X18740   4.681   5.028   8.832  1.7888 -2.5726  0.2606
  166SOPE  H14Y18741   4.859   5.028   8.863  0.4458  1.0638 -0.9028
  166SOPE  C31518742   4.786   5.200   8.756 -0.3356 -0.5264  1.0132
  166SOPE  H15X18743   4.859   5.277   8.788 -0.5090 -0.7782  2.0383
  166SOPE  H15Y18744   4.688   5.253   8.746 -0.6641 -1.4466 -1.3583
  166SOPE  C31618745   4.817   5.144   8.613  0.0173  0.0152  1.4682
  166SOPE  H16X18746   4.741   5.065   8.597 -0.8472  0.8134  1.5220
  166SOPE  H16Y18747   4.915   5.092   8.611  0.3780  0.6819  1.4859
  166SOPE  C31718748   4.837   5.259   8.506  0.4051  0.4391  0.6869
  166SOPE  H17X18749   4.831   5.214   8.404  0.3435 -0.9548  1.2858
  166SOPE  H17Y18750   4.937   5.305   8.523  0.7977  0.7830 -2.0369
  166SOPE  C31818751   4.730   5.366   8.528  1.0182 -0.5480  0.5550
  166SOPE  H18X18752   4.773   5.440   8.599  0.4446  0.2446  0.0883
  166SOPE  H18Y18753   4.637   5.320   8.567  1.3763  0.4523  2.7729
  166SOPE  H18Z18754   4.717   5.427   8.437  1.1820  0.2503  1.0543
  167SOPE     N18755   3.498   1.793   6.334  0.5125 -0.6156 -0.2541
  167SOPE   HN118756   3.535   1.696   6.344 -0.7680 -0.9890  1.2324
  167SOPE   HN218757   3.511   1.849   6.421 -0.2835  3.0840 -2.3078
  167SOPE   HN318758   3.397   1.783   6.311  0.3264  1.7793 -0.6830
  167SOPE   C1218759   3.549   1.872   6.221  0.0762  0.4228  0.5509
  167SOPE  H12A18760   3.503   1.973   6.224 -1.6099 -0.3054  0.3179
  167SOPE  H12B18761   3.511   1.810   6.137  0.1778 -0.2393  0.9824
  167SOPE   C1118762   3.709   1.881   6.217  0.2571  1.1544  0.0516
  167SOPE  H11A18763   3.744   1.943   6.131 -0.7718 -0.7514 -1.8345
  167SOPE  H11B18764   3.739   1.775   6.205  1.7800  1.7577 -2.2471
  167SOPE     P18765   3.884   2.029   6.364 -0.4096 -0.2680  0.0930
  167SOPE   O1318766   3.845   2.167   6.327 -0.1832 -0.5083 -0.4181
  167SOPE   O1418767   4.003   1.975   6.291 -0.0410 -0.4570 -0.2045
  167SOPE   O1218768   3.758   1.928   6.344 -0.1607 -0.0246  0.4583
  167SOPE   O1118769   3.910   2.020   6.519 -0.1781  0.0710  0.5825
  167SOPE    C118770   3.851   1.921   6.603  0.0241  0.2708 -0.4637
  167SOPE    HA18771   3.896   1.823   6.576  3.0141  1.7236 -1.2517
  167SOPE    HB18772   3.741   1.925   6.592 -0.0828 -0.7811  0.1335
  167SOPE    C218773   3.885   1.955   6.755 -0.0075 -0.1487 -0.1583
  167SOPE    HS18774   3.859   1.866   6.817 -2.0947  1.4818  1.4429
  167SOPE   O2118775   3.815   2.074   6.796 -0.4801  0.2264  0.3416
  167SOPE   C2118776   3.688   2.069   6.819  0.0083 -0.4421  0.3300
  167SOPE   O2218777   3.621   1.969   6.810  0.2722 -0.0841 -0.4441
  167SOPE   C2218778   3.636   2.213   6.867  0.1569  0.5229  0.4923
  167SOPE   H2R18779   3.530   2.187   6.889  0.3175 -1.6019 -0.9558
  167SOPE   H2S18780   3.633   2.260   6.767  0.2565 -0.4019  0.0429
  167SOPE    C318781   4.035   1.969   6.763 -0.6996  0.1694  0.1505
  167SOPE    HX18782   4.072   2.053   6.701 -1.6979  0.4861 -0.0335
  167SOPE    HY18783   4.082   1.876   6.725 -2.1619 -0.5213 -0.0498
  167SOPE   O3118784   4.074   1.973   6.903 -0.0374  0.2612  0.3904
  167SOPE   C3118785   4.120   2.089   6.951 -0.6758  0.1096  0.4650
  167SOPE   O3218786   4.126   2.195   6.889  0.2010 -0.6699 -0.3299
  167SOPE   C3218787   4.137   2.084   7.102 -0.1952  0.1220  0.5077
  167SOPE   H2X18788   4.083   2.173   7.142  0.7881  0.1742  1.7953
  167SOPE   H2Y18789   4.245   2.081   7.128  0.3385 -3.5747 -1.5392
  167SOPE   C2318790   3.730   2.280   6.970  0.1368  0.4555  1.0836
  167SOPE   H3R18791   3.729   2.387   6.940  0.2720  0.2064  0.1593
  167SOPE   H3S18792   3.832   2.238   6.971  0.7087  1.6428 -0.8551
  167SOPE   C2418793   3.682   2.284   7.115 -0.0786 -0.2531 -0.8342
  167SOPE   H4R18794   3.572   2.278   7.104 -0.0765 -0.2348 -0.8664
  167SOPE   H4S18795   3.718   2.192   7.166 -1.5344 -0.6215 -0.4375
  167SOPE   C2518796   3.733   2.407   7.192  0.0329 -0.3850 -0.4746
  167SOPE   H5R18797   3.836   2.421   7.153 -0.6154  3.5666 -1.1880
  167SOPE   H5S18798   3.670   2.495   7.165  0.4022  0.4668  1.3400
  167SOPE   C2618799   3.740   2.389   7.347 -0.6632  0.0148  0.2644
  167SOPE   H6R18800   3.773   2.482   7.398 -0.6821  0.4371 -0.4783
  167SOPE   H6S18801   3.637   2.379   7.388 -0.2950 -0.5435  1.0833
  167SOPE   C2718802   3.822   2.269   7.391  0.0002 -0.3082  0.5057
  167SOPE   H7R18803   3.782   2.175   7.348 -1.1845 -0.1313  1.1719
  167SOPE   H7S18804   3.927   2.283   7.357  0.0788  1.6242  1.3838
  167SOPE   C2818805   3.803   2.243   7.544 -0.2196  0.3618  0.7127
  167SOPE   H8R18806   3.696   2.229   7.570 -0.7949 -0.2007 -1.6901
  167SOPE   H8S18807   3.850   2.144   7.561 -0.8471 -0.5408 -2.2487
  167SOPE   C2918808   3.866   2.340   7.639  0.0775 -0.0584  0.0781
  167SOPE   H9118809   3.802   2.426   7.664 -1.3248 -1.2051  0.5961
  167SOPE  C21018810   3.986   2.330   7.699 -0.8110  0.2802 -0.5094
  167SOPE  H10118811   4.014   2.401   7.778 -2.3276 -1.7628  2.0255
  167SOPE  C21118812   4.084   2.228   7.676  0.4366  0.1040  0.3882
  167SOPE  H11R18813   4.175   2.289   7.656 -0.1350  1.0036  0.4830
  167SOPE  H11S18814   4.055   2.169   7.587 -0.6881 -1.3353  1.6573
  167SOPE  C21218815   4.118   2.131   7.788  0.8316 -0.2382 -0.2336
  167SOPE  H12R18816   4.148   2.186   7.879 -2.5077 -0.7518  1.3624
  167SOPE  H12S18817   4.187   2.047   7.763 -1.8259 -2.5823 -0.2907
  167SOPE  C21318818   3.985   2.064   7.833  0.7213 -0.1338 -0.4683
  167SOPE  H13R18819   3.924   2.041   7.743 -0.0081 -0.2768  0.0575
  167SOPE  H13S18820   3.916   2.131   7.889  0.0981 -1.9310  1.0306
  167SOPE  C21418821   4.026   1.948   7.928  0.1202 -0.0395  0.3282
  167SOPE  H14R18822   4.124   1.898   7.910  0.2891  0.1506  0.7244
  167SOPE  H14S18823   3.952   1.866   7.914  1.8799 -1.5243 -0.7807
  167SOPE  C21518824   4.031   1.993   8.078 -0.2943 -0.1051 -1.0236
  167SOPE  H15R18825   3.936   2.047   8.098 -1.1952 -1.9781 -0.0441
  167SOPE  H15S18826   4.112   2.068   8.088  0.3725 -0.7382 -1.5439
  167SOPE  C21618827   4.050   1.891   8.184 -0.0108 -0.4577  0.3562
  167SOPE  H16R18828   3.979   1.807   8.199 -0.1961 -0.0498  1.8957
  167SOPE  H16S18829   4.054   1.952   8.276 -1.6246 -3.3476  2.4878
  167SOPE  C21718830   4.196   1.827   8.186 -0.0488 -0.2228 -0.1563
  167SOPE  H17R18831   4.278   1.901   8.193 -0.4730  0.1066  4.0560
  167SOPE  H17S18832   4.209   1.756   8.102  2.7864  1.4676 -1.3045
  167SOPE  C21818833   4.223   1.742   8.305  0.1328  0.0847 -0.8443
  167SOPE  H18R18834   4.224   1.791   8.405  1.5502  0.8809 -1.2209
  167SOPE  H18S18835   4.312   1.677   8.287 -1.1981 -2.0134 -0.2777
  167SOPE  H18T18836   4.147   1.661   8.308  1.5258 -1.3214 -1.5744
  167SOPE   C3318837   4.050   1.963   7.151  0.1582 -0.3366 -0.6902
  167SOPE   H3X18838   4.086   1.865   7.113 -0.5187 -0.7698 -0.2453
  167SOPE   H3Y18839   3.940   1.963   7.137  0.3524 -1.8436 -2.7073
  167SOPE   C3418840   4.083   1.959   7.307  0.1964 -0.5424  0.2076
  167SOPE   H4X18841   4.049   2.056   7.348 -2.1490 -0.9243 -0.7353
  167SOPE   H4Y18842   4.193   1.952   7.326  0.3942  1.1155 -0.2004
  167SOPE   C3518843   4.021   1.842   7.386 -0.0709 -0.0562 -0.6468
  167SOPE   H5X18844   4.067   1.822   7.485  0.5674 -0.8746 -1.0889
  167SOPE   H5Y18845   4.050   1.752   7.327  1.2359 -1.0330  1.3809
  167SOPE   C3618846   3.867   1.850   7.386  0.2329 -0.0131  0.1659
  167SOPE   H6X18847   3.830   1.897   7.291  1.4174 -1.3427 -0.9948
  167SOPE   H6Y18848   3.833   1.907   7.475  1.5299  1.0022  0.0358
  167SOPE   C3718849   3.808   1.708   7.387 -0.2139  0.0809  0.0756
  167SOPE   H7X18850   3.818   1.654   7.291 -2.7688 -2.9459  1.3385
  167SOPE   H7Y18851   3.697   1.707   7.396 -0.1734 -2.3771  0.8619
  167SOPE   C3818852   3.857   1.625   7.499  0.3307  0.2762 -0.2414
  167SOPE   H8X18853   3.968   1.621   7.496  0.5783  3.5389  0.7711
  167SOPE   H8Y18854   3.819   1.521   7.499 -1.1914  0.7427  2.3587
  167SOPE   C3918855   3.820   1.669   7.637 -0.7733 -0.3476 -0.9296
  167SOPE   H9X18856   3.715   1.707   7.639 -0.6557  0.0127 -1.4094
  167SOPE   H9Y18857   3.889   1.752   7.665 -1.2485 -0.1851 -0.1977
  167SOPE  C31018858   3.806   1.553   7.741  0.7568 -0.3921 -1.3702
  167SOPE  H10X18859   3.906   1.506   7.754 -0.5791 -3.6189 -1.8760
  167SOPE  H10Y18860   3.727   1.486   7.700 -0.0583  0.0510 -0.5533
  167SOPE  C31118861   3.766   1.605   7.881  0.5040 -0.5672  0.5683
  167SOPE  H11X18862   3.656   1.621   7.883  0.6302  0.3403  1.3259
  167SOPE  H11Y18863   3.799   1.707   7.910 -0.9070 -0.0510  0.4368
  167SOPE  C31218864   3.806   1.510   7.995  0.2029  0.8181 -0.7023
  167SOPE  H12X18865   3.916   1.506   7.981  0.1849  3.5304 -2.2954
  167SOPE  H12Y18866   3.764   1.411   7.968  2.2760 -0.6241  1.0399
  167SOPE  C31318867   3.754   1.541   8.135  0.2546 -0.1799 -0.8289
  167SOPE  H13X18868   3.643   1.534   8.134  0.2037 -1.7980  2.1073
  167SOPE  H13Y18869   3.777   1.647   8.159  0.7432 -0.0935 -1.6420
  167SOPE  C31418870   3.803   1.446   8.257 -0.3347 -0.2354 -0.3590
  167SOPE  H14X18871   3.913   1.461   8.256 -0.4688  0.8350 -1.8001
  167SOPE  H14Y18872   3.781   1.339   8.238 -3.1780  0.2666 -0.3302
  167SOPE  C31518873   3.745   1.483   8.390  0.1146 -1.3022 -0.0377
  167SOPE  H15X18874   3.793   1.415   8.464  1.2145 -0.7888 -0.2505
  167SOPE  H15Y18875   3.635   1.472   8.403  0.1707 -1.0083  0.8076
  167SOPE  C31618876   3.782   1.631   8.418  0.1458 -1.1614 -0.6499
  167SOPE  H16X18877   3.699   1.697   8.385 -1.1707 -0.7222  3.0682
  167SOPE  H16Y18878   3.878   1.662   8.371  1.8548 -0.0555  3.1682
  167SOPE  C31718879   3.810   1.657   8.564  0.0285  0.6258 -0.2780
  167SOPE  H17X18880   3.902   1.599   8.584  0.0528  0.5614 -0.5630
  167SOPE  H17Y18881   3.727   1.624   8.630  0.8908  1.6027  1.3396
  167SOPE  C31818882   3.833   1.806   8.577  0.2771  0.1154 -0.2007
  167SOPE  H18X18883   3.919   1.836   8.513  0.5325 -0.2276 -0.0203
  167SOPE  H18Y18884   3.855   1.836   8.682  0.4955 -2.4198  0.5405
  167SOPE  H18Z18885   3.747   1.866   8.540 -0.2602 -0.8440 -0.5621
  168SOPE     N18886   2.464   6.579   6.222 -0.2603  0.1469 -0.1322
  168SOPE   HN118887   2.552   6.626   6.253 -1.4633  2.9243 -0.5910
  168SOPE   HN218888   2.480   6.554   6.122  3.4765 -2.5342  0.9150
  168SOPE   HN318889   2.389   6.651   6.225  0.6443  1.2043 -1.6592
  168SOPE   C1218890   2.419   6.465   6.312  0.5716  0.1809 -0.0596
  168SOPE  H12A18891   2.516   6.415   6.334 -0.0241 -1.0961 -0.2504
  168SOPE  H12B18892   2.350   6.400   6.254  3.0458 -1.2921 -1.5138
  168SOPE   C1118893   2.345   6.530   6.431  0.5325  0.5076 -0.2402
  168SOPE  H11A18894   2.416   6.602   6.477 -0.2211  1.4636 -0.5303
  168SOPE  H11B18895   2.302   6.459   6.506  1.5299 -0.1669 -0.2880
  168SOPE     P18896   2.084   6.560   6.389  0.0975 -0.3102 -0.0679
  168SOPE   O1318897   2.059   6.467   6.276  0.3802 -0.6701 -0.6995
  168SOPE   O1418898   1.999   6.677   6.402  0.4630  0.2911  0.0722
  168SOPE   O1218899   2.235   6.606   6.384  0.4631  0.2922  0.0584
  168SOPE   O1118900   2.064   6.476   6.520 -0.1014  1.0717 -0.5388
  168SOPE    C118901   2.046   6.552   6.644 -0.2707 -0.3002  0.6238
  168SOPE    HA18902   1.958   6.620   6.642 -0.4128 -0.3941  2.4049
  168SOPE    HB18903   2.127   6.625   6.662 -0.3297  0.2307 -1.1068
  168SOPE    C218904   2.047   6.462   6.777  0.8154 -0.6696 -0.1526
  168SOPE    HS18905   2.042   6.523   6.869 -1.2750  0.3479 -0.8759
  168SOPE   O2118906   2.161   6.368   6.776 -0.3200 -0.2432  0.0469
  168SOPE   C2118907   2.268   6.419   6.818 -0.0405 -0.7673 -0.3729
  168SOPE   O2218908   2.265   6.528   6.872 -0.2098 -0.1178 -0.0393
  168SOPE   C2218909   2.391   6.327   6.810 -0.4927  0.0331  0.1094
  168SOPE   H2R18910   2.479   6.386   6.843 -1.4917  2.2472 -1.0016
  168SOPE   H2S18911   2.404   6.296   6.704  2.0964  1.4753 -0.0908
  168SOPE    C318912   1.910   6.383   6.773  0.4656  0.1072 -0.6009
  168SOPE    HX18913   1.904   6.339   6.672  0.9084  0.6689 -0.8793
  168SOPE    HY18914   1.836   6.465   6.785  1.0081  0.6144 -0.6930
  168SOPE   O3118915   1.889   6.294   6.883  0.2982 -0.4527 -0.2034
  168SOPE   C3118916   1.941   6.172   6.859 -0.0050  0.2390  0.1793
  168SOPE   O3218917   1.988   6.140   6.749  0.5101  0.7556  0.0801
  168SOPE   C3218918   1.925   6.075   6.973 -0.0817 -0.7219 -0.0749
  168SOPE   H2X18919   1.960   5.977   6.933 -2.5315 -1.5920 -0.3136
  168SOPE   H2Y18920   1.815   6.065   6.985 -0.2489  0.7906 -0.1439
  168SOPE   C2318921   2.372   6.201   6.902  0.8436 -0.2940  0.0685
  168SOPE   H3R18922   2.456   6.129   6.889  1.3105  0.3167 -0.3047
  168SOPE   H3S18923   2.288   6.150   6.850  2.4888 -3.7800  0.5459
  168SOPE   C2418924   2.354   6.242   7.055 -0.6504  0.1145 -0.0293
  168SOPE   H4R18925   2.283   6.324   7.077  0.3126  0.3058  2.8456
  168SOPE   H4S18926   2.318   6.152   7.110 -1.4657  1.0140  0.9529
  168SOPE   C2518927   2.489   6.290   7.115 -0.2717  0.3169 -0.1333
  168SOPE   H5R18928   2.551   6.200   7.096 -2.1652 -1.5440  1.9012
  168SOPE   H5S18929   2.521   6.382   7.060 -0.1038 -0.9008 -2.1659
  168SOPE   C2618930   2.478   6.325   7.258 -0.7503 -0.1118 -0.0985
  168SOPE   H6R18931   2.441   6.249   7.330  1.5569 -0.6959  0.5685
  168SOPE   H6S18932   2.581   6.327   7.298 -0.0717  2.6388 -1.6834
  168SOPE   C2718933   2.409   6.464   7.277 -0.3337 -0.0188 -0.4134
  168SOPE   H7R18934   2.479   6.536   7.230 -1.1858  0.9782 -0.2009
  168SOPE   H7S18935   2.316   6.462   7.215  0.1127  0.5752 -1.1188
  168SOPE   C2818936   2.368   6.503   7.419  0.3592  0.6717  0.0720
  168SOPE   H8R18937   2.326   6.606   7.420  0.6124  0.7810 -0.3718
  168SOPE   H8S18938   2.294   6.425   7.447 -0.6836  1.4211 -0.4943
  168SOPE   C2918939   2.482   6.510   7.518 -0.3236 -0.5992  0.8598
  168SOPE   H9118940   2.581   6.518   7.469  0.6441 -1.2042  2.6557
  168SOPE  C21018941   2.469   6.510   7.650  0.0764 -0.7578 -0.0514
  168SOPE  H10118942   2.558   6.520   7.715  0.7578 -1.7079 -0.8067
  168SOPE  C21118943   2.332   6.499   7.721  0.3358  0.0727  0.2380
  168SOPE  H11R18944   2.267   6.413   7.696  0.7504  0.0716 -0.8696
  168SOPE  H11S18945   2.281   6.597   7.708 -1.1563 -0.7224 -0.1299
  168SOPE  C21218946   2.332   6.495   7.874  0.2077  0.0401 -0.1210
  168SOPE  H12R18947   2.234   6.513   7.923  0.1935 -0.3847  0.0089
  168SOPE  H12S18948   2.399   6.579   7.903  0.9306  1.3980 -4.9765
  168SOPE  C21318949   2.393   6.376   7.924  0.4334  0.6991  0.1484
  168SOPE  H13R18950   2.498   6.366   7.892  0.2182 -0.7117 -0.1732
  168SOPE  H13S18951   2.355   6.277   7.891  0.0005  0.8243  0.2573
  168SOPE  C21418952   2.379   6.363   8.078  0.3892  0.0707  0.2707
  168SOPE  H14R18953   2.380   6.258   8.114  0.4935 -0.0271 -0.0195
  168SOPE  H14S18954   2.280   6.410   8.099  0.1612  0.0459 -0.7191
  168SOPE  C21518955   2.486   6.448   8.144  0.0754 -0.0221 -0.1812
  168SOPE  H15R18956   2.450   6.466   8.248 -1.3833 -0.1868 -0.6475
  168SOPE  H15S18957   2.515   6.549   8.107  1.8631 -0.3771  0.1425
  168SOPE  C21618958   2.619   6.358   8.160  0.5415 -0.0271  0.3910
  168SOPE  H16R18959   2.660   6.347   8.057 -0.3739  1.7569 -0.2154
  168SOPE  H16S18960   2.595   6.259   8.204 -0.2671 -0.0163  0.0013
  168SOPE  C21718961   2.730   6.404   8.254  0.5545  0.6791  0.6708
  168SOPE  H17R18962   2.692   6.412   8.358  1.4493  0.6509  1.0127
  168SOPE  H17S18963   2.762   6.507   8.225  0.1799  0.4418 -0.6789
  168SOPE  C21818964   2.856   6.316   8.253 -0.0848 -0.0390  0.0179
  168SOPE  H18R18965   2.871   6.287   8.147 -0.6551 -0.2529 -0.0077
  168SOPE  H18S18966   2.837   6.216   8.298  0.8281 -1.4128 -2.4370
  168SOPE  H18T18967   2.942   6.374   8.291  1.0040 -1.6777  0.1806
  168SOPE   C3318968   1.990   6.114   7.107 -0.0795 -0.5675 -0.0860
  168SOPE   H3X18969   2.098   6.090   7.102  0.0426 -0.2224  0.8330
  168SOPE   H3Y18970   1.948   6.059   7.193 -0.3420  2.5894  1.9535
  168SOPE   C3418971   1.964   6.262   7.153 -0.0627 -0.3562 -0.5924
  168SOPE   H4X18972   1.855   6.278   7.145 -0.3020 -1.5455  0.0859
  168SOPE   H4Y18973   2.014   6.331   7.082 -0.5318  0.6804  0.0604
  168SOPE   C3518974   2.015   6.300   7.292  0.5620 -0.3197 -0.4534
  168SOPE   H5X18975   1.979   6.404   7.309 -1.3140 -0.5962 -2.2185
  168SOPE   H5Y18976   2.126   6.299   7.299  0.4832 -0.8963  0.8686
  168SOPE   C3618977   1.956   6.228   7.411  0.3887  0.7579 -0.7401
  168SOPE   H6X18978   1.972   6.118   7.413 -1.5247  0.4155  2.3280
  168SOPE   H6Y18979   1.847   6.232   7.390  0.3249 -1.0465 -0.8949
  168SOPE   C3718980   1.988   6.295   7.542 -0.4011  0.3488 -0.1541
  168SOPE   H7X18981   1.911   6.375   7.550 -0.3247  0.2837  1.5295
  168SOPE   H7Y18982   2.090   6.334   7.558  0.5343 -1.8089 -0.4439
  168SOPE   C3818983   1.962   6.207   7.672 -0.3214 -0.2670 -0.1234
  168SOPE   H8X18984   2.015   6.109   7.668 -0.0723 -0.2181  1.2495
  168SOPE   H8Y18985   1.853   6.188   7.681 -0.1229 -3.8511 -2.9196
  168SOPE   C3918986   2.022   6.265   7.799  0.2177  0.4607 -0.6255
  168SOPE   H9X18987   1.989   6.368   7.823  1.4853  0.2034  2.7945
  168SOPE   H9Y18988   2.133   6.261   7.791  0.1181 -0.4796 -1.8302
  168SOPE  C31018989   1.981   6.171   7.919  0.3874  0.1636 -0.6462
  168SOPE  H10X18990   2.032   6.073   7.910 -0.4816 -0.2122 -1.7477
  168SOPE  H10Y18991   1.872   6.155   7.930  0.6217  0.0314  1.9914
  168SOPE  C31118992   2.026   6.237   8.055 -0.2930  0.0703 -0.4235
  168SOPE  H11X18993   1.990   6.342   8.059 -0.2529  0.0393  1.3191
  168SOPE  H11Y18994   2.137   6.240   8.063 -0.3146  0.7827 -0.3510
  168SOPE  C31218995   1.961   6.169   8.176 -0.9985 -0.0869  0.4828
  168SOPE  H12X18996   1.988   6.061   8.171  0.8017  0.2726  1.5975
  168SOPE  H12Y18997   1.851   6.167   8.159 -0.7345  0.4855 -1.4306
  168SOPE  C31318998   1.987   6.241   8.304  0.4708  0.1478  0.3424
  168SOPE  H13X18999   1.935   6.339   8.302  1.4486  0.6984 -2.5589
  168SOPE  H13Y19000   2.096   6.255   8.320  0.2400  1.2693  1.0124
  168SOPE  C31419001   1.919   6.166   8.419 -0.0096 -0.4002 -0.0359
  168SOPE  H14X19002   1.950   6.059   8.425  0.9008 -0.3327 -2.4894
  168SOPE  H14Y19003   1.808   6.175   8.416 -0.0766 -1.2096 -0.4095
  168SOPE  C31519004   1.961   6.222   8.552 -0.1520 -0.5258  0.4027
  168SOPE  H15X19005   1.901   6.316   8.558  0.9468  0.2737 -0.6203
  168SOPE  H15Y19006   2.068   6.251   8.558 -0.1030 -0.3723 -0.8955
  168SOPE  C31619007   1.947   6.132   8.678  0.2776  0.7577 -0.3932
  168SOPE  H16X19008   2.016   6.045   8.685  0.4709  1.0290  2.1409
  168SOPE  H16Y19009   1.846   6.086   8.683 -0.7066  2.8814  3.0418
  168SOPE  C31719010   1.965   6.219   8.805  0.3987 -0.2011  0.3534
  168SOPE  H17X19011   1.889   6.297   8.783 -0.6626 -1.9605 -2.9800
  168SOPE  H17Y19012   2.066   6.265   8.800  1.3840 -2.3124 -0.3933
  168SOPE  C31819013   1.941   6.153   8.937 -0.4058  0.4108  0.0463
  168SOPE  H18X19014   2.005   6.064   8.953  0.6671  1.2258  0.3720
  168SOPE  H18Y19015   1.840   6.107   8.935 -0.6393  0.9308 -0.1971
  168SOPE  H18Z19016   1.951   6.222   9.023  0.8193  0.7292 -0.3412
  169SOPE     N19017   4.798   1.406   6.515 -0.1793 -0.2922 -0.0548
  169SOPE   HN119018   4.842   1.315   6.537 -0.8175 -0.5485  0.1954
  169SOPE   HN219019   4.760   1.406   6.418 -0.0850  0.3256 -0.0949
  169SOPE   HN319020   4.873   1.478   6.516 -0.3645 -0.0587 -1.5670
  169SOPE   C1219021   4.695   1.424   6.617  0.4877 -0.1674 -0.0522
  169SOPE  H12A19022   4.743   1.443   6.716  1.0284  0.5452 -0.4426
  169SOPE  H12B19023   4.639   1.330   6.636 -0.6545  0.3082 -1.0056
  169SOPE   C1119024   4.608   1.548   6.592 -0.0152  0.5766  0.5522
  169SOPE  H11A19025   4.675   1.636   6.601 -0.2387  0.6302  2.0289
  169SOPE  H11B19026   4.527   1.565   6.667  0.0008  0.4735  0.5931
  169SOPE     P19027   4.433   1.445   6.418  0.0259  0.1019 -0.2224
  169SOPE   O1319028   4.483   1.346   6.318  0.6712  0.8290  0.0706
  169SOPE   O1419029   4.324   1.536   6.378 -0.4675  0.6394  0.2335
  169SOPE   O1219030   4.554   1.537   6.458  0.3171 -0.6757  0.8803
  169SOPE   O1119031   4.404   1.374   6.558  0.1891 -0.3481  0.1234
  169SOPE    C119032   4.287   1.400   6.642  0.5252  0.3379  0.5497
  169SOPE    HA19033   4.201   1.353   6.590  0.6196 -1.0887  1.6225
  169SOPE    HB19034   4.259   1.506   6.655  0.2758  0.1321  1.7695
  169SOPE    C219035   4.316   1.343   6.779  0.0312  0.5777  0.2967
  169SOPE    HS19036   4.215   1.348   6.826  0.6211 -0.3470  1.7188
  169SOPE   O2119037   4.405   1.426   6.849  0.5909 -0.0266 -0.5741
  169SOPE   C2119038   4.345   1.539   6.890 -0.1707 -0.4076  0.2952
  169SOPE   O2219039   4.231   1.579   6.880 -0.1539 -0.0814 -0.1764
  169SOPE   C2219040   4.452   1.628   6.957 -0.1076  0.3343 -0.3809
  169SOPE   H2R19041   4.464   1.721   6.898 -0.5619  1.2215  0.8917
  169SOPE   H2S19042   4.555   1.586   6.968 -0.2491  0.3000  0.9275
  169SOPE    C319043   4.357   1.198   6.785 -0.3866  0.0871 -0.0764
  169SOPE    HX19044   4.466   1.195   6.763 -0.0656  1.1713  1.2191
  169SOPE    HY19045   4.314   1.136   6.703  0.2091 -1.1153  0.5025
  169SOPE   O3119046   4.313   1.135   6.911  0.2512  0.3312 -0.4560
  169SOPE   C3119047   4.406   1.115   7.001  0.4640 -0.0730 -0.5361
  169SOPE   O3219048   4.526   1.153   6.987 -0.3180 -0.2808  0.6975
  169SOPE   C3219049   4.361   1.040   7.124 -0.4513 -0.3188 -0.0987
  169SOPE   H2X19050   4.376   0.934   7.094 -0.1218 -0.1791 -0.4299
  169SOPE   H2Y19051   4.251   1.059   7.132 -0.2824  0.3277  0.9012
  169SOPE   C2319052   4.400   1.657   7.098  0.2143 -0.0715  0.9979
  169SOPE   H3R19053   4.299   1.703   7.096 -0.8250 -2.0582  2.9097
  169SOPE   H3S19054   4.467   1.736   7.137  0.0357  1.0497 -0.8674
  169SOPE   C2419055   4.394   1.536   7.184  0.1939 -0.7518  0.0785
  169SOPE   H4R19056   4.359   1.447   7.128 -0.9505 -1.9108  2.4527
  169SOPE   H4S19057   4.494   1.508   7.224 -0.1877 -0.6670  1.1185
  169SOPE   C2519058   4.298   1.549   7.309 -0.8209  0.1326  0.7070
  169SOPE   H5R19059   4.322   1.645   7.360  0.9963  1.7316 -2.8276
  169SOPE   H5S19060   4.190   1.543   7.284 -0.8239 -0.4960  0.8561
  169SOPE   C2619061   4.315   1.435   7.406 -0.1545 -0.4166  0.1456
  169SOPE   H6R19062   4.302   1.342   7.346  2.0611 -1.7793  1.6374
  169SOPE   H6S19063   4.423   1.443   7.431  0.1547 -0.4104 -1.1239
  169SOPE   C2719064   4.206   1.429   7.519 -0.0084  0.1522 -0.0565
  169SOPE   H7R19065   4.213   1.519   7.584  1.0654  0.1364 -0.1398
  169SOPE   H7S19066   4.103   1.430   7.477 -0.5924  0.7930  1.3184
  169SOPE   C2819067   4.217   1.300   7.604 -0.0141  0.5314 -0.1016
  169SOPE   H8R19068   4.125   1.277   7.662  0.7079  1.1030  1.3021
  169SOPE   H8S19069   4.217   1.215   7.531 -2.1033  1.1822 -0.9338
  169SOPE   C2919070   4.332   1.298   7.697  0.1943 -0.0144 -0.0377
  169SOPE   H9119071   4.427   1.276   7.646 -0.4278  0.4206 -1.4390
  169SOPE  C21019072   4.326   1.323   7.830 -0.4003  0.0109 -0.1880
  169SOPE  H10119073   4.417   1.299   7.887 -0.4537 -2.1595 -0.9290
  169SOPE  C21119074   4.196   1.363   7.909 -0.0821  0.1774 -0.2926
  169SOPE  H11R19075   4.146   1.271   7.947  1.9838 -0.6730  0.5078
  169SOPE  H11S19076   4.129   1.423   7.844  0.7428 -2.2374 -3.5981
  169SOPE  C21219077   4.222   1.453   8.037  0.0939 -0.2735 -0.1722
  169SOPE  H12R19078   4.125   1.477   8.084 -0.7157  0.1165 -1.9745
  169SOPE  H12S19079   4.256   1.553   8.002 -1.2243 -0.4380 -2.0834
  169SOPE  C21319080   4.314   1.392   8.145  0.2110  0.6101  0.2614
  169SOPE  H13R19081   4.350   1.469   8.217  0.6808  1.0493 -0.4325
  169SOPE  H13S19082   4.406   1.372   8.085 -1.9255 -0.3628 -2.8917
  169SOPE  C21419083   4.253   1.269   8.226 -0.4869  0.1507 -0.1666
  169SOPE  H14R19084   4.330   1.248   8.303  3.5120  1.6613 -3.3367
  169SOPE  H14S19085   4.251   1.184   8.155 -2.5865 -0.0649  0.0953
  169SOPE  C21519086   4.113   1.274   8.285  0.1477 -0.0239  0.0088
  169SOPE  H15R19087   4.042   1.303   8.205 -0.5952  0.1129  0.7093
  169SOPE  H15S19088   4.103   1.349   8.367 -2.3950  0.9251 -1.0761
  169SOPE  C21619089   4.083   1.132   8.340 -0.5002 -0.0079 -0.2815
  169SOPE  H16R19090   4.178   1.108   8.393  0.2684  0.9378 -1.1841
  169SOPE  H16S19091   4.073   1.056   8.261 -0.7186  0.7276 -0.9744
  169SOPE  C21719092   3.967   1.131   8.440  0.6117  0.6870 -0.4820
  169SOPE  H17R19093   3.871   1.173   8.403  0.8692  1.1958 -0.5827
  169SOPE  H17S19094   3.995   1.202   8.521 -2.8547  1.0411  0.6108
  169SOPE  C21819095   3.949   0.988   8.496  0.5908 -0.0364  0.6312
  169SOPE  H18R19096   3.904   0.919   8.421  1.2133  1.2421 -0.9825
  169SOPE  H18S19097   3.880   0.991   8.583  3.5864  1.0946  3.1619
  169SOPE  H18T19098   4.041   0.951   8.547  0.1991  0.5425  1.7735
  169SOPE   C3319099   4.447   1.078   7.249  0.4509  0.1219  0.4877
  169SOPE   H3X19100   4.448   1.189   7.251 -1.5003  0.3752 -3.0857
  169SOPE   H3Y19101   4.549   1.047   7.218 -0.0352 -0.9602 -0.1157
  169SOPE   C3419102   4.405   1.024   7.384 -0.3500 -0.9224  0.2994
  169SOPE   H4X19103   4.386   0.916   7.368 -1.4253 -0.4592 -1.8951
  169SOPE   H4Y19104   4.312   1.072   7.420 -0.2913 -0.4530 -0.1624
  169SOPE   C3519105   4.525   1.036   7.480 -0.2623  0.7204  0.0183
  169SOPE   H5X19106   4.541   1.143   7.502  0.8810  0.6708 -0.5347
  169SOPE   H5Y19107   4.615   1.005   7.423 -0.0003  1.4094  0.0506
  169SOPE   C3619108   4.505   0.949   7.608  0.5518  0.0012  0.0406
  169SOPE   H6X19109   4.520   0.844   7.577  1.4453 -0.5686  2.2405
  169SOPE   H6Y19110   4.402   0.955   7.649  1.7085  0.1984  3.2489
  169SOPE   C3719111   4.597   0.984   7.728 -0.5106 -0.3802 -0.1803
  169SOPE   H7X19112   4.611   1.094   7.720 -0.8733 -0.3977 -1.2424
  169SOPE   H7Y19113   4.696   0.935   7.724 -1.3417 -2.2868  1.1087
  169SOPE   C3819114   4.528   0.966   7.864 -0.4408  0.0548  0.0158
  169SOPE   H8X19115   4.424   1.005   7.855 -0.6330  0.0671  1.7861
  169SOPE   H8Y19116   4.513   0.858   7.882 -1.7636  0.3145  0.6436
  169SOPE   C3919117   4.602   1.025   7.980 -0.3748 -0.4707 -1.2344
  169SOPE   H9X19118   4.585   1.135   7.989 -2.3023 -0.7797 -0.8235
  169SOPE   H9Y19119   4.712   1.009   7.974 -0.2005 -1.1795  2.0362
  169SOPE  C31019120   4.561   0.963   8.123  0.5484 -0.5457 -0.1328
  169SOPE  H10X19121   4.564   0.853   8.136 -0.2337 -0.4351  1.1557
  169SOPE  H10Y19122   4.456   0.990   8.145  0.6759 -0.3148  0.1952
  169SOPE  C31119123   4.648   1.012   8.234 -0.8395 -0.3055 -1.3327
  169SOPE  H11X19124   4.667   1.121   8.218 -0.2010 -0.3931 -1.1917
  169SOPE  H11Y19125   4.744   0.956   8.229  0.5163  1.8052 -0.7571
  169SOPE  C31219126   4.581   0.995   8.376 -0.1523  0.0726  0.6105
  169SOPE  H12X19127   4.527   0.898   8.388  1.1210 -0.8546 -0.7461
  169SOPE  H12Y19128   4.501   1.071   8.388  0.6611  0.9227  0.7820
  169SOPE  C31319129   4.684   1.001   8.490 -0.0119  0.3534  0.5851
  169SOPE  H13X19130   4.733   1.097   8.462 -1.0371  1.1568  1.4969
  169SOPE  H13Y19131   4.776   0.940   8.480  1.9414  2.9997  1.2690
  169SOPE  C31419132   4.620   0.987   8.630 -0.3816 -0.9552 -0.2447
  169SOPE  H14X19133   4.573   0.889   8.650 -0.6191 -0.4184  2.1910
  169SOPE  H14Y19134   4.531   1.052   8.638 -3.6916 -5.1467  0.2298
  169SOPE  C31519135   4.712   1.011   8.747 -0.0991  0.0647 -0.0454
  169SOPE  H15X19136   4.732   1.119   8.767  0.9148 -0.1915  0.4078
  169SOPE  H15Y19137   4.810   0.962   8.731 -0.3133 -0.2482 -0.3928
  169SOPE  C31619138   4.643   0.952   8.876  0.0093  0.0623  0.1266
  169SOPE  H16X19139   4.596   0.857   8.844  2.7835 -0.7404 -1.9791
  169SOPE  H16Y19140   4.574   1.027   8.920  2.7349  1.9777  1.4194
  169SOPE  C31719141   4.735   0.910   8.990 -0.7234 -0.0085  0.1060
  169SOPE  H17X19142   4.670   0.897   9.079 -0.2004 -0.0527  0.4832
  169SOPE  H17Y19143   4.796   0.999   9.018 -1.0796 -0.3540  2.1297
  169SOPE  C31819144   4.829   0.785   8.973  0.3380 -0.2605 -0.2311
  169SOPE  H18X19145   4.900   0.796   8.889  2.6117 -1.2984  1.4487
  169SOPE  H18Y19146   4.756   0.706   8.946 -0.8268  0.4115  0.8018
  169SOPE  H18Z19147   4.879   0.747   9.065  0.0144 -1.2156 -0.4311
  170SOPE     N19148   0.447   6.041   6.645  0.3645 -0.4300 -0.5614
  170SOPE   HN119149   0.538   5.994   6.630 -0.8423 -3.0504 -0.2188
  170SOPE   HN219150   0.412   6.094   6.563  0.9420 -3.2285 -2.7835
  170SOPE   HN319151   0.464   6.114   6.717  0.8428  0.4486 -1.5362
  170SOPE   C1219152   0.336   5.948   6.677  0.5386  0.2652  0.4047
  170SOPE  H12A19153   0.364   5.901   6.774  1.1623  0.6961  0.4428
  170SOPE  H12B19154   0.331   5.872   6.596  2.1442 -0.5800  1.0533
  170SOPE   C1119155   0.208   6.020   6.708 -0.8440  0.5352  0.0191
  170SOPE  H11A19156   0.239   6.083   6.795 -1.7755  1.5505 -0.3580
  170SOPE  H11B19157   0.134   5.949   6.752  1.4421 -1.1955  1.2667
  170SOPE     P19158   0.051   6.045   6.505  0.4416 -0.0480  0.4228
  170SOPE   O1319159   0.106   5.945   6.407 -0.0145  0.3592 -0.1450
  170SOPE   O1419160  -0.017   6.162   6.442 -0.7621 -0.5254  0.3082
  170SOPE   O1219161   0.169   6.093   6.596  0.1531 -0.3625  0.0725
  170SOPE   O1119162  -0.051   5.969   6.602 -0.4939 -0.2666 -0.0822
  170SOPE    C119163  -0.183   5.999   6.632  0.0823 -0.4255 -0.1607
  170SOPE    HA19164  -0.240   5.971   6.541 -0.9909  1.2195 -0.0380
  170SOPE    HB19165  -0.213   6.104   6.651 -1.2293 -0.8861  0.4616
  170SOPE    C219166  -0.234   5.918   6.758 -0.7888  0.5713  0.9292
  170SOPE    HS19167  -0.345   5.917   6.770 -0.8674 -0.8156  0.3037
  170SOPE   O2119168  -0.173   5.975   6.874  0.4196 -0.0521 -0.0915
  170SOPE   C2119169  -0.230   6.088   6.919  0.6032 -0.4702 -0.1498
  170SOPE   O2219170  -0.328   6.138   6.862 -0.1011  0.6141  0.0705
  170SOPE   C2219171  -0.148   6.143   7.034 -0.0890 -0.1938 -0.0286
  170SOPE   H2R19172  -0.083   6.227   7.004  0.2138 -0.7001 -0.8388
  170SOPE   H2S19173  -0.084   6.061   7.074 -0.1859 -1.0279 -1.4897
  170SOPE    C319174  -0.194   5.770   6.753 -0.1551 -0.3393  0.1326
  170SOPE    HX19175  -0.084   5.783   6.752 -0.4193  2.5253 -1.8783
  170SOPE    HY19176  -0.237   5.733   6.657 -1.4860  0.5417  0.3684
  170SOPE   O3119177  -0.233   5.685   6.864 -0.5915 -0.2879  0.3192
  170SOPE   C3119178  -0.356   5.636   6.863 -0.6042  0.0976  0.2863
  170SOPE   O3219179  -0.438   5.648   6.776  0.2550 -0.0136  0.7428
  170SOPE   C3219180  -0.371   5.545   6.987 -0.0212 -0.4697 -0.1443
  170SOPE   H2X19181  -0.270   5.503   7.005 -0.8022 -2.4525 -0.1415
  170SOPE   H2Y19182  -0.445   5.464   6.968  0.7601 -0.6387 -2.8753
  170SOPE   C2319183  -0.238   6.195   7.151 -0.4747  0.2087  0.7720
  170SOPE   H3R19184  -0.274   6.109   7.211 -0.5811 -0.7295 -0.5933
  170SOPE   H3S19185  -0.322   6.261   7.117 -0.8367 -0.5014  0.2688
  170SOPE   C2419186  -0.153   6.293   7.243  0.2488  0.0840 -0.3668
  170SOPE   H4R19187  -0.123   6.386   7.190 -0.4284  1.6929  1.9447
  170SOPE   H4S19188  -0.208   6.321   7.334  1.8798 -0.9583  1.0030
  170SOPE   C2519189  -0.027   6.217   7.299  1.0915 -0.4137  0.4348
  170SOPE   H5R19190  -0.062   6.115   7.320 -0.8271  0.0734 -0.2244
  170SOPE   H5S19191   0.055   6.193   7.228  0.6404 -2.2121  0.4772
  170SOPE   C2619192   0.025   6.267   7.438  0.5986 -0.2670  0.1599
  170SOPE   H6R19193   0.029   6.378   7.439 -1.3926 -0.1604 -0.6740
  170SOPE   H6S19194  -0.039   6.240   7.525  0.8037  2.2459  1.1608
  170SOPE   C2719195   0.159   6.204   7.473 -1.0705  0.7112  0.2088
  170SOPE   H7R19196   0.141   6.094   7.477 -0.4964  0.6364  1.0852
  170SOPE   H7S19197   0.236   6.211   7.393 -0.3441 -2.3944  0.5031
  170SOPE   C2819198   0.215   6.250   7.609  0.2986 -0.3431  0.0721
  170SOPE   H8R19199   0.260   6.350   7.598 -1.1084  0.3106  0.0541
  170SOPE   H8S19200   0.121   6.266   7.666 -0.0607 -0.7589 -0.3910
  170SOPE   C2919201   0.297   6.154   7.691  0.4587  0.0664 -0.4315
  170SOPE   H9119202   0.405   6.166   7.672  0.2614  0.2470 -1.4598
  170SOPE  C21019203   0.244   6.064   7.777 -0.0485  0.8774 -0.5758
  170SOPE  H10119204   0.311   5.996   7.832 -2.1325 -1.5440 -0.8455
  170SOPE  C21119205   0.099   6.044   7.805 -0.2129 -0.0260 -0.2321
  170SOPE  H11R19206   0.074   5.936   7.803  0.2008 -0.1787 -3.9537
  170SOPE  H11S19207   0.034   6.085   7.725  1.9362 -2.0318 -3.2246
  170SOPE  C21219208   0.041   6.097   7.936  0.3028  0.5039  0.0515
  170SOPE  H12R19209   0.089   6.050   8.025 -0.6029  1.2643  0.9598
  170SOPE  H12S19210  -0.065   6.066   7.948 -0.5901  3.0311 -0.6430
  170SOPE  C21319211   0.064   6.251   7.953 -0.1540  0.1562  0.3808
  170SOPE  H13R19212  -0.003   6.298   7.878  0.0174  0.9373  0.7068
  170SOPE  H13S19213   0.167   6.285   7.928 -0.6007  0.3264 -1.3736
  170SOPE  C21419214   0.028   6.298   8.095  0.2522  0.1750  0.0174
  170SOPE  H14R19215   0.017   6.408   8.101 -1.9165  0.0072 -0.0934
  170SOPE  H14S19216   0.105   6.267   8.169  0.6143  0.7126 -0.1312
  170SOPE  C21519217  -0.108   6.241   8.146 -0.9568 -0.1634  0.0266
  170SOPE  H15R19218  -0.135   6.295   8.240 -2.9001 -1.2218  0.1276
  170SOPE  H15S19219  -0.087   6.133   8.165  0.4974  0.2371  0.9006
  170SOPE  C21619220  -0.236   6.274   8.065  0.3398 -0.4631 -0.2994
  170SOPE  H16R19221  -0.329   6.241   8.115 -0.5741  0.1076 -1.5663
  170SOPE  H16S19222  -0.224   6.231   7.963  2.0628  0.4529 -0.5308
  170SOPE  C21719223  -0.254   6.426   8.056 -0.0865  0.6635  0.1908
  170SOPE  H17R19224  -0.180   6.459   7.979 -0.9550 -0.2978 -1.1091
  170SOPE  H17S19225  -0.229   6.477   8.151  0.5563  0.2270  0.2617
  170SOPE  C21819226  -0.390   6.475   8.010 -0.1156  0.9806  0.7881
  170SOPE  H18R19227  -0.443   6.403   7.945 -1.4080  1.2450  1.4986
  170SOPE  H18S19228  -0.385   6.559   7.938 -1.4236  0.2575 -0.1951
  170SOPE  H18T19229  -0.453   6.503   8.098 -0.8363 -0.6968  0.8501
  170SOPE   C3319230  -0.416   5.632   7.102 -0.1982  0.3170  0.3554
  170SOPE   H3X19231  -0.516   5.679   7.086 -0.0309  0.6196  0.1947
  170SOPE   H3Y19232  -0.353   5.723   7.109 -1.0615  1.5266 -4.4247
  170SOPE   C3419233  -0.423   5.569   7.237  0.5451  0.1971  0.0341
  170SOPE   H4X19234  -0.332   5.569   7.300 -1.2770  0.8539  2.8365
  170SOPE   H4Y19235  -0.443   5.462   7.213 -1.7554  0.9694 -1.9874
  170SOPE   C3519236  -0.544   5.623   7.320 -0.3053 -0.1971 -0.0885
  170SOPE   H5X19237  -0.639   5.590   7.274 -0.6296  0.0453  0.3994
  170SOPE   H5Y19238  -0.540   5.733   7.303  0.8043 -0.1737  0.2145
  170SOPE   C3619239  -0.529   5.601   7.472 -0.4723 -0.0523  0.5423
  170SOPE   H6X19240  -0.426   5.624   7.508  0.6988 -1.1260 -1.8527
  170SOPE   H6Y19241  -0.545   5.492   7.487  2.0983 -0.9229 -2.0100
  170SOPE   C3719242  -0.632   5.691   7.545  0.1289  0.2958 -0.3547
  170SOPE   H7X19243  -0.719   5.681   7.477  0.4606 -2.9514 -0.4725
  170SOPE   H7Y19244  -0.593   5.795   7.551  0.4278  0.1188  1.2423
  170SOPE   C3819245  -0.674   5.641   7.683  0.6290 -0.1022 -0.7290
  170SOPE   H8X19246  -0.704   5.535   7.690 -0.5664  0.1928 -1.0345
  170SOPE   H8Y19247  -0.764   5.703   7.703  1.2924  0.7673 -0.3453
  170SOPE   C3919248  -0.571   5.669   7.797  0.3499 -0.6386 -0.0170
  170SOPE   H9X19249  -0.506   5.759   7.792  0.4523 -0.6032  1.5360
  170SOPE   H9Y19250  -0.504   5.580   7.801 -1.4571 -2.0560 -0.1218
  170SOPE  C31019251  -0.649   5.675   7.932 -0.3654  0.2679  0.2674
  170SOPE  H10X19252  -0.589   5.619   8.007  0.6664  0.1945 -0.5869
  170SOPE  H10Y19253  -0.745   5.620   7.922 -1.1242  1.8792 -2.1413
  170SOPE  C31119254  -0.667   5.815   7.995 -0.7041 -0.3373 -0.5602
  170SOPE  H11X19255  -0.738   5.888   7.950  2.8254  4.5136  0.8696
  170SOPE  H11Y19256  -0.569   5.867   7.982 -0.6081  0.0985  1.5841
  170SOPE  C31219257  -0.682   5.813   8.153  0.2672  0.3642 -0.2711
  170SOPE  H12X19258  -0.596   5.798   8.221 -1.2460 -1.0174  1.4567
  170SOPE  H12Y19259  -0.761   5.737   8.174  1.0994 -0.5709 -0.4729
  170SOPE  C31319260  -0.719   5.945   8.215 -0.3860  0.1239 -0.3714
  170SOPE  H13X19261  -0.656   6.032   8.189 -0.3826  0.1767 -0.1887
  170SOPE  H13Y19262  -0.720   5.943   8.326 -2.3715  2.4333 -0.2787
  170SOPE  C31419263  -0.867   5.986   8.176 -0.6907  0.2777 -0.5424
  170SOPE  H14X19264  -0.920   5.889   8.161 -0.1773 -0.9114  3.9172
  170SOPE  H14Y19265  -0.865   6.031   8.074  0.3697 -2.1292 -1.6726
  170SOPE  C31519266  -0.954   6.042   8.288  0.7446 -0.5276 -0.2619
  170SOPE  H15X19267  -0.923   6.147   8.309 -0.3627  0.0056 -1.1629
  170SOPE  H15Y19268  -0.942   5.985   8.382  0.2428 -2.5747 -1.3763
  170SOPE  C31619269  -1.092   6.042   8.244  0.4255 -0.0452 -0.5295
  170SOPE  H16X19270  -1.117   5.941   8.203 -1.0112 -0.5294  1.3777
  170SOPE  H16Y19271  -1.120   6.114   8.163  1.1038  2.9675  1.7559
  170SOPE  C31719272  -1.196   6.069   8.357  0.0586 -0.3024 -0.3318
  170SOPE  H17X19273  -1.299   6.082   8.319 -0.7142  0.3407  1.8314
  170SOPE  H17Y19274  -1.161   6.166   8.399  2.5052 -0.7233 -1.2200
  170SOPE  C31819275  -1.202   5.951   8.455 -0.2636 -0.7513  0.5577
  170SOPE  H18X19276  -1.295   5.955   8.516  1.7289  1.4303  3.7801
  170SOPE  H18Y19277  -1.115   5.960   8.524  1.0127 -1.3829 -0.9112
  170SOPE  H18Z19278  -1.186   5.853   8.406  1.0793  0.0081 -0.6121
  171SOPE     N19279   5.724   3.880   6.213 -0.3407 -0.6940 -0.2206
  171SOPE   HN119280   5.661   3.936   6.274  2.0721  0.1403  1.6835
  171SOPE   HN219281   5.752   3.956   6.148 -2.1695  0.3723  0.1557
  171SOPE   HN319282   5.658   3.816   6.163 -1.0572  0.0078 -0.1891
  171SOPE   C1219283   5.834   3.820   6.298 -0.3663  0.0917 -0.5640
  171SOPE  H12A19284   5.911   3.898   6.313  0.3854 -0.3564 -1.9259
  171SOPE  H12B19285   5.884   3.733   6.252 -0.5758 -1.2312  1.5539
  171SOPE   C1119286   5.766   3.759   6.419 -0.9882  0.1103  0.0702
  171SOPE  H11A19287   5.716   3.838   6.478 -0.7045  0.2527  0.1196
  171SOPE  H11B19288   5.840   3.716   6.490 -1.2036  2.8641  2.0790
  171SOPE     P19289   5.651   3.520   6.432  0.0452  0.1119 -0.1310
  171SOPE   O1319290   5.787   3.461   6.435 -0.5386  0.8849 -0.1145
  171SOPE   O1419291   5.530   3.456   6.372 -0.0963  0.4517 -0.4057
  171SOPE   O1219292   5.664   3.669   6.373 -0.4847  0.3200 -0.4609
  171SOPE   O1119293   5.626   3.545   6.580  0.7117 -0.2922 -0.0140
  171SOPE    C119294   5.513   3.616   6.629  0.2038  0.0467 -0.5647
  171SOPE    HA19295   5.417   3.601   6.575  0.2727 -0.5305 -0.5345
  171SOPE    HB19296   5.517   3.722   6.597 -2.8634  0.2897 -0.4292
  171SOPE    C219297   5.482   3.592   6.779  0.5228  0.8275 -0.3562
  171SOPE    HS19298   5.388   3.648   6.800  1.1319  1.9605 -0.5728
  171SOPE   O2119299   5.587   3.640   6.866 -0.0786  0.2488  0.5864
  171SOPE   C2119300   5.610   3.770   6.880 -0.3609  0.3258 -0.1860
  171SOPE   O2219301   5.565   3.856   6.813 -0.0649  0.5977  0.5795
  171SOPE   C2219302   5.708   3.791   6.991  0.3511  0.6047 -0.1279
  171SOPE   H2R19303   5.704   3.898   7.020 -1.5869  0.9276 -1.3895
  171SOPE   H2S19304   5.812   3.773   6.956  0.1094 -1.5224  0.1305
  171SOPE    C319305   5.461   3.433   6.797  0.0542 -0.7728  0.0557
  171SOPE    HX19306   5.553   3.373   6.779  0.2124 -1.4481  2.6305
  171SOPE    HY19307   5.393   3.411   6.713 -0.5779  0.0840  0.3324
  171SOPE   O3119308   5.409   3.387   6.921  0.1122  0.1411  0.0767
  171SOPE   C3119309   5.501   3.347   7.009 -0.4856  0.4046 -0.3501
  171SOPE   O3219310   5.621   3.357   6.996 -0.3619  0.0853 -0.1041
  171SOPE   C3219311   5.429   3.330   7.147  0.7086 -0.3420 -0.2250
  171SOPE   H2X19312   5.345   3.261   7.122 -0.6123  0.6351  1.3578
  171SOPE   H2Y19313   5.381   3.426   7.174  1.7111  0.7148 -1.9677
  171SOPE   C2319314   5.677   3.708   7.127  0.0487 -0.5217 -0.7811
  171SOPE   H3R19315   5.660   3.600   7.112 -1.0722 -0.6496  1.0292
  171SOPE   H3S19316   5.600   3.761   7.187 -1.2300 -1.0367 -1.9475
  171SOPE   C2419317   5.806   3.692   7.213  0.4651 -0.6140 -0.7648
  171SOPE   H4R19318   5.874   3.610   7.184  1.4896 -0.1949  0.3626
  171SOPE   H4S19319   5.866   3.786   7.210 -1.1249  0.6644  2.6000
  171SOPE   C2519320   5.774   3.676   7.366 -0.0337 -0.4040 -0.3817
  171SOPE   H5R19321   5.709   3.755   7.410  0.9764 -0.6502  1.6801
  171SOPE   H5S19322   5.713   3.583   7.367 -0.7797  0.0513  1.2754
  171SOPE   C2619323   5.901   3.653   7.441 -0.1527 -0.3395  0.4399
  171SOPE   H6R19324   5.940   3.550   7.428  0.6336  0.0866 -0.6905
  171SOPE   H6S19325   5.977   3.720   7.396 -0.5531  2.2402  3.3269
  171SOPE   C2719326   5.876   3.681   7.588  0.7698 -0.0800 -0.2512
  171SOPE   H7R19327   5.975   3.720   7.619 -0.0575  1.9887 -0.0247
  171SOPE   H7S19328   5.814   3.773   7.600 -1.0195 -1.4588  2.1783
  171SOPE   C2819329   5.816   3.570   7.679 -0.3131 -0.7621 -0.2364
  171SOPE   H8R19330   5.802   3.613   7.780  0.8729  1.8071 -1.0530
  171SOPE   H8S19331   5.713   3.545   7.645 -0.8347  1.2209 -0.2976
  171SOPE   C2919332   5.892   3.443   7.689  0.4505 -0.1612  0.2748
  171SOPE   H9119333   5.898   3.393   7.591 -1.7309  1.0449 -0.5595
  171SOPE  C21019334   5.941   3.384   7.802  0.3509  0.1480  0.0136
  171SOPE  H10119335   5.997   3.291   7.789  2.4921  1.7026 -3.2354
  171SOPE  C21119336   5.927   3.431   7.946  0.2207 -0.1467 -0.0108
  171SOPE  H11R19337   5.852   3.513   7.946 -1.3689 -1.4603 -2.8807
  171SOPE  H11S19338   6.028   3.465   7.980  0.4123  1.0182 -1.6467
  171SOPE  C21219339   5.879   3.312   8.033  0.3507  0.5019 -0.0560
  171SOPE  H12R19340   5.932   3.217   8.012  1.2505  0.7490  1.0062
  171SOPE  H12S19341   5.769   3.303   8.019  0.6960 -0.7411 -2.3671
  171SOPE  C21319342   5.890   3.329   8.185  0.2195  0.7462 -0.0668
  171SOPE  H13R19343   5.829   3.245   8.226 -0.8945 -0.8117 -4.3751
  171SOPE  H13S19344   5.841   3.427   8.202  0.8141  0.7669  1.6978
  171SOPE  C21419345   6.026   3.350   8.251  0.1395 -0.6763 -0.3702
  171SOPE  H14R19346   6.085   3.418   8.188 -1.6658  1.0242 -0.3203
  171SOPE  H14S19347   6.094   3.263   8.263  0.1317 -0.9991 -2.4144
  171SOPE  C21519348   6.015   3.419   8.390  0.5001 -0.8707  0.1797
  171SOPE  H15R19349   6.103   3.384   8.449  1.8921  1.4198 -0.3960
  171SOPE  H15S19350   5.922   3.384   8.440  0.5683 -0.6699  0.4538
  171SOPE  C21619351   6.019   3.570   8.377  0.2327  0.0711 -0.6415
  171SOPE  H16R19352   5.941   3.607   8.307 -1.7648 -0.2667  1.2973
  171SOPE  H16S19353   6.120   3.594   8.336  1.5306  0.5435  2.5488
  171SOPE  C21719354   5.997   3.648   8.503  0.0177  0.0794  0.0224
  171SOPE  H17R19355   6.048   3.747   8.505  0.1642  0.1364 -2.6780
  171SOPE  H17S19356   6.048   3.594   8.585 -0.6257  1.6293  1.4994
  171SOPE  C21819357   5.853   3.667   8.544  0.5219  0.4947 -0.2982
  171SOPE  H18R19358   5.813   3.563   8.536 -0.1852  0.7061  0.2842
  171SOPE  H18S19359   5.800   3.736   8.475  2.0426  3.6270  1.4690
  171SOPE  H18T19360   5.855   3.692   8.653 -0.0769 -0.4951 -0.0403
  171SOPE   C3319361   5.511   3.269   7.263 -0.1333 -0.5221 -0.1927
  171SOPE   H3X19362   5.597   3.340   7.259  0.2229 -0.8984  0.5219
  171SOPE   H3Y19363   5.557   3.169   7.252 -2.0048 -1.3002 -1.3732
  171SOPE   C3419364   5.447   3.289   7.399  0.0410 -0.6691  0.2475
  171SOPE   H4X19365   5.374   3.211   7.428 -1.7660 -0.2650 -2.8741
  171SOPE   H4Y19366   5.396   3.388   7.404  0.2400 -0.4493 -1.4954
  171SOPE   C3519367   5.554   3.289   7.507 -0.6363  0.0628  0.1962
  171SOPE   H5X19368   5.633   3.363   7.486 -0.3115 -0.3621 -0.1118
  171SOPE   H5Y19369   5.615   3.196   7.510  0.2145  0.6440  1.5287
  171SOPE   C3619370   5.505   3.319   7.659  0.1231  0.4371  0.5874
  171SOPE   H6X19371   5.593   3.351   7.720  1.5022 -1.1945 -0.4509
  171SOPE   H6Y19372   5.466   3.229   7.712 -0.3004  0.8225  0.9403
  171SOPE   C3719373   5.402   3.432   7.665  0.1415  0.1166  0.0410
  171SOPE   H7X19374   5.321   3.395   7.599  2.0209 -2.6767 -0.8749
  171SOPE   H7Y19375   5.442   3.522   7.613  0.4938 -0.9431 -1.5925
  171SOPE   C3819376   5.354   3.468   7.807 -0.0442 -0.5873 -0.2985
  171SOPE   H8X19377   5.315   3.377   7.858  1.6627 -1.6102 -0.7334
  171SOPE   H8Y19378   5.274   3.543   7.790  1.7130  1.3636 -0.3111
  171SOPE   C3919379   5.458   3.533   7.901 -1.1430  0.1129  0.9467
  171SOPE   H9X19380   5.511   3.617   7.852  2.9839 -2.1701  1.1019
  171SOPE   H9Y19381   5.528   3.449   7.920 -0.9322 -0.1038 -0.6530
  171SOPE  C31019382   5.384   3.588   8.021  0.7424  0.6343  0.9034
  171SOPE  H10X19383   5.328   3.507   8.073  0.7023  1.1784  1.7257
  171SOPE  H10Y19384   5.305   3.652   7.976  1.1681 -1.5442 -3.3984
  171SOPE  C31119385   5.476   3.667   8.118  0.4200  0.1576  0.3114
  171SOPE  H11X19386   5.488   3.771   8.079 -2.7675  1.1116  1.4984
  171SOPE  H11Y19387   5.568   3.607   8.136 -1.4473 -2.7454  0.8793
  171SOPE  C31219388   5.390   3.680   8.247  0.6207  1.2734  0.7125
  171SOPE  H12X19389   5.369   3.585   8.300 -0.3417  1.6607  1.0506
  171SOPE  H12Y19390   5.298   3.734   8.216  0.4914  1.2309  1.0227
  171SOPE  C31319391   5.463   3.767   8.347  0.3479 -0.9840  0.3400
  171SOPE  H13X19392   5.497   3.862   8.301  3.0867 -1.2617  1.5708
  171SOPE  H13Y19393   5.557   3.710   8.364  1.8768  0.7393 -1.6516
  171SOPE  C31419394   5.389   3.799   8.476  0.2836  0.3947  0.3865
  171SOPE  H14X19395   5.309   3.871   8.449 -0.4101 -0.4280  0.2074
  171SOPE  H14Y19396   5.467   3.847   8.540  1.1936  0.3776 -0.6719
  171SOPE  C31519397   5.326   3.684   8.546  0.1624  0.0562  0.6193
  171SOPE  H15X19398   5.414   3.642   8.601  2.3255  3.0687 -0.2808
  171SOPE  H15Y19399   5.279   3.604   8.486  0.4926 -0.5991  1.2085
  171SOPE  C31619400   5.230   3.727   8.654  0.4073 -0.2065  0.0263
  171SOPE  H16X19401   5.193   3.641   8.713 -0.0461  0.2979  0.4959
  171SOPE  H16Y19402   5.146   3.772   8.597  0.9658  1.5346  0.5122
  171SOPE  C31719403   5.289   3.817   8.762  0.0185  0.3975  0.4903
  171SOPE  H17X19404   5.322   3.910   8.711  0.0355 -0.7386 -1.7121
  171SOPE  H17Y19405   5.377   3.767   8.808  0.4509  1.3875  0.7819
  171SOPE  C31819406   5.204   3.854   8.885  0.1713  0.0132 -0.5405
  171SOPE  H18X19407   5.184   3.770   8.955  0.7630  0.6974  0.4807
  171SOPE  H18Y19408   5.110   3.908   8.863 -0.3656  0.4040  2.3130
  171SOPE  H18Z19409   5.258   3.924   8.954 -0.0725 -2.0130  1.8620
  172SOPE     N19410   1.416   4.529   6.103 -0.3299  0.2677 -0.2530
  172SOPE   HN119411   1.330   4.566   6.149  0.3427  0.1989  1.0771
  172SOPE   HN219412   1.491   4.577   6.156 -1.1378  0.0093  1.1490
  172SOPE   HN319413   1.414   4.557   6.002  1.8079 -0.4799 -0.5432
  172SOPE   C1219414   1.425   4.378   6.133  0.0419  0.2383  0.2536
  172SOPE  H12A19415   1.502   4.323   6.075  1.6075  2.0300  0.5315
  172SOPE  H12B19416   1.324   4.344   6.103 -0.3447  1.4826  0.0888
  172SOPE   C1119417   1.457   4.353   6.276  0.0201 -0.2436  0.7230
  172SOPE  H11A19418   1.564   4.376   6.293  0.3938 -0.4058 -1.1668
  172SOPE  H11B19419   1.454   4.245   6.303  0.4323 -0.3857  0.2014
  172SOPE     P19420   1.234   4.393   6.425  0.4408  0.0970 -0.1018
  172SOPE   O1319421   1.143   4.337   6.325 -0.3404  0.1716  0.0935
  172SOPE   O1419422   1.185   4.507   6.500  0.5187 -0.3201  0.3933
  172SOPE   O1219423   1.374   4.430   6.365 -0.0362  0.3026  0.0780
  172SOPE   O1119424   1.267   4.282   6.522  0.1436 -0.0249 -0.5576
  172SOPE    C119425   1.381   4.268   6.607  0.2949 -0.0556 -0.0369
  172SOPE    HA19426   1.337   4.251   6.708 -0.3115 -1.8934 -0.5660
  172SOPE    HB19427   1.442   4.361   6.607 -1.6988  1.3322  1.2359
  172SOPE    C219428   1.463   4.142   6.580  0.1032  0.1573  0.8073
  172SOPE    HS19429   1.515   4.153   6.482 -1.3494 -0.9188 -0.1277
  172SOPE   O2119430   1.373   4.024   6.583  0.6276  0.1634  0.5124
  172SOPE   C2119431   1.423   3.916   6.533  1.1231  0.3765  0.2048
  172SOPE   O2219432   1.531   3.900   6.481 -0.1270 -1.0164  0.0292
  172SOPE   C2219433   1.334   3.792   6.543  0.2507 -0.6889  0.0816
  172SOPE   H2R19434   1.400   3.705   6.565  0.4964 -0.8251 -1.1111
  172SOPE   H2S19435   1.292   3.765   6.443 -0.4389 -0.2819  0.2524
  172SOPE    C319436   1.582   4.130   6.678  0.1038 -1.1199 -0.0702
  172SOPE    HX19437   1.635   4.227   6.662  0.9189 -1.5539 -0.0555
  172SOPE    HY19438   1.643   4.042   6.651  0.7952 -0.1417 -1.8193
  172SOPE   O3119439   1.537   4.121   6.813  0.3535  0.3563  0.3861
  172SOPE   C3119440   1.609   4.187   6.908 -0.1669 -0.0392 -0.4392
  172SOPE   O3219441   1.714   4.246   6.889  0.1096  0.3104  0.5935
  172SOPE   C3219442   1.540   4.174   7.042 -0.5662  0.2297 -0.1800
  172SOPE   H2X19443   1.455   4.103   7.039 -1.5511  1.1741  2.1026
  172SOPE   H2Y19444   1.494   4.274   7.062 -0.7652 -0.2406  2.0226
  172SOPE   C2319445   1.219   3.795   6.654  0.1039  0.3145 -0.7265
  172SOPE   H3R19446   1.152   3.883   6.642 -0.6165 -0.0765  0.2836
  172SOPE   H3S19447   1.262   3.784   6.756  0.0901 -0.6667 -0.8153
  172SOPE   C2419448   1.143   3.670   6.632  0.4003 -0.0417 -0.7769
  172SOPE   H4R19449   1.085   3.671   6.537  0.4701  0.5559 -0.8203
  172SOPE   H4S19450   1.212   3.584   6.626 -0.4235 -0.6318 -2.9046
  172SOPE   C2519451   1.022   3.628   6.735  0.0756 -0.0273 -0.3375
  172SOPE   H5R19452   0.974   3.538   6.692 -1.6083  1.6305 -2.1535
  172SOPE   H5S19453   1.055   3.588   6.833 -0.2995 -1.7884 -0.9026
  172SOPE   C2619454   0.908   3.736   6.760 -0.2469  0.8971 -0.2033
  172SOPE   H6R19455   0.957   3.835   6.774 -1.3407  1.3515  0.4859
  172SOPE   H6S19456   0.852   3.736   6.664 -0.9773 -1.1407  0.1598
  172SOPE   C2719457   0.799   3.697   6.863 -0.9625 -0.2176 -0.0309
  172SOPE   H7R19458   0.719   3.772   6.853 -1.9961 -1.3332 -0.3927
  172SOPE   H7S19459   0.757   3.600   6.828  1.4383 -0.3136 -3.0527
  172SOPE   C2819460   0.842   3.682   7.012 -0.7131 -0.6919  0.3781
  172SOPE   H8R19461   0.753   3.700   7.076  0.6897 -0.2918  2.2873
  172SOPE   H8S19462   0.881   3.578   7.018  2.4825  0.2609 -1.4098
  172SOPE   C2919463   0.948   3.787   7.048 -0.0160  0.3142 -0.0922
  172SOPE   H9119464   1.040   3.799   6.990  2.0988 -0.8834  2.7830
  172SOPE  C21019465   0.932   3.897   7.126 -0.8949 -0.5767  0.0651
  172SOPE  H10119466   1.014   3.970   7.137 -2.5160  1.3450  0.1173
  172SOPE  C21119467   0.812   3.934   7.206  0.1389  0.5103 -0.6060
  172SOPE  H11R19468   0.843   3.965   7.308 -1.1612  1.0940 -0.3570
  172SOPE  H11S19469   0.749   3.843   7.219 -0.3214  1.0310  1.0263
  172SOPE  C21219470   0.731   4.037   7.136  0.4601 -0.1605 -0.5581
  172SOPE  H12R19471   0.705   3.991   7.038 -0.8186 -0.4817 -0.0949
  172SOPE  H12S19472   0.806   4.119   7.133  1.5942 -1.1237  0.6379
  172SOPE  C21319473   0.600   4.082   7.192  0.3747  0.5345 -0.0608
  172SOPE  H13R19474   0.517   4.020   7.151  1.7455 -1.9672  0.7549
  172SOPE  H13S19475   0.583   4.188   7.164  2.1551  1.5200  2.2801
  172SOPE  C21419476   0.590   4.073   7.342 -0.6271 -0.2413 -0.5535
  172SOPE  H14R19477   0.685   4.109   7.387 -0.5301  0.4607 -1.2896
  172SOPE  H14S19478   0.558   3.972   7.375  0.1734 -0.3442 -0.0605
  172SOPE  C21519479   0.482   4.164   7.402  0.6031 -0.0711  0.5844
  172SOPE  H15R19480   0.384   4.135   7.359  0.2756  0.3955  1.0146
  172SOPE  H15S19481   0.508   4.271   7.382 -0.6677  0.5038  1.8111
  172SOPE  C21619482   0.484   4.149   7.555  0.7018  0.3516  0.0531
  172SOPE  H16R19483   0.583   4.173   7.598  0.1604 -0.1791  1.6405
  172SOPE  H16S19484   0.460   4.044   7.579  0.0964  0.5630  0.3902
  172SOPE  C21719485   0.380   4.231   7.629 -0.1786 -0.8743  0.2208
  172SOPE  H17R19486   0.287   4.217   7.569  0.3605 -0.8753 -0.6291
  172SOPE  H17S19487   0.422   4.333   7.613  0.0831 -1.0162 -0.0053
  172SOPE  C21819488   0.363   4.202   7.781 -0.1786 -0.2172  0.0293
  172SOPE  H18R19489   0.464   4.203   7.826  0.6294 -0.1517 -1.7016
  172SOPE  H18S19490   0.297   4.113   7.794 -1.5939  0.9868  1.4654
  172SOPE  H18T19491   0.305   4.292   7.809  1.4519  1.4438 -1.6426
  172SOPE   C3319492   1.642   4.146   7.158  0.0489  0.3975  0.7850
  172SOPE   H3X19493   1.597   4.167   7.257  1.4178  0.7994  1.3393
  172SOPE   H3Y19494   1.728   4.216   7.146 -0.0548  0.3239 -0.6382
  172SOPE   C3419495   1.679   4.001   7.156  0.1606  0.4494  0.1389
  172SOPE   H4X19496   1.710   3.971   7.054  3.6689 -1.2674  1.5235
  172SOPE   H4Y19497   1.597   3.934   7.191  1.8590 -1.2334  1.1193
  172SOPE   C3519498   1.790   3.973   7.258  0.2059  0.3851 -0.3376
  172SOPE   H5X19499   1.878   4.039   7.243 -0.2531  1.2357  0.6234
  172SOPE   H5Y19500   1.820   3.867   7.246 -0.0234  0.3769 -0.8497
  172SOPE   C3619501   1.737   3.966   7.398  1.1659  0.1575 -0.4852
  172SOPE   H6X19502   1.677   3.872   7.406  1.7355 -0.4962 -2.8965
  172SOPE   H6Y19503   1.669   4.052   7.414 -0.7294 -1.6062  1.6156
  172SOPE   C3719504   1.845   3.959   7.510  0.3798  0.0871  0.7471
  172SOPE   H7X19505   1.903   4.053   7.500  1.3220 -0.6700 -1.6663
  172SOPE   H7Y19506   1.913   3.880   7.472 -0.6761  0.5650 -2.4299
  172SOPE   C3819507   1.783   3.936   7.645  0.4146  0.0501  0.4814
  172SOPE   H8X19508   1.704   3.858   7.640  0.7586 -0.2570 -0.2179
  172SOPE   H8Y19509   1.735   4.034   7.665  1.2426  1.1641 -2.4940
  172SOPE   C3919510   1.886   3.921   7.753  1.1331  0.6508 -0.3544
  172SOPE   H9X19511   1.976   3.987   7.752  0.9086  1.0839  2.0127
  172SOPE   H9Y19512   1.909   3.813   7.762  1.8633  0.7788 -0.5903
  172SOPE  C31019513   1.815   3.956   7.886 -0.0199  0.7542  0.2476
  172SOPE  H10X19514   1.733   3.886   7.913 -0.9985  2.0909  0.7978
  172SOPE  H10Y19515   1.753   4.047   7.884 -1.9677 -0.5236 -0.4758
  172SOPE  C31119516   1.909   3.957   8.013 -0.1072  0.3078 -0.5949
  172SOPE  H11X19517   1.989   4.029   7.985 -0.4456  0.1382 -2.1238
  172SOPE  H11Y19518   1.955   3.857   8.025  0.0677  0.6067  1.6414
  172SOPE  C31219519   1.836   3.991   8.139  0.1585  0.0046 -0.3053
  172SOPE  H12X19520   1.737   3.939   8.142  0.1724 -0.0056  0.0320
  172SOPE  H12Y19521   1.816   4.100   8.139  0.3514  0.0561 -1.6972
  172SOPE  C31319522   1.914   3.952   8.269 -0.8674  0.2204  0.2057
  172SOPE  H13X19523   1.932   3.843   8.277  1.0278  0.5091  0.3266
  172SOPE  H13Y19524   1.852   3.963   8.361 -2.0633  0.1151 -0.5688
  172SOPE  C31419525   2.048   4.033   8.296  0.6424  0.4417 -0.1179
  172SOPE  H14X19526   2.021   4.136   8.327 -1.7823  0.7158 -2.6800
  172SOPE  H14Y19527   2.103   4.047   8.201  0.5758  3.8831  0.2158
  172SOPE  C31519528   2.147   3.973   8.397 -0.0542  0.4938  0.1162
  172SOPE  H15X19529   2.180   3.879   8.348 -3.1242 -1.0717  0.8300
  172SOPE  H15Y19530   2.091   3.938   8.486  1.2133 -0.1447  0.6820
  172SOPE  C31619531   2.261   4.064   8.444 -0.9544  1.2299  0.1045
  172SOPE  H16X19532   2.290   4.026   8.545 -1.1873 -0.5225 -0.4462
  172SOPE  H16Y19533   2.223   4.164   8.475 -1.2372  0.4020  2.7322
  172SOPE  C31719534   2.384   4.054   8.356  0.1300 -0.2848  0.6049
  172SOPE  H17X19535   2.360   4.097   8.257 -0.3194 -1.9359 -0.0401
  172SOPE  H17Y19536   2.401   3.946   8.335 -0.2908 -0.3415  0.5363
  172SOPE  C31819537   2.510   4.103   8.420 -0.0224  0.4969 -0.6428
  172SOPE  H18X19538   2.495   4.194   8.482  0.1108 -0.2441  0.5103
  172SOPE  H18Y19539   2.587   4.109   8.339 -0.7238 -0.2788 -1.3912
  172SOPE  H18Z19540   2.545   4.022   8.488 -1.0670 -0.5028 -1.2585
  173SAPI   C1219541   5.818   2.901  10.888  0.1353 -0.5498 -0.2770
  173SAPI    H219542   5.798   3.006  10.858 -0.3644 -0.7083 -0.5024
  173SAPI    O219543   5.900   2.851  10.792 -0.3763  0.0977  0.7959
  173SAPI   HO219544   5.853   2.847  10.708  0.9401  1.6335 -0.0745
  173SAPI   C1319545   5.896   2.921  11.021 -0.0883  0.0576  0.1680
  173SAPI    H319546   5.824   2.969  11.090 -1.2926  1.2858 -1.8481
  173SAPI    O319547   6.021   3.001  11.020  0.3728 -0.3651  0.6619
  173SAPI   HO319548   6.073   2.972  10.945 -0.4231 -1.3562  0.4593
  173SAPI   C1419549   5.934   2.776  11.067 -0.6266 -0.4093 -0.1428
  173SAPI    H419550   6.001   2.728  10.992 -1.1978 -0.9174 -0.3394
  173SAPI    O419551   6.011   2.773  11.192  0.5492 -0.3448 -0.8375
  173SAPI   HO419552   6.095   2.732  11.171  0.3490 -1.4148  0.2883
  173SAPI   C1519553   5.810   2.691  11.080 -0.1536  0.0720 -0.4502
  173SAPI    H519554   5.753   2.727  11.169 -0.1641 -2.4226  0.6449
  173SAPI    O519555   5.854   2.557  11.116 -0.2269  0.4233  0.0332
  173SAPI   HO519556   5.831   2.535  11.206 -0.6234 -2.6106 -0.7122
  173SAPI   C1619557   5.722   2.685  10.950 -0.3933  0.1185 -0.4474
  173SAPI    H619558   5.763   2.627  10.865  2.2619  0.3324  0.5943
  173SAPI    O619559   5.593   2.619  10.979 -0.1880  0.0859 -0.2434
  173SAPI   HO619560   5.561   2.592  10.892  1.9465  0.3672 -1.1643
  173SAPI   C1119561   5.685   2.826  10.908  0.7264  0.7176  0.7237
  173SAPI    H119562   5.630   2.875  10.991 -2.2428  0.0104 -0.7137
  173SAPI     P19563   5.522   2.960  10.744  0.1554  0.2765  0.1300
  173SAPI   O1319564   5.500   3.067  10.844 -0.0918  0.2042 -0.1752
  173SAPI   O1419565   5.396   2.904  10.696  0.3221  0.1366  1.0147
  173SAPI   O1219566   5.608   2.832  10.793  0.1106  0.1049 -0.2452
  173SAPI   O1119567   5.606   3.018  10.628 -0.9282  0.3678 -0.2211
  173SAPI    C119568   5.648   2.933  10.514  0.1636 -0.2204  0.2684
  173SAPI    HA19569   5.757   2.938  10.495  0.0121 -0.2926 -0.6634
  173SAPI    HB19570   5.627   2.824  10.515  1.4938 -0.5320 -1.2813
  173SAPI    C219571   5.583   2.975  10.375  0.1275 -0.3389 -0.2258
  173SAPI    HS19572   5.641   3.061  10.335  1.4807  0.2661  2.7270
  173SAPI   O2119573   5.447   3.015  10.392 -0.6892  0.1458 -0.1805
  173SAPI   C2119574   5.430   3.144  10.397  0.4722  1.0898 -0.8879
  173SAPI   O2219575   5.513   3.229  10.387  0.8539  0.3697 -0.5477
  173SAPI   C2219576   5.278   3.174  10.408 -0.2955  0.1674  0.3447
  173SAPI   H2R19577   5.243   3.135  10.505 -0.5515 -1.7802 -0.4739
  173SAPI   H2S19578   5.272   3.284  10.396 -1.1294 -0.0326 -1.3784
  173SAPI    C319579   5.597   2.866  10.266 -0.1836  0.4181 -0.0887
  173SAPI    HX19580   5.524   2.785  10.284 -0.9591  0.7480 -1.6267
  173SAPI    HY19581   5.691   2.811  10.285 -2.1757 -2.3015  3.0336
  173SAPI   O3119582   5.574   2.923  10.134 -0.0101 -0.3878 -0.9974
  173SAPI   C3119583   5.451   2.910  10.086  0.3162  0.6580 -0.5610
  173SAPI   O3219584   5.362   2.847  10.145 -0.6092  0.2340  0.3053
  173SAPI   C3219585   5.437   2.968   9.949 -0.1942 -0.1370 -0.0377
  173SAPI   H2X19586   5.472   3.073   9.940 -0.7217  0.0771  0.3451
  173SAPI   H2Y19587   5.328   2.973   9.927 -0.3389 -0.5288  0.5509
  173SAPI   C2319588   5.188   3.117  10.300  0.3849  0.1182 -0.4308
  173SAPI   H3R19589   5.080   3.123  10.329  0.1508  1.7863 -1.5073
  173SAPI   H3S19590   5.218   3.010  10.297  0.2973  0.0935 -0.4332
  173SAPI   C2419591   5.201   3.196  10.167 -0.0807 -0.4284  0.2419
  173SAPI   H4R19592   5.291   3.161  10.113  0.2708  1.5007 -0.5365
  173SAPI   H4S19593   5.210   3.305  10.190 -2.6071 -0.0488 -0.1950
  173SAPI   C2519594   5.091   3.163  10.068 -0.6921 -0.0252 -0.2802
  173SAPI   H5R19595   5.018   3.083  10.090 -1.1840  0.9893  2.0706
  173SAPI   C2619596   5.064   3.221   9.948  0.0327  0.6165 -0.0891
  173SAPI   H6R19597   4.988   3.168   9.890  0.7355  1.2263 -1.6079
  173SAPI   C2719598   5.145   3.327   9.877  0.2134  0.4153  0.1975
  173SAPI   H7R19599   5.173   3.279   9.781  0.3466 -1.4268  1.1126
  173SAPI   H7S19600   5.242   3.347   9.928  0.4053 -0.5892  0.2389
  173SAPI   C2819601   5.078   3.462   9.852 -0.1649  0.0250 -0.1165
  173SAPI   H8R19602   5.104   3.537   9.927 -0.9732 -0.4641  0.6812
  173SAPI   C2919603   4.979   3.486   9.761 -0.4388  0.1823 -0.8024
  173SAPI   H9R19604   4.940   3.588   9.775  0.5280  0.2486  1.9894
  173SAPI  C21019605   4.926   3.392   9.659  0.2170 -0.6932 -1.1388
  173SAPI  H10R19606   4.896   3.297   9.707 -3.5304  1.4822  1.3871
  173SAPI  H10S19607   4.991   3.385   9.570  1.1986  0.4084 -0.5351
  173SAPI  C21119608   4.792   3.440   9.615  0.5929  0.9918  0.0447
  173SAPI  H11R19609   4.745   3.507   9.689  1.3354 -0.3958  1.8424
  173SAPI  C21219610   4.741   3.435   9.492  0.8053  0.1550 -0.7559
  173SAPI  H12R19611   4.631   3.437   9.490  0.8079  0.8987 -0.6666
  173SAPI  C21319612   4.796   3.367   9.368 -0.0782 -0.3994  0.0354
  173SAPI  H13R19613   4.715   3.309   9.318  0.3216 -0.4652 -0.5423
  173SAPI  H13S19614   4.876   3.295   9.393 -0.5055 -0.3729  1.5689
  173SAPI  C21419615   4.847   3.472   9.277  0.1305 -0.1434  0.3938
  173SAPI  H14R19616   4.943   3.520   9.297 -0.5795  2.4572 -1.8630
  173SAPI  C21519617   4.794   3.513   9.161  0.4324 -0.1352 -0.3788
  173SAPI  H15R19618   4.811   3.612   9.117 -0.0544 -0.0934 -0.4811
  173SAPI  C21619619   4.672   3.461   9.084  0.4803  0.2898 -0.1289
  173SAPI  H16R19620   4.589   3.519   9.129 -0.6686 -1.8766  0.7004
  173SAPI  H16S19621   4.648   3.356   9.112  2.3752 -0.5111 -1.3114
  173SAPI  C21719622   4.679   3.458   8.929  0.6377 -0.4111 -0.4230
  173SAPI  H17R19623   4.752   3.377   8.909  0.8350 -0.4400  0.3650
  173SAPI  H17S19624   4.735   3.545   8.888  3.4831 -1.7129  0.4659
  173SAPI  C21819625   4.545   3.440   8.864 -0.1298  0.5971  1.1370
  173SAPI  H18R19626   4.480   3.526   8.889  0.1261  1.1049  0.1019
  173SAPI  H18S19627   4.503   3.344   8.902  0.4842 -0.4489 -0.6836
  173SAPI  C21919628   4.564   3.441   8.704 -0.9604  0.6034 -0.5530
  173SAPI  H19R19629   4.621   3.351   8.671 -0.1460  1.0628 -0.4159
  173SAPI  H19S19630   4.615   3.533   8.668  1.5441  0.2317  1.7480
  173SAPI  C22019631   4.430   3.441   8.633 -0.8332  0.6760  0.3063
  173SAPI  H20R19632   4.450   3.429   8.525  1.4329  0.8042  0.6558
  173SAPI  H20S19633   4.370   3.533   8.650 -0.6860  0.7369  0.4995
  173SAPI  H20T19634   4.361   3.358   8.660 -0.1389  0.3178  1.0272
  173SAPI   C3319635   5.508   2.884   9.840 -0.2380  0.4163 -0.2698
  173SAPI   H3X19636   5.460   2.784   9.830  0.4260 -0.1236  1.5981
  173SAPI   H3Y19637   5.617   2.871   9.861 -0.5538 -0.2863  1.0128
  173SAPI   C3419638   5.513   2.963   9.706  0.4402 -0.4556  0.7912
  173SAPI   H4X19639   5.594   2.920   9.644 -0.0074  0.3057 -0.3485
  173SAPI   H4Y19640   5.535   3.071   9.722  0.5560 -0.2595 -0.5845
  173SAPI   C3519641   5.381   2.960   9.634 -0.0239 -0.0678 -0.9152
  173SAPI   H5X19642   5.313   3.034   9.681 -0.1012 -1.5249  1.4024
  173SAPI   H5Y19643   5.333   2.860   9.638 -0.1577  0.0163 -0.4307
  173SAPI   C3619644   5.396   2.982   9.484 -0.7288  0.0550  0.6417
  173SAPI   H6X19645   5.390   2.887   9.426 -0.7088  1.7248 -2.2968
  173SAPI   H6Y19646   5.494   3.031   9.465 -0.6395 -0.1411  0.5912
  173SAPI   C3719647   5.284   3.073   9.428 -0.0513 -0.2753 -0.0984
  173SAPI   H7X19648   5.302   3.179   9.454 -1.2682  0.0928 -0.6623
  173SAPI   H7Y19649   5.184   3.043   9.467  0.6663 -3.2508 -0.2680
  173SAPI   C3819650   5.271   3.064   9.275  0.5746  0.1574  0.0812
  173SAPI   H8X19651   5.277   2.962   9.231  1.6882  0.0525  0.4331
  173SAPI   H8Y19652   5.362   3.117   9.239  2.1627 -2.2194  0.3270
  173SAPI   C3919653   5.135   3.127   9.227 -0.2655  0.1653  0.0659
  173SAPI   H9X19654   5.119   3.225   9.277 -0.5522 -0.8629  2.0559
  173SAPI   H9Y19655   5.054   3.067   9.273 -0.6132 -0.7170 -1.6129
  173SAPI  C31019656   5.130   3.143   9.075  1.3374  0.3720 -0.5024
  173SAPI  H10X19657   5.090   3.051   9.027 -2.2772  1.5303 -0.0293
  173SAPI  H10Y19658   5.234   3.157   9.038  1.2891 -0.4727 -0.9811
  173SAPI  C31119659   5.044   3.269   9.030 -0.9279  0.5611 -0.6945
  173SAPI  H11X19660   5.067   3.353   9.098 -1.9289  0.0266  0.3459
  173SAPI  H11Y19661   4.941   3.237   9.056  0.3260 -3.3599  0.1538
  173SAPI  C31219662   5.060   3.321   8.886  0.1095  0.2153 -0.5240
  173SAPI  H12X19663   5.160   3.368   8.890 -1.6990  4.4480 -0.3381
  173SAPI  H12Y19664   4.979   3.394   8.868  0.7762  1.2821  0.6297
  173SAPI  C31319665   5.052   3.210   8.775  0.3083  0.1607 -0.1290
  173SAPI  H13X19666   4.963   3.146   8.793  1.3654 -0.6171  2.8544
  173SAPI  H13Y19667   5.149   3.157   8.785  0.8647  1.4203  1.4954
  173SAPI  C31419668   5.041   3.268   8.637 -0.1686 -0.7642  0.0907
  173SAPI  H14X19669   5.080   3.372   8.636 -3.7073  0.6866 -0.2872
  173SAPI  H14Y19670   4.934   3.274   8.608  0.5122 -0.8753 -2.7573
  173SAPI  C31519671   5.102   3.185   8.514  0.5927 -0.7575  0.1011
  173SAPI  H15X19672   5.205   3.161   8.548  1.4561  0.7682 -1.3204
  173SAPI  H15Y19673   5.107   3.259   8.431 -3.4165 -0.7592 -0.3706
  173SAPI  C31619674   5.027   3.067   8.461  0.7954  0.2654 -0.2444
  173SAPI  H16X19675   4.919   3.092   8.454  0.8738  1.1327  1.3145
  173SAPI  H16Y19676   5.021   3.000   8.549  0.4034 -0.8059 -1.0736
  173SAPI  C31719677   5.071   2.991   8.334  0.0892  0.6442  0.0621
  173SAPI  H17X19678   5.009   2.902   8.311 -0.5984  1.5391 -1.7253
  173SAPI  H17Y19679   5.177   2.960   8.353  0.5910  1.3894 -1.4079
  173SAPI  C31819680   5.069   3.077   8.206 -0.3205 -0.0889  0.4901
  173SAPI  H18X19681   5.136   3.165   8.214  0.8050 -1.0147  1.4976
  173SAPI  H18Y19682   4.967   3.119   8.188  0.9463  2.7595 -0.6546
  173SAPI  H18Z19683   5.096   3.014   8.118  0.6036  1.8759 -0.6919
  174SAPI   C1219684   1.539   4.544  10.796  0.0558  0.0861 -0.5335
  174SAPI    H219685   1.549   4.649  10.761  0.0064 -0.6386 -2.8717
  174SAPI    O219686   1.433   4.498  10.724 -0.3878 -0.0170  0.1882
  174SAPI   HO219687   1.422   4.557  10.649 -1.1553  1.8589  1.6836
  174SAPI   C1319688   1.670   4.468  10.767 -0.4799 -0.1031 -0.6646
  174SAPI    H319689   1.752   4.505  10.831  0.5619  1.0859 -2.6019
  174SAPI    O319690   1.707   4.467  10.628 -0.2162  0.3795  0.2791
  174SAPI   HO319691   1.630   4.471  10.572  0.6867  0.2150 -1.0268
  174SAPI   C1419692   1.652   4.324  10.815 -0.3693 -0.2408 -0.1449
  174SAPI    H419693   1.571   4.268  10.762 -0.7136 -1.5784  1.6918
  174SAPI    O419694   1.767   4.244  10.783  0.3001 -0.4952  0.1026
  174SAPI   HO419695   1.838   4.284  10.834 -1.6847  0.9374  1.9146
  174SAPI   C1519696   1.602   4.314  10.954  0.6766 -0.0002 -0.2764
  174SAPI    H519697   1.678   4.351  11.026 -0.8788  0.9695  0.9179
  174SAPI    O519698   1.569   4.175  10.982 -0.3181 -0.1458 -0.2600
  174SAPI   HO519699   1.640   4.137  11.035 -0.2110 -1.2718 -1.1763
  174SAPI   C1619700   1.482   4.402  10.988 -0.3449 -0.3345 -0.3592
  174SAPI    H619701   1.387   4.374  10.939 -2.0050  0.9227  1.9735
  174SAPI    O619702   1.443   4.396  11.126 -0.5964 -0.9712 -0.0751
  174SAPI   HO619703   1.402   4.311  11.139  1.7663 -2.1688  0.1419
  174SAPI   C1119704   1.507   4.548  10.948  0.6035  0.0775  0.1841
  174SAPI    H119705   1.592   4.570  11.016  0.5900  0.4255  0.0897
  174SAPI     P19706   1.413   4.791  10.995 -0.1049  0.2521  0.0580
  174SAPI   O1319707   1.557   4.826  10.997 -0.3551  0.1237 -0.3808
  174SAPI   O1419708   1.334   4.832  11.109  0.4170  0.2430 -0.0130
  174SAPI   O1219709   1.386   4.629  10.976 -0.6409 -0.2328  0.1317
  174SAPI   O1119710   1.350   4.860  10.865 -0.1591  0.2130 -0.3922
  174SAPI    C119711   1.219   4.833  10.814 -0.0923 -0.8604  0.1167
  174SAPI    HA19712   1.166   4.758  10.876  2.5813 -1.9734  1.1871
  174SAPI    HB19713   1.161   4.928  10.804  0.4684 -0.6598 -1.7414
  174SAPI    C219714   1.227   4.783  10.672  0.3092 -0.3584 -0.2381
  174SAPI    HS19715   1.255   4.678  10.693 -0.7064 -0.4103  1.0192
  174SAPI   O2119716   1.320   4.868  10.596  0.1584  0.4342 -0.6196
  174SAPI   C2119717   1.397   4.794  10.521 -0.5397  0.1198  0.3532
  174SAPI   O2219718   1.403   4.669  10.525 -0.8191 -0.0543  0.0097
  174SAPI   C2219719   1.489   4.887  10.430  0.0595 -0.3066  0.3561
  174SAPI   H2R19720   1.439   4.985  10.425  0.4293 -0.0283  1.6441
  174SAPI   H2S19721   1.580   4.897  10.493  0.0881 -0.0680  0.2784
  174SAPI    C319722   1.087   4.792  10.592  0.9504 -0.1375 -0.2181
  174SAPI    HX19723   1.059   4.897  10.570 -0.2821 -0.4834 -0.3555
  174SAPI    HY19724   1.017   4.745  10.664  2.6788  0.4071  1.9340
  174SAPI   O3119725   1.079   4.709  10.479 -0.3906 -0.4288 -0.0309
  174SAPI   C3119726   1.057   4.765  10.362 -0.8083 -0.7489  0.7775
  174SAPI   O3219727   1.064   4.884  10.341 -0.3463  0.1615 -0.2689
  174SAPI   C3219728   1.033   4.669  10.254  0.4084  0.5267  0.1378
  174SAPI   H2X19729   0.992   4.572  10.291 -0.9701  0.9661 -0.1676
  174SAPI   H2Y19730   1.120   4.654  10.187 -1.3597  0.2123 -2.2193
  174SAPI   C2319731   1.525   4.837  10.282 -0.5325 -0.9706 -0.1696
  174SAPI   H3R19732   1.566   4.734  10.295 -1.5561 -1.5741 -1.4769
  174SAPI   H3S19733   1.604   4.890  10.226  0.3256 -2.7428 -0.7076
  174SAPI   C2419734   1.405   4.842  10.192  0.0201 -0.1670  0.9598
  174SAPI   H4R19735   1.358   4.942  10.196  1.5436  0.5404  2.7977
  174SAPI   H4S19736   1.331   4.765  10.223 -1.7931  0.4284 -1.6618
  174SAPI   C2519737   1.443   4.797  10.049 -0.1143 -0.5517 -0.5852
  174SAPI   H5R19738   1.437   4.689  10.031  2.6339 -0.6241 -1.6450
  174SAPI   C2619739   1.484   4.867   9.943  0.7553 -0.9481 -0.5838
  174SAPI   H6R19740   1.527   4.815   9.856 -0.0861 -1.5007 -0.6730
  174SAPI   C2719741   1.511   5.018   9.955 -0.5494  0.1700  0.0741
  174SAPI   H7R19742   1.478   5.055  10.054  2.0054  1.1291  0.6325
  174SAPI   H7S19743   1.461   5.073   9.872  0.8043 -1.1170 -1.6993
  174SAPI   C2819744   1.664   5.043   9.941 -0.6333  0.2199 -0.1273
  174SAPI   H8R19745   1.718   5.041  10.037 -1.5197  1.4288  0.4307
  174SAPI   C2919746   1.741   5.073   9.835  0.4853  0.4028  0.4525
  174SAPI   H9R19747   1.847   5.096   9.854  1.3489 -1.3320 -1.8589
  174SAPI  C21019748   1.695   5.080   9.689 -0.1002 -0.0410  0.3000
  174SAPI  H10R19749   1.738   5.170   9.641 -0.9611 -0.1306 -0.6799
  174SAPI  H10S19750   1.586   5.103   9.689 -0.4640 -1.2284  3.1052
  174SAPI  C21119751   1.728   4.950   9.613  0.0106  0.3652  0.2748
  174SAPI  H11R19752   1.829   4.907   9.615  0.7068  1.9689  0.4240
  174SAPI  C21219753   1.645   4.887   9.536  0.2545 -0.0547  0.2980
  174SAPI  H12R19754   1.670   4.785   9.504  1.3702  0.3784 -0.2690
  174SAPI  C21319755   1.499   4.930   9.529  0.3409  0.4015  0.3435
  174SAPI  H13R19756   1.489   5.038   9.503 -1.4148  0.1559 -0.1536
  174SAPI  H13S19757   1.447   4.911   9.625 -0.1372 -0.1152 -0.0137
  174SAPI  C21419758   1.434   4.836   9.427 -1.3025 -0.6229  0.1501
  174SAPI  H14R19759   1.421   4.731   9.456  0.4878 -0.1629  2.9775
  174SAPI  C21519760   1.428   4.860   9.294  0.0964 -0.2066 -0.4598
  174SAPI  H15R19761   1.380   4.778   9.237  1.3267 -1.1813 -0.1383
  174SAPI  C21619762   1.459   4.982   9.207 -0.3560  0.4437 -0.5784
  174SAPI  H16R19763   1.514   5.052   9.274  1.6034 -0.8929 -0.7060
  174SAPI  H16S19764   1.372   5.041   9.170 -0.6816 -0.0113 -0.5463
  174SAPI  C21719765   1.569   4.940   9.109 -0.1846  0.0638  0.0375
  174SAPI  H17R19766   1.657   4.902   9.165 -0.8651 -4.1370 -1.3397
  174SAPI  H17S19767   1.600   5.034   9.058  1.7142 -0.5707 -0.0598
  174SAPI  C21819768   1.528   4.836   9.006  0.2947  0.6796  0.9904
  174SAPI  H18R19769   1.434   4.872   8.960 -0.5108 -2.1186  0.2574
  174SAPI  H18S19770   1.500   4.739   9.053  0.1126 -1.4900 -3.1895
  174SAPI  C21919771   1.635   4.832   8.901  0.2309 -0.3632  0.3607
  174SAPI  H19R19772   1.730   4.852   8.954  0.4932  1.4898 -0.7202
  174SAPI  H19S19773   1.627   4.911   8.823  0.4165  0.5186  1.2193
  174SAPI  C22019774   1.652   4.693   8.835  0.2490  0.7200  1.4233
  174SAPI  H20R19775   1.674   4.625   8.920 -1.6296 -0.0182  1.3572
  174SAPI  H20S19776   1.733   4.682   8.759 -1.0019  1.3689 -0.0461
  174SAPI  H20T19777   1.558   4.666   8.782  1.3357 -2.3519  0.7888
  174SAPI   C3319778   0.906   4.719  10.183 -0.4660 -0.2686  0.3452
  174SAPI   H3X19779   0.821   4.746  10.249  0.1050 -1.1235  1.4658
  174SAPI   H3Y19780   0.867   4.630  10.128  0.0121 -0.8041  0.8555
  174SAPI   C3419781   0.923   4.829  10.073  0.3089 -0.1511 -0.1308
  174SAPI   H4X19782   0.956   4.928  10.110  0.1641 -0.0177 -0.3541
  174SAPI   H4Y19783   0.817   4.843  10.043  0.5222  2.4233  0.0429
  174SAPI   C3519784   1.010   4.788   9.958 -0.3560  0.2238  0.7800
  174SAPI   H5X19785   0.974   4.689   9.922  2.9801  0.1012 -3.0392
  174SAPI   H5Y19786   1.114   4.789   9.997 -0.8447 -0.2917  2.1206
  174SAPI   C3619787   1.005   4.898   9.842 -0.3813 -0.1790  0.0382
  174SAPI   H6X19788   1.040   4.997   9.878  1.9544 -0.6725 -0.6840
  174SAPI   H6Y19789   0.910   4.904   9.785  0.5024  0.4474 -1.4067
  174SAPI   C3719790   1.118   4.880   9.735 -0.6980 -0.1190  0.1378
  174SAPI   H7X19791   1.121   4.777   9.694 -3.0503  0.4242 -1.5706
  174SAPI   H7Y19792   1.212   4.896   9.792 -0.2818 -0.9586 -0.2901
  174SAPI   C3819793   1.118   4.978   9.624 -0.5575 -0.6848  0.0215
  174SAPI   H8X19794   1.211   4.960   9.565 -0.9214 -0.4153 -0.6397
  174SAPI   H8Y19795   1.133   5.083   9.658 -0.5938  0.0894 -2.2085
  174SAPI   C3919796   1.017   4.959   9.505  0.1121  0.4032  0.2520
  174SAPI   H9X19797   0.915   4.985   9.539  0.9239  2.8944  1.0166
  174SAPI   H9Y19798   1.034   4.856   9.468  4.2969  1.0147 -0.0640
  174SAPI  C31019799   1.034   5.040   9.373 -0.2919 -0.0529  0.4260
  174SAPI  H10X19800   1.138   5.030   9.334 -0.3722 -1.7625  0.6041
  174SAPI  H10Y19801   1.012   5.148   9.392 -0.2509 -0.0056  0.2101
  174SAPI  C31119802   0.939   4.983   9.262  0.5636 -0.5505 -0.8149
  174SAPI  H11X19803   0.839   4.998   9.309  0.6147 -1.6264 -0.3381
  174SAPI  H11Y19804   0.946   4.872   9.254 -0.9079 -1.0549  2.7614
  174SAPI  C31219805   0.940   5.055   9.125  0.2269  0.0181 -0.4207
  174SAPI  H12X19806   0.944   5.166   9.130  1.8117  0.0311 -1.3916
  174SAPI  H12Y19807   0.855   5.027   9.060  0.5989 -0.4731 -0.6980
  174SAPI  C31319808   1.060   5.013   9.035 -0.2764  0.1460  0.2661
  174SAPI  H13X19809   1.072   4.902   9.032 -0.4254  0.1372 -0.0175
  174SAPI  H13Y19810   1.144   5.053   9.096  1.0020 -1.8464 -0.0886
  174SAPI  C31419811   1.058   5.065   8.894 -0.1874 -0.1801 -0.4312
  174SAPI  H14X19812   1.051   5.176   8.889 -2.2364 -0.2870 -0.6031
  174SAPI  H14Y19813   0.967   5.025   8.845 -0.3380 -1.4976  0.8708
  174SAPI  C31519814   1.187   5.030   8.819  0.0939  0.6081 -0.0738
  174SAPI  H15X19815   1.170   5.029   8.709  1.9696  1.7635 -0.4220
  174SAPI  H15Y19816   1.237   4.937   8.852  1.8619  1.9682  1.2997
  174SAPI  C31619817   1.293   5.135   8.830  0.3766 -0.8235  0.0947
  174SAPI  H16X19818   1.330   5.138   8.935 -1.1339  0.4003  0.6220
  174SAPI  H16Y19819   1.262   5.239   8.805 -0.3411 -1.0087  0.1813
  174SAPI  C31719820   1.410   5.096   8.746 -0.0109 -0.8649 -0.2636
  174SAPI  H17X19821   1.378   5.130   8.645 -1.5725  1.5150  0.9312
  174SAPI  H17Y19822   1.426   4.987   8.757  1.7273 -0.5946  0.2641
  174SAPI  C31819823   1.543   5.174   8.786 -0.5852  0.0868  0.3712
  174SAPI  H18X19824   1.575   5.164   8.892  0.8022  1.0615  0.0669
  174SAPI  H18Y19825   1.534   5.282   8.762  2.4485 -0.1216 -2.4387
  174SAPI  H18Z19826   1.627   5.144   8.720 -2.3007  0.1786 -2.0056
  175SAPI   C1219827   6.299   1.291   6.227 -0.1750  0.1272 -0.2130
  175SAPI    H219828   6.354   1.196   6.239 -0.6947  0.0557  2.2621
  175SAPI    O219829   6.297   1.355   6.355 -0.2888 -0.2650 -0.2591
  175SAPI   HO219830   6.381   1.348   6.401 -0.4796 -1.0277 -0.0073
  175SAPI   C1319831   6.369   1.370   6.123  0.7374  0.3133  0.2397
  175SAPI    H319832   6.346   1.317   6.028 -0.3539  0.5652  0.3508
  175SAPI    O319833   6.509   1.368   6.133  0.1750 -0.5852 -0.2890
  175SAPI   HO319834   6.532   1.437   6.196  0.0057  0.8408 -1.7199
  175SAPI   C1419835   6.312   1.509   6.106 -0.4058 -0.3273  0.4508
  175SAPI    H419836   6.328   1.564   6.201  0.8659  1.9130 -0.9665
  175SAPI    O419837   6.386   1.589   6.005  0.7269  0.5943  0.0945
  175SAPI   HO419838   6.422   1.670   6.043  0.2401  0.6619  0.4185
  175SAPI   C1519839   6.163   1.497   6.058  0.2695  0.0048 -0.3348
  175SAPI    H519840   6.170   1.461   5.953 -1.2489 -1.1100 -0.0721
  175SAPI    O519841   6.100   1.626   6.052  0.0368  0.4296  0.2265
  175SAPI   HO519842   6.097   1.666   5.965 -0.5031 -0.9534 -0.4245
  175SAPI   C1619843   6.082   1.401   6.145  0.1576 -0.0835 -0.2612
  175SAPI    H619844   6.067   1.445   6.246  1.8100  0.5777 -0.2789
  175SAPI    O619845   5.954   1.373   6.089 -0.2227 -0.3303  0.4531
  175SAPI   HO619846   5.918   1.313   6.155  2.4376 -1.4360  1.0481
  175SAPI   C1119847   6.153   1.270   6.173 -0.0410 -0.5975  0.1826
  175SAPI    H119848   6.154   1.217   6.076 -0.2700  0.7468 -0.5877
  175SAPI     P19849   6.105   1.046   6.310  0.0354  0.1799 -0.3068
  175SAPI   O1319850   6.180   0.999   6.193 -0.4072  0.1856 -0.0862
  175SAPI   O1419851   5.983   0.970   6.346 -0.3429 -0.7711  0.0781
  175SAPI   O1219852   6.068   1.200   6.265 -0.2716  0.5039 -0.1562
  175SAPI   O1119853   6.206   1.068   6.427 -0.3930  0.0967 -0.4652
  175SAPI    C119854   6.180   1.024   6.567 -0.1914  0.8257  0.5635
  175SAPI    HA19855   6.118   0.932   6.575  0.2618  0.5632  1.0432
  175SAPI    HB19856   6.284   1.002   6.600  0.0493  1.2574  0.1132
  175SAPI    C219857   6.131   1.137   6.652  0.8221 -0.1444 -0.3182
  175SAPI    HS19858   6.158   1.233   6.604  3.0221 -0.3022  0.4788
  175SAPI   O2119859   6.192   1.131   6.781  0.0436  0.1757 -0.4133
  175SAPI   C2119860   6.311   1.189   6.791 -0.5718  0.6333  0.1076
  175SAPI   O2219861   6.369   1.255   6.709 -0.6645 -0.4229  0.1949
  175SAPI   C2219862   6.385   1.150   6.920  0.6086 -0.3315  0.2609
  175SAPI   H2R19863   6.308   1.102   6.984  1.3566 -3.8129 -1.2321
  175SAPI   H2S19864   6.469   1.078   6.916  0.8990 -0.1113  1.7327
  175SAPI    C319865   5.985   1.139   6.681  0.2071 -0.1859  0.3563
  175SAPI    HX19866   5.931   1.149   6.584  0.1115 -0.2538  0.4017
  175SAPI    HY19867   5.963   1.223   6.750 -0.9766 -1.1717  1.2148
  175SAPI   O3119868   5.950   1.006   6.727  0.1318 -0.2155  0.1925
  175SAPI   C3119869   5.959   0.986   6.858 -0.4580  0.0285  0.2997
  175SAPI   O3219870   5.977   1.067   6.943 -0.4855 -0.0599  0.1400
  175SAPI   C3219871   5.947   0.833   6.889 -0.0610 -0.5045  0.4725
  175SAPI   H2X19872   6.056   0.816   6.902  0.8010  3.8397  0.3509
  175SAPI   H2Y19873   5.891   0.793   6.801  0.8088 -0.1923 -0.2423
  175SAPI   C2319874   6.431   1.273   6.997 -0.8088  0.2196  0.4526
  175SAPI   H3R19875   6.349   1.349   6.997 -2.2212 -1.2113  2.0146
  175SAPI   H3S19876   6.512   1.322   6.941 -0.7083  1.5306  1.6848
  175SAPI   C2419877   6.475   1.240   7.141  0.2405  0.1499  0.0034
  175SAPI   H4R19878   6.516   1.329   7.195  0.6591 -0.5418  0.8435
  175SAPI   H4S19879   6.566   1.178   7.129 -0.5316 -0.7727 -1.3021
  175SAPI   C2519880   6.366   1.172   7.224 -0.1966  0.1016 -0.0986
  175SAPI   H5R19881   6.277   1.232   7.247  0.3797  0.5357  1.1395
  175SAPI   C2619882   6.374   1.042   7.273  0.1908 -0.0978 -0.2048
  175SAPI   H6R19883   6.278   1.006   7.313 -0.4870  0.6228 -1.1292
  175SAPI   C2719884   6.483   0.943   7.267  0.6851 -0.2455  0.6039
  175SAPI   H7R19885   6.529   0.946   7.166 -0.5012 -0.4534  0.0455
  175SAPI   H7S19886   6.447   0.838   7.277 -0.0033 -0.3926 -2.4902
  175SAPI   C2819887   6.587   0.954   7.365  0.2025  0.0435 -0.3633
  175SAPI   H8R19888   6.683   0.988   7.323 -0.3679 -0.4345 -2.1330
  175SAPI   C2919889   6.577   0.932   7.499 -0.2087  0.1866 -0.3732
  175SAPI   H9R19890   6.672   0.935   7.555  0.4386  1.0665 -1.4520
  175SAPI  C21019891   6.457   0.897   7.575  0.0743 -0.9402  0.3118
  175SAPI  H10R19892   6.385   0.851   7.504  1.6334  0.4924 -2.3456
  175SAPI  H10S19893   6.412   0.994   7.607  1.4053  0.5247 -1.9871
  175SAPI  C21119894   6.470   0.812   7.699 -0.6048 -0.0629  0.6162
  175SAPI  H11R19895   6.541   0.732   7.672 -2.8574 -1.1635 -2.7555
  175SAPI  C21219896   6.396   0.827   7.809 -0.2668  0.1897 -0.0338
  175SAPI  H12R19897   6.413   0.754   7.890  0.7230 -0.9037 -1.1884
  175SAPI  C21319898   6.290   0.930   7.834  0.3014  0.7598  0.8934
  175SAPI  H13R19899   6.203   0.883   7.783 -0.9159  2.0281  1.7232
  175SAPI  H13S19900   6.329   1.021   7.782  0.1917  0.2526 -0.0999
  175SAPI  C21419901   6.258   0.955   7.980 -0.1417 -0.4951 -0.1316
  175SAPI  H14R19902   6.290   1.055   8.015  0.2489 -0.7234  0.1784
  175SAPI  C21519903   6.195   0.874   8.071  0.0440 -1.3414  0.0236
  175SAPI  H15R19904   6.183   0.922   8.169  0.3517  0.9501 -0.9874
  175SAPI  C21619905   6.162   0.726   8.050 -0.3198  0.0469 -0.1151
  175SAPI  H16R19906   6.191   0.691   7.948  2.2762  1.7222 -0.0570
  175SAPI  H16S19907   6.052   0.721   8.057 -0.2720  1.2272  2.4191
  175SAPI  C21719908   6.222   0.636   8.156  0.0403  0.3547  0.1826
  175SAPI  H17R19909   6.164   0.541   8.153  1.2472 -0.4675  1.6762
  175SAPI  H17S19910   6.206   0.679   8.257  1.6963  2.1257 -0.2507
  175SAPI  C21819911   6.371   0.597   8.131  0.0510  0.4775 -0.6851
  175SAPI  H18R19912   6.438   0.686   8.131  0.8605 -0.1013  0.7991
  175SAPI  H18S19913   6.368   0.561   8.026  2.4223 -1.2594 -0.2457
  175SAPI  C21919914   6.428   0.485   8.221  0.0272  0.8148  1.2677
  175SAPI  H19R19915   6.461   0.532   8.316  2.3474 -0.6365  1.2345
  175SAPI  H19S19916   6.525   0.457   8.175 -0.2960  0.0903  1.0112
  175SAPI  C22019917   6.346   0.363   8.229 -0.3046  0.2120  0.1865
  175SAPI  H20R19918   6.321   0.326   8.127 -0.0711 -1.2950  0.6422
  175SAPI  H20S19919   6.254   0.391   8.285  0.5454  2.2382  0.6564
  175SAPI  H20T19920   6.392   0.285   8.294 -0.4649  0.7696  0.9839
  175SAPI   C3319921   5.880   0.793   7.014  0.7067  0.9569 -0.5156
  175SAPI   H3X19922   5.839   0.690   7.018  0.8291  0.8302 -1.8830
  175SAPI   H3Y19923   5.791   0.858   7.027  0.0090 -0.1922  0.6893
  175SAPI   C3419924   5.970   0.808   7.136  0.4256  0.1816 -1.0483
  175SAPI   H4X19925   6.018   0.908   7.139 -0.9612  0.8688 -0.5569
  175SAPI   H4Y19926   6.050   0.733   7.121 -0.3851 -1.2718  1.3902
  175SAPI   C3519927   5.886   0.800   7.266  0.3918  0.2646  0.5242
  175SAPI   H5X19928   5.886   0.692   7.296 -0.6154  0.5977  1.8035
  175SAPI   H5Y19929   5.785   0.831   7.235  1.6502  2.8695 -1.3547
  175SAPI   C3619930   5.931   0.889   7.378  0.9760  0.7162 -0.4493
  175SAPI   H6X19931   5.911   0.998   7.365 -0.8446  0.2538 -1.9576
  175SAPI   H6Y19932   6.039   0.865   7.389  0.5478 -2.1043 -1.7670
  175SAPI   C3719933   5.862   0.856   7.515  0.1195  0.2395 -0.2293
  175SAPI   H7X19934   5.849   0.748   7.539 -0.3092 -0.0749 -1.7650
  175SAPI   H7Y19935   5.757   0.885   7.494 -0.5574 -1.7644  0.1809
  175SAPI   C3819936   5.908   0.930   7.641  0.4001  0.1414 -0.2544
  175SAPI   H8X19937   5.897   1.040   7.625  0.9530  0.3035  0.4184
  175SAPI   H8Y19938   6.016   0.904   7.644 -0.3891 -3.6283  0.7865
  175SAPI   C3919939   5.832   0.898   7.775  0.4066 -0.7185  0.6358
  175SAPI   H9X19940   5.730   0.935   7.752  0.7658  0.6507  1.1856
  175SAPI   H9Y19941   5.871   0.965   7.854 -1.2869  0.2958  0.6611
  175SAPI  C31019942   5.834   0.748   7.807 -0.4508 -0.0904 -0.2258
  175SAPI  H10X19943   5.939   0.709   7.808  0.0659  1.0099 -3.0819
  175SAPI  H10Y19944   5.773   0.704   7.726  0.5407  0.2238 -1.1671
  175SAPI  C31119945   5.777   0.723   7.950 -0.1607  0.8503  0.1554
  175SAPI  H11X19946   5.854   0.770   8.014  0.0441  2.3203 -1.0988
  175SAPI  H11Y19947   5.772   0.613   7.966 -0.1836  1.1470  2.4823
  175SAPI  C31219948   5.642   0.789   7.972  0.3007  0.1618 -0.6843
  175SAPI  H12X19949   5.573   0.737   7.902  0.6518  1.0317 -1.7070
  175SAPI  H12Y19950   5.644   0.897   7.947  1.2124  0.6104  1.1979
  175SAPI  C31319951   5.597   0.767   8.117 -0.2403 -0.4511  0.3952
  175SAPI  H13X19952   5.497   0.814   8.103  0.9128  2.0471  0.0702
  175SAPI  H13Y19953   5.656   0.826   8.191  1.5285 -0.0784 -1.2433
  175SAPI  C31419954   5.585   0.621   8.147 -0.2591  0.4046 -1.0846
  175SAPI  H14X19955   5.678   0.575   8.188 -2.7448 -0.9692  3.6866
  175SAPI  H14Y19956   5.554   0.561   8.059  2.4079 -3.4112  0.2998
  175SAPI  C31519957   5.489   0.587   8.262  0.2304  0.5187 -0.4759
  175SAPI  H15X19958   5.390   0.637   8.253 -0.4900 -0.7990 -0.1754
  175SAPI  H15Y19959   5.541   0.629   8.351 -0.8339  0.7589  0.0502
  175SAPI  C31619960   5.453   0.433   8.257 -0.3980 -0.4137 -0.9060
  175SAPI  H16X19961   5.546   0.373   8.251  0.3255  0.8030 -2.4559
  175SAPI  H16Y19962   5.403   0.410   8.160 -0.0898 -0.5616 -1.0339
  175SAPI  C31719963   5.365   0.392   8.372  0.0692  0.1658  0.2958
  175SAPI  H17X19964   5.404   0.425   8.471 -0.7595 -0.7376  0.9452
  175SAPI  H17Y19965   5.364   0.281   8.372 -1.1273  0.1170  2.6858
  175SAPI  C31819966   5.217   0.429   8.352 -0.2714 -0.1197  0.1291
  175SAPI  H18X19967   5.158   0.388   8.437  3.5044  0.3678  3.2258
  175SAPI  H18Y19968   5.185   0.401   8.249 -2.7591  0.5145  0.6661
  175SAPI  H18Z19969   5.213   0.539   8.371 -0.1105 -0.2633  1.0107
  176SAPI   C1219970   1.024   0.176   6.208  0.2680  0.8684  0.3678
  176SAPI    H219971   0.972   0.266   6.248  0.1779  0.3685  1.4236
  176SAPI    O219972   0.947   0.056   6.239 -0.3260  0.3326  0.2370
  176SAPI   HO219973   0.920   0.065   6.331 -1.8822  3.8301 -0.4205
  176SAPI   C1319974   1.033   0.195   6.052  0.8194 -0.7502 -0.3369
  176SAPI    H319975   1.096   0.282   6.025 -0.3732 -0.9300 -4.4467
  176SAPI    O319976   0.898   0.201   6.000  0.0492 -0.8669  0.2674
  176SAPI   HO319977   0.912   0.193   5.905  1.7373  2.6456  0.0747
  176SAPI   C1419978   1.119   0.077   5.996  0.4950  0.0251 -0.0660
  176SAPI    H419979   1.062  -0.016   6.017 -2.6345  1.8454  0.1005
  176SAPI    O419980   1.139   0.094   5.856 -0.0265 -0.0390 -0.4347
  176SAPI   HO419981   1.070   0.049   5.808 -0.0083 -1.4050  0.7508
  176SAPI   C1519982   1.249   0.068   6.071 -0.9375 -0.1759  0.5004
  176SAPI    H519983   1.300   0.166   6.057 -1.7627  0.1862 -0.0023
  176SAPI    O519984   1.334  -0.033   6.015 -0.3101  0.2510  0.1017
  176SAPI   HO519985   1.287  -0.113   6.037  1.7062 -1.0320  0.0474
  176SAPI   C1619986   1.241   0.053   6.221 -0.0282 -0.4238 -0.1491
  176SAPI    H619987   1.203  -0.043   6.260  0.5830 -0.0272  1.4817
  176SAPI    O619988   1.370   0.051   6.281  0.3826  0.0057  0.5017
  176SAPI   HO619989   1.406   0.139   6.292 -0.8655  0.7922 -1.3012
  176SAPI   C1119990   1.163   0.173   6.271  0.3706 -0.4454  0.2255
  176SAPI    H119991   1.230   0.256   6.238  1.4885 -1.3775  0.0821
  176SAPI     P19992   1.109   0.293   6.508 -0.5003  0.3302  0.0955
  176SAPI   O1319993   0.969   0.271   6.550  0.0900 -0.1830  0.1414
  176SAPI   O1419994   1.135   0.415   6.435  0.1947  0.0741  0.4756
  176SAPI   O1219995   1.156   0.169   6.413  0.6077  0.2875  0.2540
  176SAPI   O1119996   1.208   0.284   6.628 -0.3928 -0.4218 -0.4434
  176SAPI    C119997   1.251   0.159   6.692 -0.3166 -0.2572  0.1512
  176SAPI    HA19998   1.321   0.100   6.629  0.5240  1.6797 -0.8347
  176SAPI    HB19999   1.312   0.191   6.779 -0.1947  2.4292 -0.8188
  176SAPI    C220000   1.132   0.072   6.741 -0.5640 -0.7343 -0.0086
  176SAPI    HS20001   1.071   0.045   6.652 -2.3938  1.4671  0.4799
  176SAPI   O2120002   1.055   0.171   6.822 -0.2576  0.1149 -0.3987
  176SAPI   C2120003   0.927   0.143   6.832 -0.1422  0.1538  0.0545
  176SAPI   O2220004   0.875   0.044   6.780 -0.3981  0.5235  0.2642
  176SAPI   C2220005   0.872   0.254   6.922 -0.6433  0.0776  0.3431
  176SAPI   H2R20006   0.949   0.266   7.001  0.5222  0.8038 -0.8610
  176SAPI   H2S20007   0.880   0.348   6.861  0.9116 -0.6033 -0.5610
  176SAPI    C320008   1.168  -0.053   6.821 -0.0814 -0.4677 -0.5978
  176SAPI    HX20009   1.256  -0.102   6.774 -0.9950 -2.7090 -0.0973
  176SAPI    HY20010   1.081  -0.120   6.802  0.0698 -0.5803 -0.9031
  176SAPI   O3120011   1.194  -0.027   6.961 -0.4978  0.3467  0.2569
  176SAPI   C3120012   1.093  -0.060   7.046  0.1580 -0.4593  0.7813
  176SAPI   O3220013   0.991  -0.122   7.030  0.4691  0.0858  0.9683
  176SAPI   C3220014   1.143  -0.015   7.185 -1.2114 -0.4045  0.5858
  176SAPI   H2X20015   1.244   0.033   7.182 -0.4078 -2.0533 -1.9080
  176SAPI   H2Y20016   1.154  -0.111   7.238  1.4843  0.0268  0.9456
  176SAPI   C2320017   0.732   0.257   6.975  0.2381  0.4245  0.2233
  176SAPI   H3R20018   0.712   0.157   7.018  0.0264  0.7699  0.9485
  176SAPI   H3S20019   0.665   0.276   6.888  0.0733  2.3276  0.7257
  176SAPI   C2420020   0.718   0.374   7.071  0.1153 -0.7073  0.0521
  176SAPI   H4R20021   0.750   0.465   7.014  1.0880 -1.5322 -0.7625
  176SAPI   H4S20022   0.793   0.361   7.151  1.7466  0.1929 -1.2557
  176SAPI   C2520023   0.583   0.400   7.127  0.9430  0.3846  0.1437
  176SAPI   H5R20024   0.508   0.420   7.049 -0.0273  0.4480  1.0779
  176SAPI   C2620025   0.546   0.434   7.251  0.1818  0.3145 -0.2361
  176SAPI   H6R20026   0.439   0.449   7.269  0.0307  0.0140 -0.8439
  176SAPI   C2720027   0.634   0.434   7.380  0.1176  0.2162 -0.3939
  176SAPI   H7R20028   0.654   0.537   7.417 -3.8008  0.5520  1.2479
  176SAPI   H7S20029   0.731   0.381   7.370  1.9854  3.1670  0.8197
  176SAPI   C2820030   0.550   0.373   7.481 -0.2658  1.0629  0.1917
  176SAPI   H8R20031   0.443   0.356   7.463  0.0341 -0.8907  0.0174
  176SAPI   C2920032   0.597   0.331   7.601 -0.2432  0.0738 -0.1700
  176SAPI   H9R20033   0.525   0.293   7.675  0.1900 -1.9288 -0.7429
  176SAPI  C21020034   0.741   0.339   7.644  0.2079  0.8994  0.0913
  176SAPI  H10R20035   0.776   0.443   7.660  3.5816 -0.1647  0.2249
  176SAPI  H10S20036   0.804   0.293   7.566  0.3631 -3.5260  2.4891
  176SAPI  C21120037   0.764   0.260   7.772 -0.6183 -0.2396  0.9833
  176SAPI  H11R20038   0.684   0.193   7.804 -0.3311 -1.2449 -0.3356
  176SAPI  C21220039   0.877   0.268   7.840 -0.0880  0.2020 -0.0869
  176SAPI  H12R20040   0.885   0.214   7.935 -2.6016  2.6394  1.6642
  176SAPI  C21320041   0.992   0.359   7.807  0.1188 -0.0929 -0.4104
  176SAPI  H13R20042   0.989   0.382   7.699 -0.0496 -0.0129 -0.3895
  176SAPI  H13S20043   1.088   0.311   7.833 -0.3710 -2.0534 -2.0432
  176SAPI  C21420044   0.982   0.486   7.887 -0.3350 -0.4786  0.1006
  176SAPI  H14R20045   0.951   0.571   7.825 -1.5834  0.3833  1.8485
  176SAPI  C21520046   0.976   0.494   8.021 -1.0790 -0.0864 -0.6803
  176SAPI  H15R20047   0.969   0.592   8.071  1.7122 -0.4903  0.7100
  176SAPI  C21620048   0.993   0.388   8.126 -0.2010  1.0082 -0.2469
  176SAPI  H16R20049   1.047   0.302   8.080 -0.1848  0.5389  0.6126
  176SAPI  H16S20050   0.897   0.360   8.174 -0.4019  0.2962 -1.0433
  176SAPI  C21720051   1.107   0.427   8.230  0.2507 -0.7516 -0.2325
  176SAPI  H17R20052   1.077   0.522   8.280  0.7896 -0.1825 -0.9740
  176SAPI  H17S20053   1.197   0.449   8.169  0.8465 -0.6173  0.6700
  176SAPI  C21820054   1.136   0.312   8.329 -0.5074 -0.3240  0.0009
  176SAPI  H18R20055   1.158   0.218   8.273  3.1202  0.9303 -0.9392
  176SAPI  H18S20056   1.052   0.314   8.401  0.5450  0.1735  1.2393
  176SAPI  C21920057   1.253   0.346   8.421 -0.7106 -0.8185  0.3683
  176SAPI  H19R20058   1.246   0.450   8.460 -0.9128 -0.9787  0.7594
  176SAPI  H19S20059   1.346   0.336   8.360 -0.6042  1.3235  0.0802
  176SAPI  C22020060   1.266   0.262   8.540 -0.0184  0.1715  0.0370
  176SAPI  H20R20061   1.172   0.254   8.599 -0.5020 -2.4408 -0.9667
  176SAPI  H20S20062   1.345   0.294   8.611 -0.5026  1.0948  0.1800
  176SAPI  H20T20063   1.291   0.159   8.508 -1.1229  0.0551 -0.5195
  176SAPI   C3320064   1.061   0.085   7.262  0.1403  0.3436  0.5743
  176SAPI   H3X20065   0.966   0.031   7.282  0.2556  0.2062  0.7608
  176SAPI   H3Y20066   1.045   0.185   7.217  1.6960  0.5780  0.4976
  176SAPI   C3420067   1.106   0.107   7.401 -0.1568  0.3656 -0.5122
  176SAPI   H4X20068   1.027   0.171   7.445 -1.2193 -0.9515 -0.4382
  176SAPI   H4Y20069   1.200   0.166   7.409 -0.6495  0.9318  3.1903
  176SAPI   C3520070   1.128  -0.018   7.489  0.2098 -0.3743 -0.3186
  176SAPI   H5X20071   1.215  -0.074   7.448  0.2919  0.8758 -1.9391
  176SAPI   H5Y20072   1.042  -0.087   7.472 -0.0831  0.2106 -1.2565
  176SAPI   C3620073   1.152   0.023   7.636 -0.8410 -0.0011  0.0480
  176SAPI   H6X20074   1.061   0.072   7.676 -1.4118  1.1196 -2.4395
  176SAPI   H6Y20075   1.231   0.102   7.636 -1.1512  0.3951  2.8866
  176SAPI   C3720076   1.190  -0.101   7.724  0.3847 -0.1255 -0.0635
  176SAPI   H7X20077   1.280  -0.150   7.683 -0.4842 -1.0275 -0.9363
  176SAPI   H7Y20078   1.108  -0.175   7.714 -0.1500  0.5230 -0.5658
  176SAPI   C3820079   1.218  -0.067   7.876  0.3837  0.0965 -0.1038
  176SAPI   H8X20080   1.263   0.035   7.875 -0.3351  0.4716 -2.8181
  176SAPI   H8Y20081   1.276  -0.149   7.923  0.0247 -0.2499 -0.2606
  176SAPI   C3920082   1.081  -0.062   7.953 -0.4245  0.0843 -0.7893
  176SAPI   H9X20083   1.016  -0.151   7.939 -2.7345  1.6689 -0.6084
  176SAPI   H9Y20084   1.025   0.025   7.915 -0.1235  0.4013 -0.5164
  176SAPI  C31020085   1.105  -0.049   8.107 -0.4356  0.6994  0.3180
  176SAPI  H10X20086   1.001  -0.037   8.147 -0.7599 -1.1249  0.0965
  176SAPI  H10Y20087   1.178   0.035   8.119  0.4086 -0.0390  0.4123
  176SAPI  C31120088   1.165  -0.178   8.161  0.4712  0.1017 -0.4702
  176SAPI  H11X20089   1.276  -0.168   8.155  0.4185  0.2473 -1.3619
  176SAPI  H11Y20090   1.141  -0.267   8.098  2.4063 -1.1255  0.4102
  176SAPI  C31220091   1.126  -0.208   8.308  0.4648 -0.6527 -0.2419
  176SAPI  H12X20092   1.187  -0.296   8.338  1.5799  0.6589  1.5427
  176SAPI  H12Y20093   1.026  -0.253   8.323  1.2632 -2.5497 -0.3935
  176SAPI  C31320094   1.167  -0.094   8.393  0.4719 -0.3358 -0.8234
  176SAPI  H13X20095   1.085  -0.019   8.399 -1.5573 -2.4939 -0.1894
  176SAPI  H13Y20096   1.260  -0.045   8.356  1.6244 -2.0877 -0.3454
  176SAPI  C31420097   1.207  -0.129   8.537 -0.0262  0.3277  0.3097
  176SAPI  H14X20098   1.274  -0.045   8.570 -0.3240  0.5189  0.4335
  176SAPI  H14Y20099   1.269  -0.219   8.553 -0.2640  0.2183  0.6241
  176SAPI  C31520100   1.086  -0.142   8.633 -0.2389 -0.6854  0.0153
  176SAPI  H15X20101   1.000  -0.197   8.589  1.1647 -0.7718 -2.8673
  176SAPI  H15Y20102   1.064  -0.039   8.669  1.8871  0.0144 -0.5472
  176SAPI  C31620103   1.135  -0.224   8.750 -0.2541 -0.5558 -1.0380
  176SAPI  H16X20104   1.239  -0.193   8.774 -1.2808  1.5948  1.1030
  176SAPI  H16Y20105   1.139  -0.334   8.735 -0.8583 -0.6497 -0.5549
  176SAPI  C31720106   1.061  -0.183   8.876  0.3584  0.1099 -0.0916
  176SAPI  H17X20107   0.960  -0.229   8.862  0.3566 -0.1598  0.7545
  176SAPI  H17Y20108   1.051  -0.074   8.863  0.9220 -0.0003 -1.6649
  176SAPI  C31820109   1.119  -0.216   9.018 -0.2557 -0.0476  0.3696
  176SAPI  H18X20110   1.063  -0.190   9.111  0.9546  1.0577  0.8179
  176SAPI  H18Y20111   1.217  -0.166   9.032 -0.7674  1.0884  0.0161
  176SAPI  H18Z20112   1.138  -0.325   9.013 -1.4897 -0.2438 -0.9006
  177SLPC     N20113   3.381   4.903  11.253 -0.2182  0.8310 -0.1392
  177SLPC   C1320114   3.285   4.793  11.221  0.6397  0.1685  0.6210
  177SLPC  H13A20115   3.332   4.717  11.161 -0.3997 -0.4818  0.6059
  177SLPC  H13B20116   3.251   4.752  11.315  1.6508 -0.5434  0.6998
  177SLPC  H13C20117   3.197   4.828  11.171  1.2436  1.5354  0.4815
  177SLPC   C1420118   3.512   4.836  11.308 -0.3629 -0.4667  0.8724
  177SLPC  H14A20119   3.590   4.907  11.332  0.3830  0.0811 -2.6865
  177SLPC  H14B20120   3.481   4.781  11.396 -2.4302  1.0841  1.1992
  177SLPC  H14C20121   3.553   4.771  11.232  0.3807  1.5055 -0.5064
  177SLPC   C1520122   3.328   4.999  11.356  0.0765  0.1872 -0.5022
  177SLPC  H15A20123   3.226   5.028  11.335  0.5829  1.2620 -1.6363
  177SLPC  H15B20124   3.331   4.953  11.453 -0.2623 -0.5997 -0.8538
  177SLPC  H15C20125   3.388   5.088  11.367  1.7034 -0.7960 -0.9680
  177SLPC   C1220126   3.407   4.994  11.129  0.6179 -0.1178 -0.4004
  177SLPC  H12A20127   3.463   4.941  11.054  0.3329 -3.7440  1.6912
  177SLPC  H12B20128   3.466   5.076  11.166  1.1836 -0.7136  0.0476
  177SLPC   C1120129   3.284   5.049  11.059 -0.5841  0.4221 -0.6521
  177SLPC  H11A20130   3.325   5.125  10.989  0.0853 -1.0719 -1.9496
  177SLPC  H11B20131   3.211   5.095  11.129 -2.4154 -0.6507 -1.7574
  177SLPC     P20132   3.273   4.868  10.859  0.0123  0.3841 -0.5441
  177SLPC   O1320133   3.367   4.763  10.904  0.5206 -0.5392  0.2353
  177SLPC   O1420134   3.151   4.834  10.775 -0.0429  0.4650 -0.0651
  177SLPC   O1220135   3.222   4.940  10.988 -0.1169  0.3044  0.0130
  177SLPC   O1120136   3.361   4.984  10.795  0.0348  0.4793  0.6968
  177SLPC    C120137   3.285   5.071  10.707 -0.4645  0.0019 -0.4144
  177SLPC    HA20138   3.213   5.026  10.635 -1.4834  1.1560 -0.1519
  177SLPC    HB20139   3.228   5.134  10.779 -0.6012  0.8425 -1.2362
  177SLPC    C220140   3.371   5.173  10.635  0.3729  0.2860  0.0489
  177SLPC    HS20141   3.304   5.249  10.588 -1.2090 -0.1516  1.4868
  177SLPC   O2120142   3.449   5.111  10.536  0.2346 -0.0815 -0.0902
  177SLPC   C2120143   3.382   5.076  10.426  0.6076 -0.0145  0.1731
  177SLPC   O2220144   3.261   5.092  10.401 -0.2236  0.1674 -0.8678
  177SLPC   C2220145   3.492   5.016  10.324 -0.5017  0.6208 -0.2357
  177SLPC   H2R20146   3.568   5.096  10.309  1.8101 -0.9252  2.2951
  177SLPC   H2S20147   3.554   4.940  10.377  0.0689  0.7321 -0.7302
  177SLPC    C320148   3.465   5.254  10.731  0.4177 -0.2090 -0.5866
  177SLPC    HX20149   3.539   5.189  10.783  2.3236  2.5130  0.3461
  177SLPC    HY20150   3.408   5.300  10.815 -0.9484 -3.7253  0.6325
  177SLPC   O3120151   3.517   5.357  10.654  0.1287  0.6295  0.1622
  177SLPC   C3120152   3.639   5.342  10.595  0.0528 -0.0208 -0.3434
  177SLPC   O3220153   3.710   5.242  10.610 -0.0013  0.1753 -0.2668
  177SLPC   C3220154   3.668   5.464  10.504 -0.0252 -0.3476  0.2323
  177SLPC   H2X20155   3.659   5.555  10.567  0.0003 -0.5277  0.4998
  177SLPC   H2Y20156   3.587   5.467  10.428 -1.8140  0.6367  2.0922
  177SLPC   C2320157   3.425   4.968  10.196 -0.0870 -0.6692  0.4443
  177SLPC   H3R20158   3.384   5.054  10.139  1.4320  0.7173  1.3636
  177SLPC   H3S20159   3.335   4.905  10.214 -1.0128  0.5715  0.2771
  177SLPC   C2420160   3.522   4.884  10.116  0.1071 -0.3696  0.2136
  177SLPC   H4R20161   3.535   4.797  10.184  0.6600 -0.1217  0.4355
  177SLPC   H4S20162   3.619   4.935  10.097 -0.8714  1.3162 -0.4306
  177SLPC   C2520163   3.464   4.846   9.984 -0.0600  0.4856  0.1255
  177SLPC   H5R20164   3.354   4.833   9.988 -0.1638  0.0075 -2.6974
  177SLPC   H5S20165   3.504   4.747   9.955  1.4121 -0.1969  3.9277
  177SLPC   C2620166   3.491   4.942   9.867 -0.3860  0.2968  0.1852
  177SLPC   H6R20167   3.599   4.936   9.841 -0.2023  0.9424  0.7735
  177SLPC   H6S20168   3.457   5.042   9.900  1.0357  1.3248 -1.2450
  177SLPC   C2720169   3.416   4.915   9.735 -0.5501  0.9505 -0.0805
  177SLPC   H7R20170   3.481   4.966   9.661  0.4850  1.4648  1.1548
  177SLPC   H7S20171   3.313   4.957   9.740 -0.9010 -0.0115  1.3915
  177SLPC   C2820172   3.391   4.765   9.688  0.2268 -0.4646 -0.4328
  177SLPC   H8R20173   3.335   4.718   9.772 -0.7441 -1.3853 -1.5653
  177SLPC   H8S20174   3.491   4.715   9.685  0.8990  0.7404  0.6430
  177SLPC   C2920175   3.310   4.755   9.563 -0.0280 -0.2800 -0.9264
  177SLPC   H9R20176   3.202   4.740   9.574 -0.0793  0.2839 -0.5880
  177SLPC  C21020177   3.368   4.759   9.443 -0.2701 -0.2152  0.2124
  177SLPC  H10R20178   3.290   4.740   9.368  0.3079  0.4072 -0.5708
  177SLPC  C21120179   3.517   4.769   9.414  0.1531 -0.6610  0.1979
  177SLPC  H11R20180   3.574   4.799   9.505 -1.3691  1.9899  0.3866
  177SLPC  H11S20181   3.554   4.667   9.393  1.8875 -0.4814  2.0703
  177SLPC  C21220182   3.546   4.853   9.294  0.2344 -0.6016  0.2027
  177SLPC  H12R20183   3.557   4.960   9.317  0.6244 -0.7220  0.5775
  177SLPC  C21320184   3.548   4.811   9.163 -0.4786  0.1282 -0.2295
  177SLPC  H13R20185   3.573   4.887   9.088 -1.5264 -0.3974 -1.1383
  177SLPC  C21420186   3.534   4.672   9.109 -0.0196 -0.8351 -0.4568
  177SLPC  H14R20187   3.461   4.621   9.175 -0.0470 -0.4253 -0.1701
  177SLPC  H14S20188   3.627   4.613   9.126  0.2138 -0.0911  1.0361
  177SLPC  C21520189   3.489   4.674   8.962 -0.0379 -0.0670  0.1727
  177SLPC  H15R20190   3.564   4.733   8.905  1.0647  0.0286  1.6684
  177SLPC  H15S20191   3.388   4.718   8.952  0.3771  0.5432 -1.8168
  177SLPC  C21620192   3.476   4.527   8.908 -0.4487 -1.0422  0.1596
  177SLPC  H16R20193   3.404   4.472   8.971 -0.8135  0.3326  0.9957
  177SLPC  H16S20194   3.574   4.475   8.922 -0.5127 -0.7240  2.1068
  177SLPC  C21720195   3.437   4.521   8.760  0.3582  0.3424 -0.0544
  177SLPC  H17R20196   3.526   4.542   8.696  1.1928 -3.3159 -0.3088
  177SLPC  H17S20197   3.345   4.582   8.749 -0.2311 -0.7283 -1.3747
  177SLPC  C21820198   3.404   4.379   8.708 -0.1129 -0.1243 -0.2821
  177SLPC  H18R20199   3.311   4.345   8.758  0.0535  1.7541  1.4356
  177SLPC  H18S20200   3.484   4.313   8.747  0.2460  0.4830  0.0211
  177SLPC  H18T20201   3.388   4.382   8.598 -0.1213 -0.6900 -0.3009
  177SLPC   C3320202   3.807   5.455  10.441 -0.6752 -0.5152  0.8198
  177SLPC   H3X20203   3.880   5.448  10.525 -0.0679 -0.9782  0.2706
  177SLPC   H3Y20204   3.841   5.549  10.392  0.9526 -1.8908 -0.8759
  177SLPC   C3420205   3.825   5.350  10.330  0.1520  0.0773 -0.2577
  177SLPC   H4X20206   3.798   5.250  10.369 -0.8629  0.0494 -1.0146
  177SLPC   H4Y20207   3.934   5.348  10.309  0.0611 -0.6645 -0.6698
  177SLPC   C3520208   3.740   5.372  10.205 -0.2422 -0.3732 -0.1345
  177SLPC   H5X20209   3.759   5.473  10.163 -1.1081 -0.8081 -1.6540
  177SLPC   H5Y20210   3.633   5.384  10.233 -0.2379  0.8592 -0.6024
  177SLPC   C3620211   3.768   5.275  10.087 -0.7037 -0.0234 -0.0395
  177SLPC   H6X20212   3.743   5.170  10.113  0.5719 -0.1163  0.8864
  177SLPC   H6Y20213   3.878   5.266  10.085 -0.6428  0.6869 -0.2608
  177SLPC   C3720214   3.705   5.326   9.963 -0.7656  0.5190  0.5572
  177SLPC   H7X20215   3.750   5.426   9.946  0.9483 -0.5795 -1.9361
  177SLPC   H7Y20216   3.594   5.328   9.970 -0.8217  3.4329  0.1879
  177SLPC   C3820217   3.750   5.244   9.837 -0.3764  0.2441  0.2269
  177SLPC   H8X20218   3.775   5.141   9.871  1.8970  1.4472  2.4959
  177SLPC   H8Y20219   3.841   5.288   9.792 -0.5156  2.4335  1.9017
  177SLPC   C3920220   3.636   5.253   9.735  0.0356 -0.0624  0.4298
  177SLPC   H9X20221   3.599   5.358   9.732 -0.4574 -0.2419 -2.2242
  177SLPC   H9Y20222   3.556   5.180   9.758  0.0681 -0.3857 -0.4475
  177SLPC  C31020223   3.689   5.222   9.596  0.6283 -0.3262  0.1346
  177SLPC  H10X20224   3.673   5.113   9.582  0.3230 -0.2768  0.0751
  177SLPC  H10Y20225   3.798   5.241   9.598  0.2025  2.6103  2.4086
  177SLPC  C31120226   3.621   5.295   9.483  0.2310  0.1899  0.6941
  177SLPC  H11X20227   3.616   5.406   9.493 -2.4688  0.3235 -0.9438
  177SLPC  H11Y20228   3.512   5.275   9.498  0.3089 -0.5741  0.2964
  177SLPC  C31220229   3.668   5.248   9.342  0.1410  0.5021  0.0230
  177SLPC  H12X20230   3.676   5.137   9.339  0.4839  0.5226 -3.4039
  177SLPC  H12Y20231   3.771   5.281   9.317  1.3904 -2.0245  1.4683
  177SLPC  C31320232   3.564   5.289   9.242  0.8105 -0.4765  0.6774
  177SLPC  H13X20233   3.543   5.393   9.273 -1.0040 -1.1507  1.8644
  177SLPC  H13Y20234   3.475   5.223   9.249 -0.3156  0.8522 -0.4839
  177SLPC  C31420235   3.618   5.282   9.098  0.3686 -0.0360  0.5032
  177SLPC  H14X20236   3.671   5.377   9.072 -1.0170  0.3471 -1.1018
  177SLPC  H14Y20237   3.538   5.279   9.021  0.2793 -0.2861  0.6046
  177SLPC  C31520238   3.712   5.170   9.072 -0.8779 -0.3282 -0.0936
  177SLPC  H15X20239   3.668   5.068   9.082 -0.1724 -0.6353 -0.0806
  177SLPC  H15Y20240   3.806   5.165   9.131 -0.0966 -2.3771 -1.4116
  177SLPC  C31620241   3.758   5.167   8.926 -0.1637 -0.2111  0.2440
  177SLPC  H16X20242   3.813   5.257   8.889 -0.3288 -0.2874 -0.1882
  177SLPC  H16Y20243   3.676   5.143   8.856  1.7037  0.8062 -2.4546
  177SLPC  C31720244   3.855   5.048   8.914  0.3035  0.0980  0.5670
  177SLPC  H17X20245   3.796   4.959   8.945  0.2419  1.0619  3.5848
  177SLPC  H17Y20246   3.941   5.056   8.983  1.4298  0.2075 -0.8153
  177SLPC  C31820247   3.915   5.031   8.777  0.6244  0.5941 -0.4799
  177SLPC  H18X20248   3.845   5.001   8.697  2.4993  0.0501 -1.9927
  177SLPC  H18Y20249   3.997   4.957   8.787 -0.7417 -0.7494  1.4301
  177SLPC  H18Z20250   3.959   5.128   8.745 -2.9366  2.1307 -1.2007
  178SLPC     N20251   4.009   0.381  11.168  0.3229 -0.2252 -0.4961
  178SLPC   C1320252   3.879   0.307  11.152  0.3008 -0.1439  0.1887
  178SLPC  H13A20253   3.831   0.328  11.058 -1.9359 -1.0977  1.0486
  178SLPC  H13B20254   3.902   0.202  11.151 -2.9775 -1.1163 -4.0210
  178SLPC  H13C20255   3.808   0.328  11.231 -0.1409 -2.0776  0.3502
  178SLPC   C1420256   4.063   0.351  11.304  0.3541  0.0083 -0.3120
  178SLPC  H14A20257   4.163   0.388  11.322  1.0563 -0.8630 -2.1196
  178SLPC  H14B20258   4.004   0.385  11.387 -1.6653 -1.1519 -1.1778
  178SLPC  H14C20259   4.059   0.244  11.320  0.8952 -0.1582 -1.1751
  178SLPC   C1520260   3.983   0.529  11.169 -0.8213 -0.1843 -0.6842
  178SLPC  H15A20261   3.962   0.551  11.065  2.8156  0.6562 -1.3999
  178SLPC  H15B20262   3.895   0.543  11.230 -1.4590 -0.7072 -1.4522
  178SLPC  H15C20263   4.074   0.581  11.194 -1.7361  0.7192  0.9301
  178SLPC   C1220264   4.113   0.340  11.062  0.9929  0.4450 -0.0332
  178SLPC  H12A20265   4.076   0.365  10.964  0.3820 -2.7146 -0.7241
  178SLPC  H12B20266   4.131   0.234  11.060 -0.1797  0.2471 -1.5358
  178SLPC   C1120267   4.252   0.407  11.079  0.9322 -0.3570  0.3001
  178SLPC  H11A20268   4.329   0.362  11.012  1.2962  1.3982 -0.5159
  178SLPC  H11B20269   4.292   0.382  11.180 -1.1420 -1.9027  0.8044
  178SLPC     P20270   4.236   0.598  10.895 -0.6757 -0.0500 -0.5023
  178SLPC   O1320271   4.105   0.547  10.852 -0.1873  0.0604  0.5552
  178SLPC   O1420272   4.256   0.745  10.899 -0.3495 -0.7280 -0.3436
  178SLPC   O1220273   4.243   0.550  11.048 -0.4139  0.6600  0.6888
  178SLPC   O1120274   4.350   0.517  10.825  0.4530 -0.0540 -0.4475
  178SLPC    C120275   4.488   0.553  10.826  0.4171  0.2961  0.3243
  178SLPC    HA20276   4.493   0.662  10.801  0.4526 -0.2468 -2.2914
  178SLPC    HB20277   4.526   0.554  10.930 -3.0498  2.5666  1.7552
  178SLPC    C220278   4.561   0.475  10.711  0.4985  0.5889  0.0518
  178SLPC    HS20279   4.657   0.522  10.679 -0.2401  1.7004 -0.5815
  178SLPC   O2120280   4.483   0.476  10.587  0.1240  0.2174 -0.0337
  178SLPC   C2120281   4.475   0.591  10.522  0.5769 -1.1095  0.2051
  178SLPC   O2220282   4.528   0.699  10.545 -0.6086  0.0114 -0.4125
  178SLPC   C2220283   4.382   0.582  10.399 -0.3013 -0.5456  0.3181
  178SLPC   H2R20284   4.435   0.508  10.335 -2.6698 -1.4399 -0.7491
  178SLPC   H2S20285   4.281   0.547  10.429 -1.7744  1.0598 -2.3448
  178SLPC    C320286   4.590   0.331  10.767  0.8749 -0.9694 -0.5360
  178SLPC    HX20287   4.493   0.295  10.807 -0.0004  0.6805 -1.0791
  178SLPC    HY20288   4.659   0.349  10.851 -0.6540  0.0402  0.5490
  178SLPC   O3120289   4.652   0.238  10.674 -0.2572 -0.3124 -0.2098
  178SLPC   C3120290   4.569   0.156  10.608 -0.0313  0.4464  0.3804
  178SLPC   O3220291   4.449   0.141  10.630 -0.2622  0.1664  0.5004
  178SLPC   C3220292   4.639   0.066  10.512  0.1764  0.0834  0.2716
  178SLPC   H2X20293   4.580  -0.028  10.509  0.3604 -0.0251 -1.9145
  178SLPC   H2Y20294   4.743   0.047  10.547  1.1103 -0.7101 -2.6086
  178SLPC   C2320295   4.389   0.716  10.320 -0.8701  0.3586  1.3709
  178SLPC   H3R20296   4.493   0.752  10.309  0.3443 -3.1980 -0.1020
  178SLPC   H3S20297   4.331   0.789  10.382 -0.1161  1.9994  0.2235
  178SLPC   C2420298   4.332   0.696  10.176 -0.0094  0.0662 -0.1553
  178SLPC   H4R20299   4.239   0.635  10.173  0.2784 -0.4667  1.2377
  178SLPC   H4S20300   4.399   0.622  10.129 -2.3931 -0.9641 -2.1506
  178SLPC   C2520301   4.318   0.829  10.108  0.6457 -0.6185  0.2441
  178SLPC   H5R20302   4.413   0.887  10.114 -1.0636  2.3837 -0.0087
  178SLPC   H5S20303   4.247   0.893  10.164  1.7156  0.4537  0.3955
  178SLPC   C2620304   4.270   0.834   9.957 -0.3729 -0.0786  0.8020
  178SLPC   H6R20305   4.177   0.775   9.945  0.3714 -0.9408 -1.1411
  178SLPC   H6S20306   4.346   0.776   9.900 -0.7417  0.5539 -0.3400
  178SLPC   C2720307   4.240   0.968   9.900  0.2560 -0.3884  0.3242
  178SLPC   H7R20308   4.332   1.029   9.910 -0.4214  1.4271 -3.0303
  178SLPC   H7S20309   4.159   1.018   9.956 -0.6691  0.4215 -1.6586
  178SLPC   C2820310   4.216   0.960   9.751 -0.3253 -0.4208  0.4868
  178SLPC   H8R20311   4.143   0.879   9.733 -0.4605 -0.5635  1.6427
  178SLPC   H8S20312   4.305   0.912   9.705 -1.3688 -3.4014  1.3978
  178SLPC   C2920313   4.173   1.079   9.666 -0.4451 -0.5444  0.1184
  178SLPC   H9R20314   4.149   1.163   9.732  1.2864  0.0912  0.0047
  178SLPC  C21020315   4.177   1.096   9.531  0.2517 -0.2964 -0.1319
  178SLPC  H10R20316   4.149   1.192   9.485 -0.2652 -0.4379 -0.1205
  178SLPC  C21120317   4.238   1.000   9.430 -0.3451  0.8792  1.0634
  178SLPC  H11R20318   4.246   0.894   9.463 -1.3089  0.4854  0.0943
  178SLPC  H11S20319   4.347   1.021   9.420 -0.5279  2.0040  1.2682
  178SLPC  C21220320   4.160   0.995   9.301  0.1357 -0.4618 -0.3200
  178SLPC  H12R20321   4.079   0.921   9.303  0.9490 -1.3486  1.6032
  178SLPC  C21320322   4.163   1.089   9.208  0.5196 -0.9344 -0.9628
  178SLPC  H13R20323   4.096   1.084   9.121  0.5196  2.0322 -1.2205
  178SLPC  C21420324   4.250   1.210   9.193 -0.1925 -0.9908  0.1542
  178SLPC  H14R20325   4.314   1.221   9.284 -1.3269  1.0006  0.7700
  178SLPC  H14S20326   4.197   1.306   9.178 -0.3817 -1.2233 -0.7008
  178SLPC  C21520327   4.345   1.191   9.075 -0.4025  0.1222 -0.5585
  178SLPC  H15R20328   4.419   1.112   9.099 -0.8621 -0.2244 -0.2618
  178SLPC  H15S20329   4.404   1.284   9.059  0.2884 -0.3515 -0.8207
  178SLPC  C21620330   4.276   1.155   8.938 -0.0757  0.6161 -0.7409
  178SLPC  H16R20331   4.172   1.192   8.931 -0.1221  0.8824  0.8875
  178SLPC  H16S20332   4.271   1.044   8.938 -1.4886  0.6656 -0.3391
  178SLPC  C21720333   4.353   1.207   8.815 -0.4943  0.8610  0.4816
  178SLPC  H17R20334   4.449   1.152   8.805 -2.0590 -1.8328 -0.9235
  178SLPC  H17S20335   4.379   1.315   8.818 -0.3222  0.8130  0.6874
  178SLPC  C21820336   4.281   1.182   8.684  0.3456 -0.6798  0.1016
  178SLPC  H18R20337   4.347   1.194   8.596  0.7859  0.6328  0.5928
  178SLPC  H18S20338   4.198   1.256   8.683 -0.2444 -1.3278  0.3125
  178SLPC  H18T20339   4.235   1.081   8.693 -1.4660  0.0231 -0.8899
  178SLPC   C3320340   4.644   0.120  10.371 -0.3049  0.1864  0.2173
  178SLPC   H3X20341   4.708   0.057  10.306  0.5237  1.0737  0.1268
  178SLPC   H3Y20342   4.705   0.212  10.387 -0.1766 -0.0112  0.9077
  178SLPC   C3420343   4.511   0.152  10.300  0.2718  0.2761  0.1601
  178SLPC   H4X20344   4.468   0.227  10.370 -0.6830  0.0116 -0.1252
  178SLPC   H4Y20345   4.449   0.060  10.306 -0.7107  0.9314  0.3161
  178SLPC   C3520346   4.522   0.211  10.159  0.3169 -0.5793  0.6368
  178SLPC   H5X20347   4.530   0.120  10.095  0.7062  0.5285 -0.9276
  178SLPC   H5Y20348   4.608   0.276  10.136 -1.0941  1.2756  0.3800
  178SLPC   C3620349   4.396   0.289  10.112 -0.6374 -0.5096 -0.1161
  178SLPC   H6X20350   4.390   0.392  10.154 -1.1070 -0.1953 -0.9416
  178SLPC   H6Y20351   4.301   0.241  10.145 -2.2071  1.9623 -0.7116
  178SLPC   C3720352   4.386   0.295   9.963 -0.2331 -0.3639 -0.3508
  178SLPC   H7X20353   4.355   0.200   9.913  0.3662 -0.7599  0.0313
  178SLPC   H7Y20354   4.477   0.329   9.909 -0.1257  0.5454  0.3930
  178SLPC   C3820355   4.270   0.383   9.913 -0.0866  0.1716 -0.5379
  178SLPC   H8X20356   4.309   0.487   9.907 -2.6515  1.2012 -0.5470
  178SLPC   H8Y20357   4.173   0.372   9.966 -0.2774 -1.0345 -1.1183
  178SLPC   C3920358   4.237   0.354   9.762 -0.3081  0.0026 -0.0513
  178SLPC   H9X20359   4.190   0.253   9.762 -0.0372 -0.1626 -2.1251
  178SLPC   H9Y20360   4.327   0.344   9.697  0.4618 -0.2676  1.0149
  178SLPC  C31020361   4.156   0.471   9.709 -0.0308  0.3788  0.4294
  178SLPC  H10X20362   4.208   0.568   9.717 -2.7141  2.3549 -3.2719
  178SLPC  H10Y20363   4.061   0.479   9.765 -0.1730 -0.2505  0.2876
  178SLPC  C31120364   4.112   0.450   9.563  0.3250 -0.1761 -0.0381
  178SLPC  H11X20365   4.054   0.357   9.551  2.3213 -1.4574 -0.3104
  178SLPC  H11Y20366   4.204   0.445   9.500 -0.7212  1.2053 -1.7730
  178SLPC  C31220367   4.024   0.563   9.511  0.3002 -0.8755 -0.0461
  178SLPC  H12X20368   4.069   0.663   9.529 -2.6891  0.7335 -0.7864
  178SLPC  H12Y20369   3.935   0.577   9.576  1.7128 -0.6109  1.9139
  178SLPC  C31320370   3.992   0.540   9.361 -0.3073 -0.4248 -0.5724
  178SLPC  H13X20371   3.935   0.445   9.354 -0.4704 -0.4721  1.0825
  178SLPC  H13Y20372   4.089   0.536   9.307  0.7931  2.7990  0.8725
  178SLPC  C31420373   3.916   0.651   9.289  0.3234  0.1395 -0.2207
  178SLPC  H14X20374   3.966   0.750   9.291 -0.6920  0.8186  4.4490
  178SLPC  H14Y20375   3.816   0.665   9.337  1.1338  2.4856  0.9312
  178SLPC  C31520376   3.892   0.596   9.144  0.2629 -0.0578  0.0974
  178SLPC  H15X20377   3.988   0.569   9.095  0.6666  1.0144  0.2702
  178SLPC  H15Y20378   3.823   0.509   9.150  0.2562 -0.2651 -2.3140
  178SLPC  C31620379   3.833   0.704   9.056  0.8244 -0.9731  0.2823
  178SLPC  H16X20380   3.751   0.762   9.104  0.3570  0.7348 -2.3492
  178SLPC  H16Y20381   3.798   0.654   8.963 -1.5364 -3.3108  2.2900
  178SLPC  C31720382   3.943   0.803   9.003 -0.3702 -0.4179  0.4036
  178SLPC  H17X20383   4.017   0.746   8.944 -2.4494  0.3545 -3.2966
  178SLPC  H17Y20384   3.993   0.842   9.094  1.0748  0.4842 -0.7325
  178SLPC  C31820385   3.868   0.914   8.924 -1.2371  0.3820  0.5358
  178SLPC  H18X20386   3.808   0.858   8.850 -0.0285 -2.0995  1.3170
  178SLPC  H18Y20387   3.943   0.971   8.864 -1.6861  0.4582  0.0460
  178SLPC  H18Z20388   3.809   0.984   8.987 -2.1671  0.7420 -0.7059
  179SLPC     N20389   6.763   2.974  10.722  0.6598  0.0558 -0.8048
  179SLPC   C1320390   6.618   3.011  10.700  0.0432 -0.0826  0.8882
  179SLPC  H13A20391   6.614   3.113  10.663 -0.5190 -0.3848  0.0725
  179SLPC  H13B20392   6.579   2.941  10.628 -0.9705  1.4529 -0.1394
  179SLPC  H13C20393   6.569   2.992  10.794 -0.8707 -0.5628  0.3374
  179SLPC   C1420394   6.770   2.838  10.795  0.3067 -0.6734  0.5577
  179SLPC  H14A20395   6.767   2.760  10.721  1.3080  0.3579 -0.6198
  179SLPC  H14B20396   6.850   2.835  10.869 -0.9931 -0.9468  2.0062
  179SLPC  H14C20397   6.686   2.844  10.863  1.7019 -0.5895  2.3759
  179SLPC   C1520398   6.819   3.086  10.809 -0.3019  0.0272  0.2969
  179SLPC  H15A20399   6.923   3.062  10.826 -0.1997 -1.5825 -2.0492
  179SLPC  H15B20400   6.812   3.175  10.749 -0.1040 -0.8050 -1.0061
  179SLPC  H15C20401   6.760   3.091  10.900 -0.2418  3.3466  0.2853
  179SLPC   C1220402   6.838   2.974  10.591  0.4450  0.2407  0.0969
  179SLPC  H12A20403   6.944   2.959  10.607  0.4846 -1.4094 -1.4654
  179SLPC  H12B20404   6.827   3.068  10.539 -0.6390 -0.4593 -0.9747
  179SLPC   C1120405   6.804   2.873  10.482  0.6686  0.0745  0.9860
  179SLPC  H11A20406   6.850   2.928  10.397  2.5825  2.4605  3.3651
  179SLPC  H11B20407   6.695   2.868  10.463  0.4767  0.3626  1.9258
  179SLPC     P20408   7.000   2.708  10.471  0.2330 -0.0857  0.5749
  179SLPC   O1320409   7.089   2.805  10.542  0.5735 -0.2083  0.1021
  179SLPC   O1420410   7.031   2.569  10.499  0.1139 -0.0040  0.2056
  179SLPC   O1220411   6.851   2.740  10.507 -0.3682  0.0522 -0.3754
  179SLPC   O1120412   6.999   2.732  10.308 -0.4330 -0.6826 -0.4569
  179SLPC    C120413   7.110   2.762  10.224 -0.3716  0.1305 -0.5447
  179SLPC    HA20414   7.211   2.758  10.270  0.3901 -1.2997 -2.2430
  179SLPC    HB20415   7.119   2.685  10.145  0.8805  0.7659 -1.0447
  179SLPC    C220416   7.090   2.905  10.165 -0.1207  0.6946 -0.7829
  179SLPC    HS20417   6.995   2.951  10.198  0.0172  0.0743  0.5501
  179SLPC   O2120418   7.087   2.885  10.021 -0.7692 -0.3178  0.0994
  179SLPC   C2120419   7.047   2.977   9.946 -0.0734 -0.3279  0.0571
  179SLPC   O2220420   6.997   3.087   9.971 -0.3879 -0.6525 -0.0417
  179SLPC   C2220421   7.052   2.927   9.796  0.3392 -0.0461  0.2523
  179SLPC   H2R20422   7.042   2.817   9.804  0.2747 -0.1463 -0.9257
  179SLPC   H2S20423   6.968   2.977   9.742 -0.3990 -0.5291  0.9281
  179SLPC    C320424   7.202   2.997  10.223 -0.6796  0.4063 -0.2820
  179SLPC    HX20425   7.199   2.990  10.334  2.2699 -0.7484 -0.1813
  179SLPC    HY20426   7.167   3.097  10.188 -1.1099  0.1123 -0.7030
  179SLPC   O3120427   7.338   2.963  10.184 -0.1648  0.5624  0.2203
  179SLPC   C3120428   7.388   3.054  10.108 -0.2994  0.2122  0.9627
  179SLPC   O3220429   7.333   3.144  10.050 -0.1553 -0.3228 -0.0379
  179SLPC   C3220430   7.537   3.020  10.089 -0.7497  0.5169  0.6165
  179SLPC   H2X20431   7.565   2.996   9.984 -1.6782 -1.8782  0.8454
  179SLPC   H2Y20432   7.565   2.936  10.156  1.0883  1.5926  1.2743
  179SLPC   C2320433   7.199   2.951   9.736  0.1275  0.5840 -0.2279
  179SLPC   H3R20434   7.225   2.889   9.647  1.1024  0.8456 -0.1386
  179SLPC   H3S20435   7.270   2.919   9.815 -1.3034 -1.1913  0.3888
  179SLPC   C2420436   7.217   3.095   9.702  0.0621 -0.2674  0.4978
  179SLPC   H4R20437   7.201   3.155   9.793 -2.5226 -1.7629  1.1203
  179SLPC   H4S20438   7.140   3.122   9.626  2.4306  2.4426 -1.1466
  179SLPC   C2520439   7.344   3.125   9.626  0.5074 -0.6936  0.5644
  179SLPC   H5R20440   7.418   3.043   9.634  0.1006 -1.2631 -1.0328
  179SLPC   H5S20441   7.397   3.212   9.670  0.4463 -0.6148  0.4823
  179SLPC   C2620442   7.332   3.154   9.470 -0.2511 -0.1175  0.0222
  179SLPC   H6R20443   7.257   3.088   9.422 -0.4269  0.6472 -0.7734
  179SLPC   H6S20444   7.432   3.124   9.432 -0.5890 -2.3286  0.7069
  179SLPC   C2720445   7.315   3.301   9.416  0.3400 -0.2871  0.2841
  179SLPC   H7R20446   7.337   3.297   9.307 -0.3220  1.4259  0.0544
  179SLPC   H7S20447   7.386   3.362   9.474  3.2274 -1.7121 -1.5313
  179SLPC   C2820448   7.165   3.356   9.419 -0.1460 -0.0901 -0.3247
  179SLPC   H8R20449   7.161   3.465   9.395  1.3174  0.5826  2.0924
  179SLPC   H8S20450   7.134   3.352   9.525 -1.9990  1.4922 -0.7558
  179SLPC   C2920451   7.072   3.271   9.330 -0.4168  0.1070 -0.1360
  179SLPC   H9R20452   7.042   3.174   9.372 -2.3482  0.0008 -1.6176
  179SLPC  C21020453   7.034   3.306   9.213 -0.4850 -0.0608  0.2995
  179SLPC  H10R20454   6.968   3.233   9.164  1.5854 -1.0604 -1.1394
  179SLPC  C21120455   7.071   3.430   9.136 -0.1328  0.5220  0.2399
  179SLPC  H11R20456   7.171   3.466   9.169  0.1726 -0.3596  0.3045
  179SLPC  H11S20457   6.988   3.503   9.148 -1.3650 -1.1482  2.8419
  179SLPC  C21220458   7.086   3.407   8.990  0.1782  0.3734 -0.0469
  179SLPC  H12R20459   7.122   3.309   8.956  0.4637  0.1155  0.9672
  179SLPC  C21320460   7.081   3.496   8.889  0.6536  0.4167 -0.1065
  179SLPC  H13R20461   7.086   3.455   8.787 -3.7357  0.3800 -0.5155
  179SLPC  C21420462   7.057   3.641   8.903  0.6158 -0.3980 -0.2491
  179SLPC  H14R20463   7.134   3.705   8.856 -0.5371  0.6774 -0.7275
  179SLPC  H14S20464   7.047   3.681   9.007 -0.4509  1.2102 -0.9252
  179SLPC  C21520465   6.926   3.682   8.837  0.4961 -0.3861 -0.1752
  179SLPC  H15R20466   6.843   3.629   8.889  0.8921 -0.3021  0.5678
  179SLPC  H15S20467   6.926   3.639   8.735 -0.8511 -2.0571  0.4746
  179SLPC  C21620468   6.909   3.830   8.822 -0.8656 -0.0996 -0.1221
  179SLPC  H16R20469   7.000   3.890   8.799 -1.7688  2.3064  2.0917
  179SLPC  H16S20470   6.885   3.854   8.928 -0.3848 -1.9848  0.4638
  179SLPC  C21720471   6.808   3.870   8.716 -0.6381 -0.4194 -0.4308
  179SLPC  H17R20472   6.852   3.846   8.617 -2.3993 -2.2958 -0.8381
  179SLPC  H17S20473   6.786   3.978   8.726  0.1523 -0.0476 -2.2817
  179SLPC  C21820474   6.675   3.792   8.727 -0.2257  0.5110  0.2371
  179SLPC  H18R20475   6.682   3.700   8.667  0.3559  2.5928 -3.1708
  179SLPC  H18S20476   6.593   3.848   8.677  0.5617  0.9144 -0.6185
  179SLPC  H18T20477   6.646   3.780   8.834 -0.6004  1.2247  0.2228
  179SLPC   C3320478   7.635   3.142  10.118  0.0658  0.4486 -0.5990
  179SLPC   H3X20479   7.737   3.104  10.097  0.3459  0.1925  1.0388
  179SLPC   H3Y20480   7.636   3.178  10.223 -0.3100 -1.8978  0.2771
  179SLPC   C3420481   7.616   3.271  10.038 -0.6741  0.2319  0.1232
  179SLPC   H4X20482   7.688   3.345  10.079  1.6018 -0.9304 -1.5280
  179SLPC   H4Y20483   7.509   3.295  10.056 -0.9227 -1.5622  1.3322
  179SLPC   C3520484   7.627   3.247   9.883 -0.5159  0.0187 -0.0977
  179SLPC   H5X20485   7.569   3.321   9.824 -1.5931 -0.5358  0.2438
  179SLPC   H5Y20486   7.588   3.151   9.844  1.3017 -0.5633 -0.5884
  179SLPC   C3620487   7.773   3.245   9.829  0.5158  0.1569 -0.7543
  179SLPC   H6X20488   7.823   3.161   9.882  0.9818  0.3756 -0.8453
  179SLPC   H6Y20489   7.809   3.341   9.873 -3.2014  1.3581  0.0679
  179SLPC   C3720490   7.792   3.217   9.683  0.5490 -0.1428  0.3071
  179SLPC   H7X20491   7.739   3.123   9.658 -0.2963  0.1389  0.9842
  179SLPC   H7Y20492   7.897   3.192   9.659  0.8780  0.5611  0.9579
  179SLPC   C3820493   7.726   3.319   9.587 -0.2116 -0.5345 -0.6743
  179SLPC   H8X20494   7.769   3.418   9.611 -0.2119 -1.1509  2.2743
  179SLPC   H8Y20495   7.618   3.311   9.614 -0.0730 -0.2029 -0.0137
  179SLPC   C3920496   7.748   3.285   9.437  0.1673  0.2053 -0.1173
  179SLPC   H9X20497   7.683   3.196   9.419 -1.9813  1.4091  1.1732
  179SLPC   H9Y20498   7.853   3.258   9.412  0.9884  2.2053  0.9916
  179SLPC  C31020499   7.722   3.406   9.348 -0.5238 -0.1292  0.3167
  179SLPC  H10X20500   7.803   3.478   9.370  0.8431 -1.4024 -0.3548
  179SLPC  H10Y20501   7.632   3.463   9.379 -0.2626  1.6981 -2.0115
  179SLPC  C31120502   7.712   3.370   9.204 -0.2552  0.3728  0.0532
  179SLPC  H11X20503   7.801   3.315   9.167 -0.4421  0.3795 -0.4179
  179SLPC  H11Y20504   7.718   3.470   9.155  1.6576  0.2169 -0.0871
  179SLPC  C31220505   7.577   3.295   9.171  0.8094 -0.3858 -0.1994
  179SLPC  H12X20506   7.491   3.360   9.198  0.0802 -0.7042 -1.6823
  179SLPC  H12Y20507   7.559   3.201   9.228 -2.9905  1.4059  1.9779
  179SLPC  C31320508   7.555   3.259   9.027  0.2305 -0.4448  0.5549
  179SLPC  H13X20509   7.641   3.213   8.973  0.2312  1.7286 -1.4624
  179SLPC  H13Y20510   7.534   3.354   8.973  1.5624 -1.1791 -1.3782
  179SLPC  C31420511   7.423   3.175   9.008 -0.0968  0.3716  0.3352
  179SLPC  H14X20512   7.335   3.237   9.036 -0.5018 -0.5417  1.1639
  179SLPC  H14Y20513   7.422   3.094   9.084  0.1992  0.7067  0.6938
  179SLPC  C31520514   7.398   3.129   8.864 -0.3912 -0.6567 -0.6651
  179SLPC  H15X20515   7.475   3.055   8.831  1.7294  1.9774 -1.9748
  179SLPC  H15Y20516   7.400   3.215   8.794  1.4068  0.1287  0.2830
  179SLPC  C31620517   7.265   3.053   8.840  0.1923  0.2545 -0.1522
  179SLPC  H16X20518   7.183   3.096   8.902 -0.2231  0.1912 -0.6505
  179SLPC  H16Y20519   7.275   2.950   8.879  0.0386  0.4299  0.3662
  179SLPC  C31720520   7.228   3.066   8.699 -0.3458 -0.2584  0.2635
  179SLPC  H17X20521   7.180   2.974   8.658 -0.6943 -0.4640  1.1057
  179SLPC  H17Y20522   7.319   3.079   8.637 -1.7211 -2.0121 -2.3101
  179SLPC  C31820523   7.129   3.181   8.678 -0.1418 -0.6057 -0.4574
  179SLPC  H18X20524   7.035   3.171   8.736 -0.0992  0.2168 -0.2316
  179SLPC  H18Y20525   7.098   3.200   8.573 -1.6796  0.6593  0.1707
  179SLPC  H18Z20526   7.177   3.276   8.710  0.0825 -0.6535 -0.6497
  180SLPC     N20527   5.911   0.855  10.736  0.1099 -0.4060  0.0720
  180SLPC   C1320528   5.803   0.811  10.831 -0.2280  0.2539 -0.6951
  180SLPC  H13A20529   5.722   0.883  10.838  1.1323  1.7509  0.2039
  180SLPC  H13B20530   5.779   0.709  10.805  2.5184 -0.4564 -0.7595
  180SLPC  H13C20531   5.844   0.793  10.929 -0.1134 -1.3252 -1.0072
  180SLPC   C1420532   5.947   0.991  10.776  0.1755 -0.5640  0.8276
  180SLPC  H14A20533   6.018   1.032  10.706 -1.8890  1.4851 -0.1579
  180SLPC  H14B20534   5.856   1.048  10.780  1.9360  2.3712  2.1350
  180SLPC  H14C20535   5.989   0.988  10.876  1.1977 -0.3997  0.4127
  180SLPC   C1520536   5.852   0.860  10.596  0.6710  0.1687 -0.2122
  180SLPC  H15A20537   5.810   0.763  10.571 -3.0391  1.4394  0.5356
  180SLPC  H15B20538   5.767   0.926  10.590 -0.1898 -0.9199 -0.3575
  180SLPC  H15C20539   5.926   0.886  10.521  0.8882 -3.1732 -1.3593
  180SLPC   C1220540   6.023   0.767  10.734 -0.1739 -0.0261  0.4293
  180SLPC  H12A20541   6.091   0.785  10.652  0.4276 -1.5475  0.5586
  180SLPC  H12B20542   5.987   0.669  10.708 -0.3581  0.2865 -0.5568
  180SLPC   C1120543   6.101   0.752  10.854  0.0448 -0.1171 -0.4068
  180SLPC  H11A20544   6.034   0.727  10.939 -0.5114 -0.3016 -0.8981
  180SLPC  H11B20545   6.154   0.847  10.879  0.8765 -0.1156 -2.0735
  180SLPC     P20546   6.334   0.686  10.758  0.2273 -0.2365  0.3584
  180SLPC   O1320547   6.386   0.802  10.823  0.1545  0.1573  0.3485
  180SLPC   O1420548   6.413   0.564  10.752 -0.4357 -0.3426  0.1740
  180SLPC   O1220549   6.201   0.649  10.823  0.1313 -0.4564 -0.2627
  180SLPC   O1120550   6.291   0.734  10.612 -0.7129 -0.2107  0.0091
  180SLPC    C120551   6.234   0.635  10.519 -0.0206  0.3428  0.0265
  180SLPC    HA20552   6.188   0.562  10.590  1.4515  2.1140  3.0260
  180SLPC    HB20553   6.152   0.682  10.461 -1.5644 -1.3627  0.7095
  180SLPC    C220554   6.331   0.559  10.417  0.6351  0.2530 -0.6381
  180SLPC    HS20555   6.413   0.516  10.479  2.3156  0.3349 -2.6989
  180SLPC   O2120556   6.372   0.660  10.322  0.9559  0.2064 -0.3142
  180SLPC   C2120557   6.482   0.644  10.258  0.9568  1.0289 -1.0252
  180SLPC   O2220558   6.575   0.572  10.301  0.0209  0.0646  0.0618
  180SLPC   C2220559   6.484   0.730  10.132 -0.3449 -0.0478 -0.3796
  180SLPC   H2R20560   6.385   0.780  10.124  0.4812  1.9635  1.2575
  180SLPC   H2S20561   6.565   0.805  10.141 -2.7513  2.7329 -0.3660
  180SLPC    C320562   6.256   0.439  10.350  0.2904 -0.0140  0.0003
  180SLPC    HX20563   6.216   0.382  10.436 -1.2938 -0.1318 -0.7790
  180SLPC    HY20564   6.323   0.376  10.288 -1.3900 -1.5139 -0.3868
  180SLPC   O3120565   6.142   0.496  10.283 -0.2847  0.0041  0.2140
  180SLPC   C3120566   6.063   0.413  10.220 -0.4138  0.1613  0.3952
  180SLPC   O3220567   6.078   0.294  10.207 -0.0620  0.5268 -0.6777
  180SLPC   C3220568   5.933   0.483  10.179  0.7489  0.0111 -0.7180
  180SLPC   H2X20569   5.906   0.548  10.265 -0.1310  0.8372 -1.5834
  180SLPC   H2Y20570   5.854   0.405  10.179  2.1510 -1.4621 -0.2651
  180SLPC   C2320571   6.508   0.640  10.010  0.8119 -0.2336 -0.2495
  180SLPC   H3R20572   6.602   0.580  10.012 -0.0136 -1.6926 -2.1799
  180SLPC   H3S20573   6.532   0.711   9.928  0.3758 -1.2848 -1.3160
  180SLPC   C2420574   6.375   0.572   9.975 -0.1260  0.0150  0.1353
  180SLPC   H4R20575   6.299   0.646   9.941 -1.7394 -0.1742  2.9673
  180SLPC   H4S20576   6.343   0.515  10.065  0.8891  0.0763  0.5511
  180SLPC   C2520577   6.387   0.458   9.867 -0.5862 -1.0052 -0.0579
  180SLPC   H5R20578   6.286   0.416   9.850 -0.0031 -2.1389 -0.8272
  180SLPC   H5S20579   6.452   0.377   9.906  0.3547 -0.5852 -0.7341
  180SLPC   C2620580   6.459   0.504   9.742  0.1405 -0.4084  0.6139
  180SLPC   H6R20581   6.463   0.416   9.675  0.0158  1.0534 -1.4087
  180SLPC   H6S20582   6.563   0.540   9.757  0.2212 -1.0749  1.8192
  180SLPC   C2720583   6.398   0.619   9.652 -0.0284  0.6310 -0.4293
  180SLPC   H7R20584   6.388   0.716   9.706  2.6777  1.8278 -1.8904
  180SLPC   H7S20585   6.292   0.596   9.628  0.2524 -0.7319 -0.4596
  180SLPC   C2820586   6.480   0.628   9.512  0.3572 -0.6442 -1.0646
  180SLPC   H8R20587   6.456   0.528   9.471  0.8585 -0.4082 -1.9628
  180SLPC   H8S20588   6.588   0.634   9.539 -0.1328 -1.5577  1.3546
  180SLPC   C2920589   6.431   0.749   9.437 -0.5402 -0.2248  0.0072
  180SLPC   H9R20590   6.416   0.840   9.498 -1.2913 -1.4059  1.6532
  180SLPC  C21020591   6.381   0.738   9.309 -0.5092  0.3266 -0.1450
  180SLPC  H10R20592   6.349   0.834   9.266  2.4043  1.8970  0.8907
  180SLPC  C21120593   6.375   0.626   9.211 -0.2652 -0.2299  1.1418
  180SLPC  H11R20594   6.464   0.561   9.226 -0.1547 -0.9832 -1.9934
  180SLPC  H11S20595   6.391   0.654   9.104 -1.7588 -2.5197  0.2551
  180SLPC  C21220596   6.251   0.532   9.230 -0.7171 -0.0026  0.2844
  180SLPC  H12R20597   6.217   0.504   9.331  0.5315  1.5644  1.1917
  180SLPC  C21320598   6.179   0.480   9.130  0.0713  0.2325  0.3856
  180SLPC  H13R20599   6.096   0.412   9.154  0.0355  0.0531 -0.2241
  180SLPC  C21420600   6.189   0.496   8.983  0.0988  0.3183  0.8349
  180SLPC  H14R20601   6.177   0.398   8.932 -2.8216  1.3699 -0.7420
  180SLPC  H14S20602   6.288   0.538   8.955 -0.5734  0.9911 -0.6373
  180SLPC  C21520603   6.079   0.587   8.933  0.9084 -0.2451 -0.3995
  180SLPC  H15R20604   5.984   0.535   8.958  1.5286 -2.1966 -1.8272
  180SLPC  H15S20605   6.083   0.595   8.822  0.7061 -0.9307 -0.4579
  180SLPC  C21620606   6.084   0.729   8.995 -0.2683  0.8562  0.0673
  180SLPC  H16R20607   6.188   0.767   8.997 -0.7072  2.1060  0.0386
  180SLPC  H16S20608   6.046   0.706   9.097  0.6044  0.2569  0.2747
  180SLPC  C21720609   5.989   0.832   8.929  0.2286  0.5277 -0.4307
  180SLPC  H17R20610   6.038   0.863   8.834 -0.4593  4.8050  0.4019
  180SLPC  H17S20611   5.990   0.918   9.000  0.7489  0.2283 -0.0698
  180SLPC  C21820612   5.839   0.803   8.908 -0.0024 -0.1107 -0.3146
  180SLPC  H18R20613   5.785   0.769   8.999 -1.0829 -1.8862 -1.5498
  180SLPC  H18S20614   5.811   0.738   8.822 -1.1172  1.2473 -1.0141
  180SLPC  H18T20615   5.793   0.901   8.886  1.3086  0.0302 -2.7746
  180SLPC   C3320616   5.939   0.569  10.047  0.2091  0.0670  0.1291
  180SLPC   H3X20617   6.021   0.644  10.054  0.6344 -0.3477 -0.3041
  180SLPC   H3Y20618   5.840   0.620  10.047  0.7101  1.0856 -0.1227
  180SLPC   C3420619   5.944   0.496   9.918 -0.7413  0.3961  0.9294
  180SLPC   H4X20620   5.869   0.414   9.921  1.3107 -1.7973 -2.0858
  180SLPC   H4Y20621   6.045   0.454   9.898  0.0256  1.6848  1.9364
  180SLPC   C3520622   5.908   0.580   9.794  0.2027 -0.1326 -0.5364
  180SLPC   H5X20623   5.809   0.628   9.806 -0.3223 -1.4277  0.5611
  180SLPC   H5Y20624   5.904   0.508   9.709 -1.9807 -2.7421  1.6026
  180SLPC   C3620625   6.013   0.685   9.769  0.2775 -0.1672 -0.0732
  180SLPC   H6X20626   6.109   0.629   9.778 -1.2074 -3.1537 -1.3393
  180SLPC   H6Y20627   6.010   0.759   9.852 -0.5826 -0.4253  0.1428
  180SLPC   C3720628   6.007   0.758   9.643  0.1679  0.0537 -0.0244
  180SLPC   H7X20629   6.103   0.814   9.647  0.0483  0.4398 -1.8120
  180SLPC   H7Y20630   5.930   0.837   9.644  0.0665 -0.0466  0.9133
  180SLPC   C3820631   6.015   0.676   9.515 -0.0412  0.7212 -0.0583
  180SLPC   H8X20632   5.924   0.612   9.521  0.6815 -0.2343  1.1406
  180SLPC   H8Y20633   6.109   0.618   9.515 -0.4263  0.0639 -1.6349
  180SLPC   C3920634   6.017   0.760   9.389 -0.4516  0.3609  0.2938
  180SLPC   H9X20635   6.031   0.694   9.301  3.3304 -0.6605  1.4418
  180SLPC   H9Y20636   6.104   0.827   9.406  0.4441 -0.4982 -0.7895
  180SLPC  C31020637   5.909   0.862   9.361  0.2602 -0.0267 -0.2509
  180SLPC  H10X20638   5.930   0.906   9.261  1.0962 -0.6310 -0.3485
  180SLPC  H10Y20639   5.918   0.942   9.437  1.4075 -1.3130  1.0400
  180SLPC  C31120640   5.764   0.805   9.356 -0.1563  0.2189  0.2585
  180SLPC  H11X20641   5.728   0.750   9.445 -0.8019  0.3749  0.1029
  180SLPC  H11Y20642   5.761   0.735   9.270 -2.2379 -0.4481  0.8214
  180SLPC  C31220643   5.659   0.911   9.325 -0.4476 -0.0954  0.9270
  180SLPC  H12X20644   5.714   1.001   9.291  1.0637 -1.1285  0.5487
  180SLPC  H12Y20645   5.609   0.941   9.420  1.6306  0.0019  2.0416
  180SLPC  C31320646   5.554   0.850   9.219  0.4917 -0.3890 -0.2426
  180SLPC  H13X20647   5.527   0.747   9.252  0.4406 -0.7383 -1.3409
  180SLPC  H13Y20648   5.603   0.847   9.120 -0.6081  0.4592 -0.8326
  180SLPC  C31420649   5.434   0.936   9.189 -0.2085  0.2953  0.2142
  180SLPC  H14X20650   5.459   1.035   9.144  0.1603 -0.2710 -0.8684
  180SLPC  H14Y20651   5.379   0.960   9.282  1.2452  1.4144  0.8300
  180SLPC  C31520652   5.343   0.860   9.092  0.6412  0.1033 -0.1589
  180SLPC  H15X20653   5.242   0.904   9.107 -0.0981 -1.8494  0.9733
  180SLPC  H15Y20654   5.336   0.754   9.125  1.6086  0.1916  0.3855
  180SLPC  C31620655   5.379   0.877   8.949 -0.3315 -0.1223  0.1511
  180SLPC  H16X20656   5.305   0.831   8.879 -0.4541  2.2544 -1.3817
  180SLPC  H16Y20657   5.481   0.844   8.921  0.3064  2.2414 -0.4815
  180SLPC  C31720658   5.379   1.022   8.894 -0.5017  0.1063 -0.0894
  180SLPC  H17X20659   5.477   1.063   8.923 -1.0722  0.0206  2.1515
  180SLPC  H17Y20660   5.297   1.068   8.953 -1.4546 -1.9048  0.2348
  180SLPC  C31820661   5.353   1.052   8.742 -0.1618  0.0005  0.8315
  180SLPC  H18X20662   5.443   1.027   8.682 -0.0021  0.7824  0.7303
  180SLPC  H18Y20663   5.323   1.157   8.720 -1.5598 -0.7812 -1.3957
  180SLPC  H18Z20664   5.266   0.999   8.697  0.1782 -1.2352  1.5796
  181SLPC     N20665   4.159   4.532  11.287  1.2444  0.7783 -0.1384
  181SLPC   C1320666   4.252   4.430  11.242  0.3645  0.7917 -0.3538
  181SLPC  H13A20667   4.290   4.454  11.144 -1.4450  2.1343 -0.7706
  181SLPC  H13B20668   4.334   4.426  11.313 -1.0573 -1.1351  1.3164
  181SLPC  H13C20669   4.201   4.335  11.236  0.5776  0.6618 -0.1272
  181SLPC   C1420670   4.234   4.655  11.319  0.3411 -0.5734  0.3598
  181SLPC  H14A20671   4.285   4.695  11.232  0.5825 -0.1653  0.6894
  181SLPC  H14B20672   4.170   4.736  11.352  2.1639  1.4500 -0.7660
  181SLPC  H14C20673   4.311   4.625  11.388 -0.2303 -1.0834  0.7896
  181SLPC   C1520674   4.088   4.485  11.422  0.1743  0.4556 -0.3577
  181SLPC  H15A20675   4.170   4.478  11.492  0.1133  2.3104 -0.0699
  181SLPC  H15B20676   4.015   4.551  11.466  0.2886  0.1877  0.2402
  181SLPC  H15C20677   4.029   4.396  11.406 -0.0844  0.6801 -0.6605
  181SLPC   C1220678   4.059   4.562  11.176 -0.0407  0.1898  0.6462
  181SLPC  H12A20679   4.021   4.659  11.205 -3.2476 -0.6285 -0.4488
  181SLPC  H12B20680   3.973   4.497  11.176  0.2675 -0.2466  1.5515
  181SLPC   C1120681   4.105   4.578  11.024 -0.4166  0.5024  0.7472
  181SLPC  H11A20682   4.019   4.604  10.958  2.1846  2.2120 -2.2231
  181SLPC  H11B20683   4.141   4.479  10.988 -0.9202  0.0902  1.3466
  181SLPC     P20684   4.165   4.836  11.017  0.3515 -0.1167 -0.0799
  181SLPC   O1320685   4.027   4.849  11.074  0.1589 -0.2116 -0.1398
  181SLPC   O1420686   4.280   4.894  11.091  0.3238 -1.1379  0.2434
  181SLPC   O1220687   4.203   4.678  11.007 -0.5077  0.1317 -0.1047
  181SLPC   O1120688   4.158   4.887  10.862 -0.2013 -0.0423 -0.1792
  181SLPC    C120689   4.274   4.871  10.785 -1.4169  0.0560  0.1986
  181SLPC    HA20690   4.322   4.970  10.768 -0.4544 -0.2225  1.2026
  181SLPC    HB20691   4.354   4.807  10.829  3.1340  3.9497 -1.4123
  181SLPC    C220692   4.246   4.803  10.647 -0.0853 -0.7078 -1.4620
  181SLPC    HS20693   4.325   4.834  10.575  1.1837 -0.8017 -0.1832
  181SLPC   O2120694   4.122   4.832  10.591 -0.9432 -0.5765 -0.5129
  181SLPC   C2120695   4.106   4.950  10.551  0.0680  0.2108 -0.2505
  181SLPC   O2220696   4.191   5.037  10.541  0.3785  0.1658 -0.0635
  181SLPC   C2220697   3.956   4.976  10.516 -0.2882  0.3472  0.5888
  181SLPC   H2R20698   3.902   4.969  10.612 -0.9264 -0.2458  0.1962
  181SLPC   H2S20699   3.940   5.082  10.484  1.2596 -0.1992 -2.3178
  181SLPC    C320700   4.248   4.649  10.668 -0.0670  0.3246 -0.2324
  181SLPC    HX20701   4.161   4.612  10.726 -0.1582  1.7078  0.5549
  181SLPC    HY20702   4.334   4.606  10.724 -0.0853 -0.6202 -0.9055
  181SLPC   O3120703   4.233   4.594  10.537  0.5687  0.5876 -0.2917
  181SLPC   C3120704   4.316   4.495  10.510 -0.2056 -0.3110 -0.1706
  181SLPC   O3220705   4.407   4.453  10.585  0.3396  0.0319  0.2830
  181SLPC   C3220706   4.275   4.435  10.377 -0.4966  0.3930  0.3770
  181SLPC   H2X20707   4.194   4.360  10.388  0.0106 -0.2971 -0.3995
  181SLPC   H2Y20708   4.372   4.386  10.351 -0.2316  1.0913  0.0177
  181SLPC   C2320709   3.906   4.889  10.401  0.1020 -0.1288 -0.6393
  181SLPC   H3R20710   3.795   4.879  10.406  0.1525 -0.9371 -0.9838
  181SLPC   H3S20711   3.932   4.782  10.412 -1.2370 -0.4155  0.0089
  181SLPC   C2420712   3.939   4.938  10.260 -0.1755  0.9625 -0.3970
  181SLPC   H4R20713   4.049   4.946  10.245 -0.0204 -0.9671 -0.5457
  181SLPC   H4S20714   3.884   5.035  10.256 -1.9947 -0.0325 -0.6094
  181SLPC   C2520715   3.900   4.836  10.152 -0.1504 -0.3781 -0.3128
  181SLPC   H5R20716   3.791   4.814  10.158 -0.1396 -0.0324  2.0664
  181SLPC   H5S20717   3.957   4.742  10.172  1.7615  0.5127 -1.2910
  181SLPC   C2620718   3.941   4.878  10.011  0.3016  0.5923 -0.5745
  181SLPC   H6R20719   4.046   4.911  10.025  0.6305 -0.0537 -1.4111
  181SLPC   H6S20720   3.887   4.964   9.966  1.5874  1.8602  0.2009
  181SLPC   C2720721   3.925   4.764   9.907 -0.3269  0.2113  0.2094
  181SLPC   H7R20722   3.816   4.742   9.915 -0.4431  0.9837  0.9598
  181SLPC   H7S20723   3.979   4.673   9.941  0.7774  0.7009 -0.1881
  181SLPC   C2820724   3.970   4.814   9.764 -0.1330  0.0109 -1.0055
  181SLPC   H8R20725   3.897   4.895   9.743 -0.2503  0.5257  1.1591
  181SLPC   H8S20726   3.935   4.727   9.705 -1.8089  0.7936 -1.2230
  181SLPC   C2920727   4.116   4.848   9.728  0.1279 -0.0107  0.7801
  181SLPC   H9R20728   4.166   4.908   9.807  0.2752 -1.1673  1.5887
  181SLPC  C21020729   4.171   4.824   9.605 -0.3708  0.4828  0.3640
  181SLPC  H10R20730   4.278   4.844   9.590 -0.1013 -1.8474 -1.4210
  181SLPC  C21120731   4.106   4.763   9.484 -0.2616  0.2093 -0.9964
  181SLPC  H11R20732   4.037   4.680   9.511  1.2815 -0.6174  0.6311
  181SLPC  H11S20733   4.185   4.712   9.426  0.1948 -0.7282  0.4146
  181SLPC  C21220734   4.040   4.869   9.404 -0.2314 -0.3685  0.2151
  181SLPC  H12R20735   3.979   4.948   9.449  0.2971  0.1441  0.0399
  181SLPC  C21320736   4.037   4.865   9.267  0.3266  0.2607 -0.3088
  181SLPC  H13R20737   3.977   4.938   9.211  1.9753  0.2456 -2.2188
  181SLPC  C21420738   4.100   4.764   9.166  0.0512  0.2460 -0.1864
  181SLPC  H14R20739   4.166   4.688   9.213  1.3964 -0.2937 -2.7419
  181SLPC  H14S20740   4.168   4.810   9.091  0.7855 -0.2280  0.1729
  181SLPC  C21520741   4.000   4.682   9.077 -0.0653 -0.0305 -0.6500
  181SLPC  H15R20742   3.903   4.734   9.069 -1.7021 -2.8931 -0.7162
  181SLPC  H15S20743   3.963   4.597   9.138  0.3151  0.3214  0.0867
  181SLPC  C21620744   4.066   4.641   8.948 -0.2224 -0.4993 -1.1116
  181SLPC  H16R20745   4.134   4.554   8.960 -0.8255 -0.7705  0.6174
  181SLPC  H16S20746   4.117   4.731   8.906  0.1718 -1.3344 -2.4896
  181SLPC  C21720747   3.961   4.593   8.842  0.5660 -0.3017 -0.8166
  181SLPC  H17R20748   3.889   4.678   8.833  0.4227 -0.4376 -0.9421
  181SLPC  H17S20749   3.910   4.506   8.887  1.4792 -0.6530 -0.4387
  181SLPC  C21820750   4.003   4.545   8.709  0.1794 -0.6211 -0.2647
  181SLPC  H18R20751   4.072   4.459   8.719  1.6676  0.5037 -0.6185
  181SLPC  H18S20752   4.052   4.619   8.643 -0.8798  0.4815  0.1378
  181SLPC  H18T20753   3.915   4.512   8.650 -0.6505 -1.2207  1.2363
  181SLPC   C3320754   4.263   4.536  10.261 -0.5346  0.7106  0.1476
  181SLPC   H3X20755   4.305   4.637  10.281  3.1523 -0.5882 -0.1877
  181SLPC   H3Y20756   4.155   4.560  10.252 -0.3903  0.5358 -2.9801
  181SLPC   C3420757   4.320   4.491  10.125  0.0828  0.2349 -0.2790
  181SLPC   H4X20758   4.282   4.387  10.118  1.3417 -0.4285  1.7695
  181SLPC   H4Y20759   4.430   4.496  10.137 -0.0961 -0.8009  2.4951
  181SLPC   C3520760   4.280   4.573   9.997 -0.1076 -0.3864 -1.2841
  181SLPC   H5X20761   4.340   4.665  10.010  0.8234 -1.2443  1.1082
  181SLPC   H5Y20762   4.175   4.603  10.015 -0.4487 -1.8237 -0.6711
  181SLPC   C3620763   4.285   4.489   9.865  0.5197 -0.2820 -0.3004
  181SLPC   H6X20764   4.212   4.533   9.794 -0.1454 -0.2359  0.4014
  181SLPC   H6Y20765   4.259   4.383   9.885  1.9508 -0.3409  1.4824
  181SLPC   C3720766   4.422   4.512   9.790 -0.4862 -0.4235  0.2189
  181SLPC   H7X20767   4.499   4.470   9.858 -1.5037 -1.1564  0.9462
  181SLPC   H7Y20768   4.434   4.622   9.779  0.6161 -0.7310 -2.1621
  181SLPC   C3820769   4.426   4.427   9.667 -0.2795  0.4744  0.2748
  181SLPC   H8X20770   4.368   4.334   9.686  0.1073 -0.1057 -1.2108
  181SLPC   H8Y20771   4.528   4.394   9.639 -0.5948  1.2232 -1.9614
  181SLPC   C3920772   4.371   4.488   9.531  0.0149 -0.5458  0.3881
  181SLPC   H9X20773   4.442   4.573   9.519  0.7964 -1.3164 -0.6678
  181SLPC   H9Y20774   4.268   4.528   9.543  0.8962  3.2644 -2.5960
  181SLPC  C31020775   4.375   4.393   9.419  0.0921 -0.1533 -0.5433
  181SLPC  H10X20776   4.315   4.303   9.444  1.4692 -0.9204  0.1267
  181SLPC  H10Y20777   4.483   4.372   9.399  0.4581  1.7684 -0.7388
  181SLPC  C31120778   4.316   4.449   9.281 -0.0080  0.9112  0.1010
  181SLPC  H11X20779   4.378   4.533   9.242  0.4045  0.5847  0.0367
  181SLPC  H11Y20780   4.217   4.494   9.302 -0.4219 -0.1349  0.4828
  181SLPC  C31220781   4.299   4.341   9.173  0.2289  0.1544 -0.6848
  181SLPC  H12X20782   4.250   4.374   9.079  0.8609  0.4031 -0.9346
  181SLPC  H12Y20783   4.247   4.247   9.201 -1.3783  1.2016 -0.0066
  181SLPC  C31320784   4.441   4.295   9.129  0.4981  0.0413 -0.1137
  181SLPC  H13X20785   4.488   4.227   9.203  0.1321 -0.3097 -0.1997
  181SLPC  H13Y20786   4.503   4.384   9.106  0.6605 -0.2096 -0.6605
  181SLPC  C31420787   4.431   4.218   8.998 -0.2982  0.0543  0.0382
  181SLPC  H14X20788   4.532   4.194   8.959 -0.4004  2.4537 -1.9524
  181SLPC  H14Y20789   4.401   4.299   8.928 -0.9665  1.0682  1.4315
  181SLPC  C31520790   4.347   4.087   8.984  0.3585  0.0868 -0.3358
  181SLPC  H15X20791   4.243   4.099   9.023  0.2614 -1.6049  0.0148
  181SLPC  H15Y20792   4.398   4.011   9.047 -0.2416 -0.0696 -0.0285
  181SLPC  C31620793   4.352   4.021   8.841 -0.1366  0.2736  0.8777
  181SLPC  H16X20794   4.280   3.937   8.855 -0.6102  0.8113  1.7504
  181SLPC  H16Y20795   4.455   3.988   8.817 -1.1026 -1.1937 -1.5890
  181SLPC  C31720796   4.303   4.117   8.737 -0.0592 -0.5064  0.0293
  181SLPC  H17X20797   4.385   4.191   8.722 -0.1911 -0.6636 -1.5477
  181SLPC  H17Y20798   4.212   4.168   8.775  0.4956  0.9742 -0.5570
  181SLPC  C31820799   4.272   4.053   8.601 -0.0865  0.3126 -0.6391
  181SLPC  H18X20800   4.362   4.018   8.547 -0.4918 -0.5415 -0.7752
  181SLPC  H18Y20801   4.221   4.126   8.535 -0.1048  1.0052  0.1209
  181SLPC  H18Z20802   4.210   3.961   8.601  0.6897 -0.2328 -1.5453
  182SLPC     N20803   0.850   5.508  10.967  0.0696  0.3114  1.1325
  182SLPC   C1320804   0.931   5.394  10.910 -0.1490  0.1259 -0.0398
  182SLPC  H13A20805   0.869   5.328  10.851  1.6235 -0.0336 -1.8205
  182SLPC  H13B20806   1.019   5.431  10.860  1.0447 -0.8910  1.2226
  182SLPC  H13C20807   0.971   5.337  10.993 -2.0439  1.0859  1.6410
  182SLPC   C1420808   0.813   5.589  10.838 -0.8491  0.0553  0.3073
  182SLPC  H14A20809   0.727   5.654  10.851 -2.1002 -1.9662  3.3235
  182SLPC  H14B20810   0.899   5.649  10.816  0.8102 -2.7534 -1.4473
  182SLPC  H14C20811   0.809   5.524  10.752  0.7386  2.1384 -1.4764
  182SLPC   C1520812   0.931   5.587  11.059  0.2642 -0.2177  0.2176
  182SLPC  H15A20813   1.026   5.589  11.007 -0.1314  0.1519 -0.5052
  182SLPC  H15B20814   0.885   5.685  11.056 -4.5048 -2.2317 -0.8758
  182SLPC  H15C20815   0.944   5.551  11.160  1.8639  1.0936  0.5299
  182SLPC   C1220816   0.725   5.444  11.034 -0.0108 -0.6247  0.3570
  182SLPC  H12A20817   0.663   5.519  11.081  0.4974  0.2785 -0.3813
  182SLPC  H12B20818   0.748   5.376  11.115 -3.5290 -0.2349  1.8845
  182SLPC   C1120819   0.624   5.373  10.945 -0.0466 -0.7787 -0.2362
  182SLPC  H11A20820   0.588   5.443  10.867  1.4478 -0.3815 -0.6098
  182SLPC  H11B20821   0.538   5.336  11.003  0.0705  0.7622  0.9879
  182SLPC     P20822   0.595   5.174  10.768 -0.2805  0.0415  0.0104
  182SLPC   O1320823   0.681   5.087  10.680 -0.3187  0.4056  0.6884
  182SLPC   O1420824   0.506   5.098  10.847  0.1661  0.4735 -0.6420
  182SLPC   O1220825   0.690   5.266  10.868  0.5949 -0.2050 -0.3341
  182SLPC   O1120826   0.511   5.275  10.677 -0.7280 -0.3472 -0.2814
  182SLPC    C120827   0.591   5.356  10.584  0.3033 -0.2371 -0.6733
  182SLPC    HA20828   0.612   5.456  10.628  0.4526 -1.0344  1.1375
  182SLPC    HB20829   0.680   5.302  10.547 -0.4801 -1.2774 -1.0898
  182SLPC    C220830   0.517   5.395  10.449 -0.2513  0.0161  0.0901
  182SLPC    HS20831   0.590   5.454  10.389  1.1800  0.6831  2.3398
  182SLPC   O2120832   0.394   5.465  10.472  0.4322 -0.2137 -0.7970
  182SLPC   C2120833   0.350   5.532  10.371  0.1616 -0.5463  0.3963
  182SLPC   O2220834   0.416   5.563  10.271  0.3286 -0.3065  0.1583
  182SLPC   C2220835   0.202   5.573  10.397  0.1340  0.1511  0.1316
  182SLPC   H2R20836   0.147   5.507  10.467  0.6906  0.6210  1.0405
  182SLPC   H2S20837   0.202   5.667  10.456 -0.3221  0.7029 -0.7210
  182SLPC    C320838   0.496   5.258  10.370  0.4478  0.1429  0.3862
  182SLPC    HX20839   0.441   5.190  10.439 -1.6769  1.0439 -0.3115
  182SLPC    HY20840   0.600   5.226  10.352  0.7392  1.8260 -1.1657
  182SLPC   O3120841   0.418   5.275  10.242 -0.3706  0.0842 -0.3780
  182SLPC   C3120842   0.485   5.304  10.134  0.1425  0.1113 -0.1600
  182SLPC   O3220843   0.604   5.324  10.127 -0.4372  0.4493  0.3368
  182SLPC   C3220844   0.387   5.314  10.022  0.5458 -0.2516 -0.6251
  182SLPC   H2X20845   0.340   5.413  10.039 -2.7158 -2.0420  1.7693
  182SLPC   H2Y20846   0.307   5.238  10.033  2.6941 -2.4261  1.2585
  182SLPC   C2320847   0.119   5.603  10.276  0.3306  0.1275  1.0400
  182SLPC   H3R20848   0.190   5.645  10.201 -0.9173 -2.9471 -2.1986
  182SLPC   H3S20849   0.040   5.678  10.297  0.4150  0.2232  1.0181
  182SLPC   C2420850   0.046   5.478  10.226 -0.9087  0.2942  0.7749
  182SLPC   H4R20851   0.005   5.434  10.319 -1.9129  0.7156  0.5397
  182SLPC   H4S20852   0.116   5.397  10.195  0.3703  0.2236  3.4982
  182SLPC   C2520853  -0.073   5.507  10.128  0.2204  0.1847  0.3825
  182SLPC   H5R20854  -0.154   5.565  10.178 -1.4909 -0.8499 -1.0633
  182SLPC   H5S20855  -0.123   5.416  10.088 -0.3697  0.5629  0.2478
  182SLPC   C2620856  -0.031   5.597  10.001  0.3529 -0.4732 -0.5905
  182SLPC   H6R20857   0.003   5.691  10.051 -0.3757  0.5536 -1.9575
  182SLPC   H6S20858  -0.106   5.615   9.921  1.0738  2.4605 -0.7373
  182SLPC   C2720859   0.086   5.537   9.924  0.0103 -0.5268  0.0408
  182SLPC   H7R20860   0.071   5.428   9.910  0.0983 -0.4560 -0.6518
  182SLPC   H7S20861   0.185   5.545   9.974  1.9522  0.6382 -3.6109
  182SLPC   C2820862   0.122   5.613   9.795  0.0445 -0.0882  0.7145
  182SLPC   H8R20863   0.049   5.572   9.722  0.3522 -1.1577  0.9879
  182SLPC   H8S20864   0.222   5.571   9.769 -0.6341 -0.7936 -0.9811
  182SLPC   C2920865   0.117   5.752   9.817  0.1210  0.0417 -0.7854
  182SLPC   H9R20866   0.172   5.786   9.906 -0.4876 -1.8627  0.3750
  182SLPC  C21020867   0.049   5.838   9.749  0.5288  0.8637  0.7282
  182SLPC  H10R20868   0.047   5.937   9.798 -2.2494  0.5567  1.4048
  182SLPC  C21120869  -0.033   5.807   9.628 -0.0442 -0.1368  0.7174
  182SLPC  H11R20870  -0.132   5.767   9.656 -0.1914 -0.5625 -0.3625
  182SLPC  H11S20871   0.014   5.725   9.570  0.5701 -0.4690  1.6571
  182SLPC  C21220872  -0.047   5.932   9.546  0.4626  0.8254  0.5609
  182SLPC  H12R20873  -0.070   6.022   9.604  2.3556  1.1165  0.8989
  182SLPC  C21320874  -0.046   5.933   9.410  0.5707 -0.3712  0.1787
  182SLPC  H13R20875  -0.049   6.035   9.368  2.0512 -0.7168 -0.8681
  182SLPC  C21420876  -0.023   5.813   9.326  0.4467 -0.1103 -0.5674
  182SLPC  H14R20877  -0.076   5.721   9.359  1.9248 -0.1052  2.1689
  182SLPC  H14S20878   0.087   5.796   9.331  0.2022 -1.6099  2.2285
  182SLPC  C21520879  -0.065   5.830   9.176  0.5848  0.0177  0.6977
  182SLPC  H15R20880  -0.036   5.742   9.114  1.6788  0.6086  0.3389
  182SLPC  H15S20881   0.004   5.907   9.135  0.3102 -0.8677 -1.5385
  182SLPC  C21620882  -0.214   5.856   9.155 -0.2464  0.5314  0.0206
  182SLPC  H16R20883  -0.246   5.955   9.195  0.3379  1.4467 -1.6512
  182SLPC  H16S20884  -0.276   5.779   9.206 -1.3396 -0.6421 -2.8515
  182SLPC  C21720885  -0.252   5.844   9.008 -0.0639 -0.4325 -0.0663
  182SLPC  H17R20886  -0.229   5.742   8.969 -1.1427 -0.1998 -1.3968
  182SLPC  H17S20887  -0.194   5.915   8.945 -4.1128  1.3182 -2.1845
  182SLPC  C21820888  -0.398   5.874   8.994  0.3653 -0.0953 -0.0960
  182SLPC  H18R20889  -0.427   5.850   8.890  1.7145  0.0771 -0.5318
  182SLPC  H18S20890  -0.430   5.979   9.010 -1.1904 -0.6315  0.5479
  182SLPC  H18T20891  -0.466   5.816   9.060  0.9345 -1.3138 -0.5514
  182SLPC   C3320892   0.448   5.300   9.886  0.2321  0.4582  0.5931
  182SLPC   H3X20893   0.501   5.205   9.867 -2.1395 -0.5724 -1.4836
  182SLPC   H3Y20894   0.518   5.386   9.879  1.1479 -0.1476  1.8642
  182SLPC   C3420895   0.343   5.305   9.777 -0.1044  0.1223 -0.8691
  182SLPC   H4X20896   0.378   5.379   9.702  0.1258 -0.8003 -1.6910
  182SLPC   H4Y20897   0.254   5.353   9.823 -0.3551  1.6378 -2.8586
  182SLPC   C3520898   0.322   5.172   9.715 -0.3183  0.2104  0.9847
  182SLPC   H5X20899   0.288   5.100   9.793  0.3658  1.4534  2.4895
  182SLPC   H5Y20900   0.414   5.129   9.671 -1.8132 -1.4985 -0.6342
  182SLPC   C3620901   0.221   5.163   9.598  0.4643  0.1693 -0.8122
  182SLPC   H6X20902   0.130   5.221   9.626  0.1908 -1.2468  1.4056
  182SLPC   H6Y20903   0.203   5.056   9.574  0.8385 -0.0869  0.0231
  182SLPC   C3720904   0.299   5.226   9.470  0.8034  0.2771 -0.7681
  182SLPC   H7X20905   0.396   5.177   9.447  0.0027 -0.4959 -2.7529
  182SLPC   H7Y20906   0.319   5.334   9.483 -3.4547  1.4522 -2.2831
  182SLPC   C3820907   0.201   5.213   9.349 -0.1177 -0.1900 -0.2348
  182SLPC   H8X20908   0.098   5.248   9.374 -1.0763 -2.5101 -0.6661
  182SLPC   H8Y20909   0.190   5.103   9.339  1.5835 -0.2906 -1.3904
  182SLPC   C3920910   0.223   5.283   9.218  0.0768 -0.0353  0.0545
  182SLPC   H9X20911   0.318   5.270   9.162 -0.4415  3.4116 -1.9227
  182SLPC   H9Y20912   0.207   5.390   9.245  0.2763 -0.3560  1.5302
  182SLPC  C31020913   0.117   5.246   9.112 -0.5683  1.0526  0.2986
  182SLPC  H10X20914   0.016   5.247   9.158 -0.1052  1.1669  1.3292
  182SLPC  H10Y20915   0.131   5.139   9.084  4.8358  1.3671  0.7555
  182SLPC  C31120916   0.140   5.312   8.978 -0.4205  0.8491  0.6413
  182SLPC  H11X20917   0.249   5.311   8.959 -0.6932 -0.1768 -1.0878
  182SLPC  H11Y20918   0.101   5.413   9.004  0.2557  0.9318  1.3554
  182SLPC  C31220919   0.054   5.251   8.866 -0.5840 -0.6201  0.1873
  182SLPC  H12X20920  -0.053   5.263   8.894 -0.6242  0.4939 -0.4064
  182SLPC  H12Y20921   0.081   5.143   8.863  1.2451 -0.1971 -0.0281
  182SLPC  C31320922   0.074   5.306   8.721 -0.0655  0.2994 -0.4835
  182SLPC  H13X20923   0.181   5.292   8.691 -0.2130 -0.0977 -0.8429
  182SLPC  H13Y20924   0.049   5.414   8.724  0.0872  0.3073  2.0806
  182SLPC  C31420925  -0.010   5.233   8.613 -0.1632 -0.3961 -1.1076
  182SLPC  H14X20926  -0.114   5.215   8.645 -0.0063  1.5886  0.6938
  182SLPC  H14Y20927   0.033   5.132   8.596  2.6065  0.3626  0.7555
  182SLPC  C31520928  -0.003   5.310   8.481  0.6043  0.2914  0.3368
  182SLPC  H15X20929   0.101   5.337   8.451  0.4557  0.9836  0.4281
  182SLPC  H15Y20930  -0.052   5.409   8.491 -0.3790 -0.1084 -0.4183
  182SLPC  C31620931  -0.056   5.223   8.362 -0.9379  0.4925 -0.0580
  182SLPC  H16X20932   0.003   5.132   8.340  0.3479  1.5100 -1.0487
  182SLPC  H16Y20933  -0.062   5.289   8.272  2.4390 -0.8039 -1.4141
  182SLPC  C31720934  -0.203   5.181   8.386 -0.8113  0.3801 -0.0194
  182SLPC  H17X20935  -0.252   5.279   8.401  1.3815  1.9183 -2.1121
  182SLPC  H17Y20936  -0.206   5.126   8.483  1.9891 -1.5144 -0.8871
  182SLPC  C31820937  -0.260   5.101   8.266 -0.2057 -0.6254  0.5212
  182SLPC  H18X20938  -0.214   5.001   8.249  3.0419  0.9703 -0.9876
  182SLPC  H18Y20939  -0.245   5.160   8.174  0.1199  1.2984  1.7612
  182SLPC  H18Z20940  -0.369   5.083   8.276 -0.9135  1.4242 -2.2205
  183SLPC     N20941   2.818   6.686  10.995  0.2983  0.3927  0.1030
  183SLPC   C1320942   2.849   6.828  10.987 -0.2624  0.6228  0.7932
  183SLPC  H13A20943   2.766   6.882  10.944 -0.6125  0.9170  1.8088
  183SLPC  H13B20944   2.863   6.864  11.088  2.0404  0.9076  0.4235
  183SLPC  H13C20945   2.942   6.833  10.933  0.1613 -2.2159  1.1109
  183SLPC   C1420946   2.817   6.626  10.849  0.2414 -0.8663 -0.5321
  183SLPC  H14A20947   2.758   6.695  10.791  2.8441  2.1298  0.0688
  183SLPC  H14B20948   2.918   6.619  10.810 -0.3717 -2.0472 -2.0194
  183SLPC  H14C20949   2.767   6.530  10.841  0.9310 -1.1664 -1.5188
  183SLPC   C1520950   2.679   6.675  11.051  0.2099  0.4197 -0.3340
  183SLPC  H15A20951   2.649   6.573  11.064 -1.2894  0.9057  0.2213
  183SLPC  H15B20952   2.664   6.745  11.132  2.5304  1.7142 -0.9317
  183SLPC  H15C20953   2.607   6.711  10.979 -0.8240 -1.2499 -0.1816
  183SLPC   C1220954   2.921   6.605  11.073  0.5159 -0.3574  0.3039
  183SLPC  H12A20955   2.888   6.502  11.081 -0.3165 -0.0792  0.6618
  183SLPC  H12B20956   2.919   6.634  11.177  2.1834 -0.7250  0.4592
  183SLPC   C1120957   3.072   6.613  11.028  0.1035 -0.0750  0.8100
  183SLPC  H11A20958   3.124   6.553  11.105  2.2922  0.4421 -0.1814
  183SLPC  H11B20959   3.100   6.720  11.040 -0.7335  0.0602  1.6079
  183SLPC     P20960   3.244   6.579  10.846  0.1104 -0.0049  0.1175
  183SLPC   O1320961   3.294   6.723  10.826  0.1652 -0.0849 -0.3473
  183SLPC   O1420962   3.323   6.488  10.931 -0.1751 -0.9125 -0.5173
  183SLPC   O1220963   3.091   6.566  10.888  0.4213  0.0990 -0.4687
  183SLPC   O1120964   3.241   6.499  10.706 -0.3021  0.0262 -0.5229
  183SLPC    C120965   3.125   6.486  10.626  0.4426  0.3585 -0.4626
  183SLPC    HA20966   3.080   6.385  10.634  0.2856  0.1861 -2.7290
  183SLPC    HB20967   3.037   6.546  10.654 -0.3587 -1.7857  1.9851
  183SLPC    C220968   3.155   6.514  10.477 -0.7453 -0.1431  0.3523
  183SLPC    HS20969   3.231   6.442  10.439 -0.6821  0.5813 -0.9486
  183SLPC   O2120970   3.205   6.649  10.474  0.2995 -0.2682 -0.0939
  183SLPC   C2120971   3.332   6.662  10.445 -0.2566 -0.3346 -0.3861
  183SLPC   O2220972   3.404   6.575  10.396 -0.1991 -0.0706  0.2507
  183SLPC   C2220973   3.374   6.807  10.476 -0.2463 -0.6940 -0.4098
  183SLPC   H2R20974   3.288   6.877  10.479 -1.3360 -2.0370  0.7522
  183SLPC   H2S20975   3.417   6.801  10.578 -0.7784  0.4627 -0.1018
  183SLPC    C320976   3.036   6.508  10.379  0.1421 -0.1966 -0.4345
  183SLPC    HX20977   2.974   6.596  10.405 -1.3140 -1.0654 -0.9079
  183SLPC    HY20978   2.973   6.418  10.387 -1.0516  0.4312 -2.2364
  183SLPC   O3120979   3.084   6.501  10.250  0.6126 -0.2242  1.2364
  183SLPC   C3120980   3.096   6.617  10.183 -0.0348  0.4151 -1.1341
  183SLPC   O3220981   3.080   6.729  10.224  0.3914 -0.0530 -0.4528
  183SLPC   C3220982   3.163   6.589  10.053  0.4557 -0.0224  0.3943
  183SLPC   H2X20983   3.140   6.488  10.013  0.4686  0.2794 -0.3991
  183SLPC   H2Y20984   3.270   6.619  10.060 -0.1144  2.6281 -0.7808
  183SLPC   C2320985   3.479   6.871  10.380  0.4958 -0.0312 -0.6658
  183SLPC   H3R20986   3.567   6.804  10.366 -0.9330 -1.9273 -0.8963
  183SLPC   H3S20987   3.522   6.969  10.410 -1.6211  0.7294  0.0883
  183SLPC   C2420988   3.412   6.892  10.236  0.0542  0.1543 -0.8988
  183SLPC   H4R20989   3.329   6.963  10.257  1.7756  1.5561  1.7837
  183SLPC   H4S20990   3.381   6.798  10.187  0.6879 -2.3733  3.1053
  183SLPC   C2520991   3.507   6.971  10.147  0.1671 -0.2233 -0.4492
  183SLPC   H5R20992   3.586   6.900  10.114  1.3788  0.6933  0.4205
  183SLPC   H5S20993   3.562   7.046  10.207  0.0659 -0.2447 -0.3286
  183SLPC   C2620994   3.429   7.034  10.037 -0.2315 -0.0758  0.0819
  183SLPC   H6R20995   3.329   7.061  10.078 -0.0225 -1.4743  1.6294
  183SLPC   H6S20996   3.403   6.970   9.950  0.0547  0.9380 -0.7596
  183SLPC   C2720997   3.476   7.169   9.988 -0.2806 -0.2341  0.2575
  183SLPC   H7R20998   3.562   7.160   9.919  2.2463  1.1335  3.0062
  183SLPC   H7S20999   3.504   7.241  10.068  2.2800  0.2325 -0.9559
  183SLPC   C2821000   3.366   7.242   9.908 -0.2281  0.1720  0.2036
  183SLPC   H8R21001   3.336   7.168   9.831  0.3899  1.3862 -1.2814
  183SLPC   H8S21002   3.400   7.329   9.846  1.4454  0.0047  0.8474
  183SLPC   C2921003   3.258   7.306   9.991 -0.1428  0.2252  0.2541
  183SLPC   H9R21004   3.294   7.381  10.063 -0.4020 -0.5261  1.1905
  183SLPC  C21021005   3.129   7.282   9.997 -0.7358 -1.1154  0.2905
  183SLPC  H10R21006   3.073   7.332  10.077 -0.4505 -0.6163  0.1884
  183SLPC  C21121007   3.063   7.175   9.913  0.2401  0.1872 -0.4804
  183SLPC  H11R21008   3.075   7.074   9.957 -0.2802  0.0871 -0.5593
  183SLPC  H11S21009   3.099   7.162   9.809 -1.6814 -1.2166 -1.0359
  183SLPC  C21221010   2.911   7.198   9.915 -0.4505 -0.1534 -0.1067
  183SLPC  H12R21011   2.860   7.183  10.011 -0.2914 -0.4671 -0.0683
  183SLPC  C21321012   2.833   7.244   9.814  0.3240 -0.6331 -0.3838
  183SLPC  H13R21013   2.725   7.262   9.828  0.5167 -0.3414  0.8413
  183SLPC  C21421014   2.878   7.279   9.672 -0.3244  0.5825 -0.2063
  183SLPC  H14R21015   2.989   7.273   9.665  0.0754 -3.0393  4.2943
  183SLPC  H14S21016   2.855   7.386   9.654 -0.1725  0.6803  0.1607
  183SLPC  C21521017   2.836   7.182   9.565  0.1824 -0.0638  0.1563
  183SLPC  H15R21018   2.726   7.164   9.561  0.0410  0.4844  1.1692
  183SLPC  H15S21019   2.880   7.081   9.577  1.2246  0.4933  1.2729
  183SLPC  C21621020   2.888   7.225   9.428 -0.0159 -0.5251 -0.2811
  183SLPC  H16R21021   2.998   7.212   9.423  0.0219 -0.4285  0.2685
  183SLPC  H16S21022   2.870   7.331   9.401 -1.0413 -1.0768 -1.9282
  183SLPC  C21721023   2.813   7.150   9.321  0.4513 -0.6720 -0.1935
  183SLPC  H17R21024   2.710   7.183   9.293  0.8389  1.6098  0.9114
  183SLPC  H17S21025   2.809   7.046   9.362  2.3546 -0.3775  0.8320
  183SLPC  C21821026   2.873   7.141   9.186 -0.2400 -0.0785  0.1742
  183SLPC  H18R21027   2.845   7.233   9.129 -1.2593 -0.6171 -0.2284
  183SLPC  H18S21028   2.834   7.050   9.136  1.8416 -0.7690 -0.2697
  183SLPC  H18T21029   2.983   7.133   9.192 -0.0212  1.3829 -1.0664
  183SLPC   C3321030   3.126   6.689   9.942  0.7589  0.2220 -0.9351
  183SLPC   H3X21031   3.137   6.791   9.984  0.8391  0.6703 -2.0195
  183SLPC   H3Y21032   3.020   6.677   9.911  1.0476  0.4392 -2.0467
  183SLPC   C3421033   3.210   6.678   9.817  0.0094 -0.9262  0.7051
  183SLPC   H4X21034   3.235   6.577   9.779  3.3451  0.5967 -1.6009
  183SLPC   H4Y21035   3.316   6.703   9.839 -0.0046  0.8611 -0.9970
  183SLPC   C3521036   3.158   6.763   9.702  0.4377  0.4928 -0.6212
  183SLPC   H5X21037   3.140   6.867   9.737 -0.0117  0.2207 -0.0238
  183SLPC   H5Y21038   3.055   6.738   9.670 -0.0833  1.3700  0.3385
  183SLPC   C3621039   3.244   6.775   9.576 -0.2517  0.5891  0.0052
  183SLPC   H6X21040   3.213   6.688   9.516  0.7630 -1.1838  1.9146
  183SLPC   H6Y21041   3.354   6.790   9.587 -0.3369  0.3935  1.2708
  183SLPC   C3721042   3.199   6.899   9.497  0.3388  0.3394  0.3390
  183SLPC   H7X21043   3.232   6.994   9.544  0.0218  0.4184  0.4024
  183SLPC   H7Y21044   3.089   6.904   9.488  0.5181  1.4587 -2.0267
  183SLPC   C3821045   3.258   6.902   9.354 -0.3107  0.5688  0.6542
  183SLPC   H8X21046   3.366   6.883   9.338 -0.7172 -0.7788 -0.7064
  183SLPC   H8Y21047   3.244   7.004   9.312  1.1139  0.5094 -0.0458
  183SLPC   C3921048   3.175   6.814   9.251  0.1387  0.2391 -0.3952
  183SLPC   H9X21049   3.072   6.853   9.266 -0.3225 -1.1390  0.2682
  183SLPC   H9Y21050   3.188   6.704   9.264 -2.4406  0.0926  1.8240
  183SLPC  C31021051   3.227   6.837   9.108  0.3755 -1.0164  0.0189
  183SLPC  H10X21052   3.334   6.809   9.109  0.2627 -1.5456 -1.1097
  183SLPC  H10Y21053   3.223   6.944   9.077  0.6003 -0.6479  1.2230
  183SLPC  C31121054   3.152   6.749   8.998  0.0603 -0.1319  0.1475
  183SLPC  H11X21055   3.112   6.655   9.043 -2.0934  0.4048 -0.5602
  183SLPC  H11Y21056   3.216   6.729   8.910  0.2335 -0.9661  0.4553
  183SLPC  C31221057   3.031   6.825   8.940 -0.9399 -0.2411 -0.0679
  183SLPC  H12X21058   3.064   6.919   8.890 -0.2807 -0.2537  0.3415
  183SLPC  H12Y21059   2.960   6.863   9.016 -0.6313  2.3324 -0.9607
  183SLPC  C31321060   2.944   6.750   8.838 -0.4831  0.3638 -0.4861
  183SLPC  H13X21061   2.927   6.647   8.874  0.3957  0.1297 -0.7082
  183SLPC  H13Y21062   3.004   6.744   8.745 -1.4233 -1.8008 -1.0064
  183SLPC  C31421063   2.816   6.827   8.811 -0.5176 -0.1657  0.1147
  183SLPC  H14X21064   2.828   6.927   8.764  1.3217 -0.2494  0.3380
  183SLPC  H14Y21065   2.763   6.854   8.905  0.7180  1.9989  0.2451
  183SLPC  C31521066   2.716   6.741   8.726  0.5238  0.3136  0.1237
  183SLPC  H15X21067   2.776   6.716   8.636  0.1647  0.2030 -0.0874
  183SLPC  H15Y21068   2.625   6.799   8.701 -2.0827 -3.8453 -1.1395
  183SLPC  C31621069   2.670   6.603   8.781 -0.5726 -0.4424 -0.6174
  183SLPC  H16X21070   2.656   6.606   8.891 -0.3565 -0.7923 -0.5736
  183SLPC  H16Y21071   2.755   6.532   8.771  1.1948  1.5866 -0.7113
  183SLPC  C31721072   2.541   6.546   8.712 -0.1914  0.1219 -0.1968
  183SLPC  H17X21073   2.453   6.614   8.712 -0.9483 -0.7216 -3.1425
  183SLPC  H17Y21074   2.503   6.458   8.770 -0.0474  0.0560 -0.2015
  183SLPC  C31821075   2.571   6.500   8.569 -0.0408 -0.3582 -0.4364
  183SLPC  H18X21076   2.619   6.577   8.505  0.4136 -0.3284 -0.0596
  183SLPC  H18Y21077   2.474   6.475   8.521 -1.4636  1.6024  1.2492
  183SLPC  H18Z21078   2.633   6.408   8.573  2.6117  1.3402  0.0507
  184SLPC     N21079   5.993   3.670  10.942  0.5935 -0.1474  0.3850
  184SLPC   C1321080   6.083   3.597  11.035 -0.2849 -0.3363 -0.3857
  184SLPC  H13A21081   6.166   3.666  11.047 -0.2170 -0.8159  2.5093
  184SLPC  H13B21082   6.041   3.567  11.130 -2.0694  2.8476 -0.0345
  184SLPC  H13C21083   6.122   3.510  10.984  0.8478 -0.5553  0.7925
  184SLPC   C1421084   5.945   3.794  11.003 -0.0892  0.0086 -0.4846
  184SLPC  H14A21085   5.882   3.771  11.087 -1.5580  3.3709 -0.4855
  184SLPC  H14B21086   6.022   3.861  11.039  0.8303 -1.8218  1.1496
  184SLPC  H14C21087   5.878   3.854  10.943  0.1019 -0.2818 -0.9994
  184SLPC   C1521088   5.878   3.579  10.910 -0.0589 -0.1205  0.6755
  184SLPC  H15A21089   5.812   3.631  10.842 -1.3904 -0.9340  1.3165
  184SLPC  H15B21090   5.918   3.501  10.847  1.9832  1.3534  0.0134
  184SLPC  H15C21091   5.817   3.545  10.992 -0.4841 -3.4429 -0.8698
  184SLPC   C1221092   6.086   3.692  10.817  0.5793 -0.1422 -0.1480
  184SLPC  H12A21093   6.160   3.766  10.841  0.3523 -0.5770  2.1751
  184SLPC  H12B21094   6.024   3.739  10.742 -0.7663  0.5303  1.3328
  184SLPC   C1121095   6.155   3.571  10.748 -0.0912 -0.3591 -0.4159
  184SLPC  H11A21096   6.221   3.499  10.801  1.0431  1.5277  0.8998
  184SLPC  H11B21097   6.230   3.608  10.674 -0.2281  0.2721 -0.2480
  184SLPC     P21098   5.996   3.531  10.541 -0.2562 -0.0813 -0.0097
  184SLPC   O1321099   5.936   3.416  10.472  0.2041 -0.2391 -0.1537
  184SLPC   O1421100   5.904   3.650  10.558 -0.6975  0.3561 -0.0913
  184SLPC   O1221101   6.054   3.490  10.681 -0.0355 -0.0208  0.0123
  184SLPC   O1121102   6.128   3.579  10.459  0.2438 -0.2380  0.4058
  184SLPC    C121103   6.242   3.498  10.440 -0.4928 -0.1871 -0.4378
  184SLPC    HA21104   6.334   3.547  10.480 -1.8535 -1.2386  4.6449
  184SLPC    HB21105   6.238   3.409  10.507 -0.4514 -1.0638 -1.5702
  184SLPC    C221106   6.256   3.441  10.301 -0.3714  0.5670 -0.3955
  184SLPC    HS21107   6.343   3.372  10.309  0.5907  1.0784 -4.4058
  184SLPC   O2121108   6.271   3.551  10.209  0.5458  0.0680  0.9032
  184SLPC   C2121109   6.351   3.505  10.109  0.3970  0.4102 -0.2409
  184SLPC   O2221110   6.407   3.396  10.108 -0.2505 -0.4966  0.0182
  184SLPC   C2221111   6.374   3.601   9.993  0.3098  0.0648  0.2400
  184SLPC   H2R21112   6.305   3.686  10.008 -0.7953 -0.6736 -0.5337
  184SLPC   H2S21113   6.477   3.643   9.993  0.6370 -0.7097  0.2995
  184SLPC    C321114   6.132   3.366  10.252 -0.0565  0.7708  0.0680
  184SLPC    HX21115   6.042   3.432  10.248 -1.4758 -1.0848  0.4473
  184SLPC    HY21116   6.113   3.296  10.335  2.0256  0.9425  0.7465
  184SLPC   O3121117   6.137   3.297  10.126  0.4734  0.3491  0.8409
  184SLPC   C3121118   6.171   3.166  10.121  0.7992  0.2844  0.0987
  184SLPC   O3221119   6.204   3.099  10.212 -0.5880  0.5953  0.7001
  184SLPC   C3221120   6.159   3.115   9.975  0.0276 -0.2674 -0.3193
  184SLPC   H2X21121   6.203   3.014   9.969  0.0070 -0.2455 -0.9173
  184SLPC   H2Y21122   6.226   3.183   9.918 -0.9598  0.3276 -0.8120
  184SLPC   C2321123   6.328   3.537   9.861 -0.3213  0.3227  0.3777
  184SLPC   H3R21124   6.230   3.486   9.870  1.1273 -2.7322  0.1413
  184SLPC   H3S21125   6.395   3.453   9.833  0.3311  1.3159 -1.1742
  184SLPC   C2421126   6.324   3.634   9.739 -0.3241 -0.6272 -0.3841
  184SLPC   H4R21127   6.404   3.708   9.718 -1.4499  0.5509 -0.7388
  184SLPC   H4S21128   6.245   3.709   9.764  0.9045  0.7616 -0.5614
  184SLPC   C2521129   6.272   3.557   9.617 -0.6681  0.2585  0.2887
  184SLPC   H5R21130   6.176   3.507   9.644 -1.6464  0.5202 -2.3751
  184SLPC   H5S21131   6.352   3.484   9.595 -0.2639  0.7713  0.0243
  184SLPC   C2621132   6.258   3.635   9.484 -0.5998 -0.4557  0.9838
  184SLPC   H6R21133   6.198   3.728   9.499  1.7898  1.0765  1.5437
  184SLPC   H6S21134   6.201   3.566   9.418  0.3335 -2.0384  1.7688
  184SLPC   C2721135   6.395   3.665   9.414 -0.6003  1.0077 -0.0583
  184SLPC   H7R21136   6.461   3.577   9.402 -0.7119  1.0558 -1.1706
  184SLPC   H7S21137   6.456   3.743   9.465  1.7916 -0.4537 -0.5470
  184SLPC   C2821138   6.378   3.718   9.275 -0.0730  0.4247  0.2827
  184SLPC   H8R21139   6.479   3.754   9.244 -0.3902  0.6680 -0.4947
  184SLPC   H8S21140   6.313   3.807   9.271  0.6960  0.9728 -2.3691
  184SLPC   C2921141   6.321   3.616   9.182 -0.5935  0.8943 -0.0132
  184SLPC   H9R21142   6.228   3.564   9.208 -0.7612  0.8419 -0.7099
  184SLPC  C21021143   6.384   3.571   9.069  0.3078 -0.1260  0.2369
  184SLPC  H10R21144   6.340   3.491   9.007  0.1625  0.3502 -0.2861
  184SLPC  C21121145   6.514   3.624   9.011 -0.0578  0.3805  0.0309
  184SLPC  H11R21146   6.528   3.730   9.040 -0.9784  0.3935  0.4657
  184SLPC  H11S21147   6.487   3.630   8.903  0.1769  2.8070  0.0567
  184SLPC  C21221148   6.629   3.536   9.048  0.0383  0.4290  0.5537
  184SLPC  H12R21149   6.683   3.549   9.143  4.8696  0.8093 -1.9280
  184SLPC  C21321150   6.659   3.432   8.969 -0.2580  0.0593  0.1968
  184SLPC  H13R21151   6.752   3.386   9.008  0.1788  1.0513  0.3487
  184SLPC  C21421152   6.592   3.379   8.845 -0.9416 -0.6491  0.2341
  184SLPC  H14R21153   6.576   3.456   8.767 -0.2569 -2.0802 -1.3895
  184SLPC  H14S21154   6.493   3.334   8.870 -0.6155 -1.4717  0.0916
  184SLPC  C21521155   6.689   3.277   8.779 -0.0146  0.7828  0.3523
  184SLPC  H15R21156   6.703   3.184   8.838  1.7913  0.4873 -0.4791
  184SLPC  H15S21157   6.792   3.315   8.760  1.4288 -3.2815 -0.8964
  184SLPC  C21621158   6.638   3.232   8.638 -0.9607 -0.3375 -0.5635
  184SLPC  H16R21159   6.698   3.148   8.598 -2.2326 -1.3772 -0.3443
  184SLPC  H16S21160   6.651   3.311   8.561 -0.1386 -1.2895 -1.4333
  184SLPC  C21721161   6.491   3.178   8.640  0.3410 -0.3282  0.5320
  184SLPC  H17R21162   6.448   3.167   8.538 -2.0699  0.8191  1.3363
  184SLPC  H17S21163   6.416   3.249   8.681  0.8976  1.0340 -0.7487
  184SLPC  C21821164   6.486   3.051   8.722 -0.5220 -0.1252  0.5992
  184SLPC  H18R21165   6.547   2.968   8.680 -1.5577 -0.6987  0.1872
  184SLPC  H18S21166   6.382   3.012   8.721 -2.4515  4.4104  1.1661
  184SLPC  H18T21167   6.514   3.079   8.826  2.0029  2.5368 -0.6754
  184SLPC   C3321168   6.022   3.131   9.907 -0.0343 -0.0493 -0.1001
  184SLPC   H3X21169   6.009   3.241   9.894  1.5551  0.2266  0.5186
  184SLPC   H3Y21170   5.944   3.087   9.973  1.5004  0.1149  1.9207
  184SLPC   C3421171   6.017   3.048   9.775  0.3377  0.0080  0.5984
  184SLPC   H4X21172   6.026   2.939   9.791  1.8932 -0.5027 -2.9017
  184SLPC   H4Y21173   6.099   3.067   9.703 -0.6489 -1.0535 -0.8611
  184SLPC   C3521174   5.888   3.059   9.692  0.4601  0.0538  0.4863
  184SLPC   H5X21175   5.801   3.053   9.760  0.2992 -0.3741  0.2480
  184SLPC   H5Y21176   5.888   2.977   9.616 -0.5877  2.1357 -1.9059
  184SLPC   C3621177   5.888   3.194   9.624  0.5717  0.4241 -0.0244
  184SLPC   H6X21178   5.971   3.212   9.551 -0.2295  0.9077 -0.8471
  184SLPC   H6Y21179   5.885   3.278   9.697 -0.5697  2.2710 -2.0553
  184SLPC   C3721180   5.756   3.217   9.548 -0.3833  0.3351  0.8514
  184SLPC   H7X21181   5.664   3.195   9.606 -0.4478 -0.1100  0.5780
  184SLPC   H7Y21182   5.766   3.150   9.460  5.0615  0.3155  1.1448
  184SLPC   C3821183   5.739   3.356   9.480 -1.0490 -0.2220 -0.4585
  184SLPC   H8X21184   5.836   3.377   9.430  0.7120 -1.2998  2.2303
  184SLPC   H8Y21185   5.741   3.423   9.568  1.5128 -2.9175  1.7637
  184SLPC   C3921186   5.615   3.379   9.396  0.3166  0.4803  0.2861
  184SLPC   H9X21187   5.536   3.335   9.461 -1.7732 -0.1799 -2.5440
  184SLPC   H9Y21188   5.621   3.319   9.304 -0.9273  0.0278  0.4819
  184SLPC  C31021189   5.584   3.525   9.370  0.1735  0.5463  0.1841
  184SLPC  H10X21190   5.663   3.561   9.300  0.7452  0.9159  1.0077
  184SLPC  H10Y21191   5.600   3.587   9.460 -1.5796  1.8510 -0.3430
  184SLPC  C31121192   5.442   3.565   9.318 -0.3622 -0.3162 -0.4559
  184SLPC  H11X21193   5.441   3.676   9.313 -0.8589 -0.3308 -0.7155
  184SLPC  H11Y21194   5.375   3.522   9.395 -0.8897 -0.6183 -1.0756
  184SLPC  C31221195   5.391   3.498   9.185 -0.0706 -0.4401  0.7796
  184SLPC  H12X21196   5.287   3.527   9.159  0.3524  0.0942 -0.4195
  184SLPC  H12Y21197   5.396   3.388   9.197  1.9797 -0.4178  0.6193
  184SLPC  C31321198   5.479   3.547   9.062  0.1465 -0.5109  0.4164
  184SLPC  H13X21199   5.584   3.525   9.093  0.0918 -1.0541  0.2317
  184SLPC  H13Y21200   5.467   3.656   9.049 -1.7378 -0.9102 -1.9102
  184SLPC  C31421201   5.441   3.469   8.939  0.2293  0.4066 -0.4588
  184SLPC  H14X21202   5.361   3.526   8.888 -1.2075 -0.4416  0.7809
  184SLPC  H14Y21203   5.396   3.373   8.974  1.1708  0.2020  0.2393
  184SLPC  C31521204   5.554   3.454   8.835 -0.3006 -0.5585  1.1004
  184SLPC  H15X21205   5.641   3.411   8.890  0.1108 -1.6953 -0.3460
  184SLPC  H15Y21206   5.577   3.549   8.782 -0.5833 -0.6531  0.8038
  184SLPC  C31621207   5.513   3.358   8.721  0.2065  0.7499  0.3511
  184SLPC  H16X21208   5.413   3.382   8.679  0.2385 -1.0089 -0.8673
  184SLPC  H16Y21209   5.508   3.254   8.761 -0.4606  0.5678 -0.1778
  184SLPC  C31721210   5.619   3.349   8.603  0.5947 -0.6121  0.5263
  184SLPC  H17X21211   5.718   3.335   8.651 -0.0316  2.0533  2.8716
  184SLPC  H17Y21212   5.614   3.449   8.556 -0.4225 -0.3808  1.0756
  184SLPC  C31821213   5.594   3.251   8.487 -0.1845  0.3672 -0.1141
  184SLPC  H18X21214   5.557   3.153   8.525  1.5556  0.0105  0.7550
  184SLPC  H18Y21215   5.685   3.226   8.429  0.7049 -1.2928  1.8973
  184SLPC  H18Z21216   5.507   3.279   8.423 -0.8514 -0.2975  0.4780
  185SLPC     N21217   6.246   6.306   6.299 -0.8991 -0.0541  0.1848
  185SLPC   C1321218   6.116   6.342   6.235  0.0865 -0.3036 -0.1883
  185SLPC  H13A21219   6.126   6.401   6.144 -1.9364 -1.4892 -1.2663
  185SLPC  H13B21220   6.052   6.262   6.201  1.2622 -0.7676 -1.3708
  185SLPC  H13C21221   6.069   6.409   6.306  2.3158  0.8081  0.3157
  185SLPC   C1421222   6.338   6.259   6.192  0.4934  0.3500  0.4762
  185SLPC  H14A21223   6.367   6.338   6.124 -0.9545  1.1024  0.7124
  185SLPC  H14B21224   6.429   6.216   6.231  0.2641  1.4564  2.3312
  185SLPC  H14C21225   6.284   6.183   6.138  1.9890 -0.3403 -0.1320
  185SLPC   C1521226   6.222   6.192   6.400  0.2300 -0.5514 -0.5551
  185SLPC  H15A21227   6.161   6.240   6.475 -1.1925  0.5295 -2.3043
  185SLPC  H15B21228   6.186   6.105   6.348 -0.4045 -0.4205 -0.3446
  185SLPC  H15C21229   6.314   6.168   6.450 -0.3725 -0.0174  0.8538
  185SLPC   C1221230   6.310   6.418   6.376  0.1056 -0.9398  0.0489
  185SLPC  H12A21231   6.412   6.394   6.402  0.3802  0.5845  0.4605
  185SLPC  H12B21232   6.264   6.413   6.473  1.5920 -1.3169  0.7660
  185SLPC   C1121233   6.295   6.563   6.330 -0.4155 -0.3344 -0.3088
  185SLPC  H11A21234   6.322   6.625   6.418  0.1021 -0.9535 -0.0179
  185SLPC  H11B21235   6.192   6.589   6.299 -0.9846 -1.6889  0.3693
  185SLPC     P21236   6.542   6.580   6.244 -0.0962 -0.0203  0.2185
  185SLPC   O1321237   6.598   6.451   6.193 -0.4643 -0.6218  0.1477
  185SLPC   O1421238   6.603   6.706   6.191 -0.0501 -0.6630  0.1355
  185SLPC   O1221239   6.385   6.581   6.219  0.1328 -0.2317 -0.2948
  185SLPC   O1121240   6.560   6.579   6.399 -0.5065 -0.0421 -0.4001
  185SLPC    C121241   6.604   6.691   6.474  0.2691  0.6918 -0.5612
  185SLPC    HA21242   6.569   6.789   6.436  0.1672  1.0223  0.3491
  185SLPC    HB21243   6.552   6.694   6.573 -0.4577 -1.4609 -0.8228
  185SLPC    C221244   6.754   6.681   6.513  0.6461  0.4269  0.2182
  185SLPC    HS21245   6.808   6.673   6.416  1.8832  1.8869  0.7425
  185SLPC   O2121246   6.769   6.563   6.596 -0.0625 -0.3737 -0.3131
  185SLPC   C2121247   6.895   6.512   6.609  0.5168 -0.2265  0.1964
  185SLPC   O2221248   6.996   6.554   6.558  0.2767 -0.1177  0.6737
  185SLPC   C2221249   6.882   6.391   6.712 -0.1363 -0.3098  0.5739
  185SLPC   H2R21250   6.781   6.345   6.718 -0.3231 -0.0595 -0.5471
  185SLPC   H2S21251   6.951   6.314   6.672 -0.8935 -0.1585 -1.1154
  185SLPC    C321252   6.805   6.815   6.578  0.2360  0.3086  0.1199
  185SLPC    HX21253   6.828   6.884   6.494  0.1040  4.0215  2.8471
  185SLPC    HY21254   6.902   6.799   6.629 -0.2411 -1.7130  0.4496
  185SLPC   O3121255   6.708   6.868   6.671 -0.4029  0.5373 -0.2240
  185SLPC   C3121256   6.658   6.984   6.651 -0.0430  0.1778  0.0137
  185SLPC   O3221257   6.671   7.052   6.547 -0.4452 -0.6494 -0.0896
  185SLPC   C3221258   6.592   7.042   6.776  0.1119  0.4167  0.2561
  185SLPC   H2X21259   6.486   7.008   6.764  0.7025 -1.4260 -0.0167
  185SLPC   H2Y21260   6.596   7.153   6.770  0.0362  0.3938 -0.2652
  185SLPC   C2321261   6.934   6.425   6.848  0.1376 -0.7904  0.0200
  185SLPC   H3R21262   7.032   6.479   6.849 -1.4454  2.4076 -1.7722
  185SLPC   H3S21263   6.944   6.332   6.908 -0.5330 -0.4828  0.6212
  185SLPC   C2421264   6.843   6.517   6.917 -0.7285 -0.2707 -0.7931
  185SLPC   H4R21265   6.738   6.482   6.915 -0.8069 -0.0917 -0.1576
  185SLPC   H4S21266   6.824   6.609   6.857 -4.3298 -0.7346 -0.5936
  185SLPC   C2521267   6.875   6.562   7.060 -0.6419  0.4763  0.2573
  185SLPC   H5R21268   6.972   6.616   7.061  0.1197 -0.8428 -0.1161
  185SLPC   H5S21269   6.878   6.468   7.119  0.1157 -0.5505 -1.3542
  185SLPC   C2621270   6.764   6.654   7.116  0.4095 -0.6954 -1.1085
  185SLPC   H6R21271   6.664   6.606   7.109  0.3014 -0.7019  0.2510
  185SLPC   H6S21272   6.754   6.752   7.066 -0.5529 -0.8938 -1.3192
  185SLPC   C2721273   6.784   6.688   7.270 -0.0316  0.2508  0.6189
  185SLPC   H7R21274   6.750   6.595   7.321  1.5853 -1.4292 -1.1618
  185SLPC   H7S21275   6.711   6.769   7.289 -0.7379 -0.2171 -0.0208
  185SLPC   C2821276   6.924   6.717   7.325 -0.5660  1.2645  0.4811
  185SLPC   H8R21277   7.001   6.642   7.295 -1.3822  1.4694 -2.3771
  185SLPC   H8S21278   6.907   6.720   7.435 -1.0983  1.4736  0.3950
  185SLPC   C2921279   6.984   6.843   7.289 -0.3495 -0.6452 -0.0358
  185SLPC   H9R21280   6.954   6.894   7.196 -4.0267  0.7498  1.6997
  185SLPC  C21021281   7.065   6.912   7.366 -0.7501  0.6788 -0.2189
  185SLPC  H10R21282   7.108   7.010   7.340  0.1763  0.5889  0.8745
  185SLPC  C21121283   7.118   6.882   7.506 -0.1346 -0.9426 -0.3372
  185SLPC  H11R21284   7.215   6.934   7.519 -0.0308 -1.4699  1.2139
  185SLPC  H11S21285   7.138   6.776   7.531  1.6919 -0.1522  1.8607
  185SLPC  C21221286   7.017   6.930   7.612  0.4085  0.2204  0.3096
  185SLPC  H12R21287   6.920   6.964   7.573  1.0713  1.3712 -0.3779
  185SLPC  C21321288   7.040   6.941   7.741 -0.1507  0.0386 -0.1622
  185SLPC  H13R21289   6.958   6.967   7.810 -0.3094 -1.2493  0.1433
  185SLPC  C21421290   7.158   6.889   7.818  1.3302 -0.2355  0.2850
  185SLPC  H14R21291   7.185   6.972   7.887 -2.0544  1.2824 -0.0120
  185SLPC  H14S21292   7.242   6.865   7.749  0.3559  2.3817 -2.0081
  185SLPC  C21521293   7.129   6.760   7.903 -0.1268 -0.0174 -0.2936
  185SLPC  H15R21294   7.229   6.736   7.945  1.3513  4.5718 -0.6319
  185SLPC  H15S21295   7.096   6.679   7.835  2.8080  0.0397 -1.9203
  185SLPC  C21621296   7.027   6.779   8.022  0.5205 -0.1746 -0.3484
  185SLPC  H16R21297   6.925   6.802   7.984  0.4972 -0.0466 -0.2057
  185SLPC  H16S21298   7.058   6.868   8.080 -0.3558 -0.3778  0.4588
  185SLPC  C21721299   7.010   6.653   8.112  0.0809 -0.2123  0.5788
  185SLPC  H17R21300   7.109   6.652   8.164  0.3617  0.4106  0.0703
  185SLPC  H17S21301   7.014   6.571   8.038  1.4520  1.5557 -1.4292
  185SLPC  C21821302   6.895   6.647   8.209  0.1340 -0.6315 -0.9543
  185SLPC  H18R21303   6.909   6.565   8.283  3.6890 -0.2086 -1.0073
  185SLPC  H18S21304   6.797   6.639   8.157  0.7184 -0.0529 -2.1785
  185SLPC  H18T21305   6.905   6.737   8.273  1.2170 -1.0792 -0.4729
  185SLPC   C3321306   6.648   6.994   6.910  0.4196 -0.3522 -0.2282
  185SLPC   H3X21307   6.758   7.012   6.906  0.0084  2.3702 -2.6089
  185SLPC   H3Y21308   6.627   6.886   6.925  0.2239 -0.2951 -0.0859
  185SLPC   C3421309   6.593   7.070   7.037 -1.1111  0.5685  0.2405
  185SLPC   H4X21310   6.484   7.051   7.030 -1.2973  1.3800  0.8252
  185SLPC   H4Y21311   6.616   7.179   7.033  1.1066  0.1374 -0.3988
  185SLPC   C3521312   6.635   7.035   7.182  0.2585 -0.4709  0.1495
  185SLPC   H5X21313   6.742   7.052   7.203  1.3491 -4.3906 -1.2979
  185SLPC   H5Y21314   6.618   6.925   7.188  0.2349 -0.3754  2.3647
  185SLPC   C3621315   6.547   7.100   7.287 -0.1643  0.3407 -0.9914
  185SLPC   H6X21316   6.442   7.082   7.257 -0.2782 -1.9349  0.5597
  185SLPC   H6Y21317   6.568   7.209   7.286 -0.5418  0.5545  2.4044
  185SLPC   C3721318   6.577   7.047   7.433 -0.2137  0.6714  0.2678
  185SLPC   H7X21319   6.683   7.014   7.435  0.5115  2.4247 -2.7001
  185SLPC   H7Y21320   6.509   6.963   7.455 -1.1758  0.7494 -2.0755
  185SLPC   C3821321   6.568   7.159   7.540  0.9050  0.0716 -0.0832
  185SLPC   H8X21322   6.463   7.172   7.572  1.1277  1.4672  0.1521
  185SLPC   H8Y21323   6.608   7.244   7.481  1.7738 -1.4528 -1.8201
  185SLPC   C3921324   6.658   7.134   7.658 -0.4487  0.1283  0.0252
  185SLPC   H9X21325   6.761   7.129   7.618 -1.1591 -3.6513 -1.8042
  185SLPC   H9Y21326   6.642   7.036   7.709  1.6862 -1.2840 -1.8338
  185SLPC  C31021327   6.645   7.244   7.766 -0.2239 -0.0331 -0.2707
  185SLPC  H10X21328   6.551   7.243   7.825 -0.1916 -1.7586 -0.2092
  185SLPC  H10Y21329   6.654   7.341   7.712 -0.8163  0.1002 -0.1462
  185SLPC  C31121330   6.760   7.231   7.858 -0.6282 -0.1258 -0.2767
  185SLPC  H11X21331   6.858   7.223   7.808  0.0571  1.1998  0.7827
  185SLPC  H11Y21332   6.741   7.132   7.906 -2.0002 -0.2316 -0.9964
  185SLPC  C31221333   6.755   7.351   7.949 -0.0014  0.3989  0.2666
  185SLPC  H12X21334   6.648   7.368   7.974 -0.5055 -3.4493  1.3199
  185SLPC  H12Y21335   6.793   7.440   7.894 -2.1641  0.6766 -0.9220
  185SLPC  C31321336   6.835   7.341   8.079 -0.5570 -0.7449  0.4165
  185SLPC  H13X21337   6.942   7.324   8.056  0.3739  1.7109  2.4554
  185SLPC  H13Y21338   6.794   7.259   8.141  0.9701  0.3681  3.0621
  185SLPC  C31421339   6.821   7.474   8.155 -0.0695  0.1093 -0.1004
  185SLPC  H14X21340   6.711   7.478   8.174 -0.1143 -2.1441  0.3613
  185SLPC  H14Y21341   6.854   7.567   8.103 -1.2286  0.7754  0.3001
  185SLPC  C31521342   6.892   7.479   8.291  0.2083 -0.6147 -0.3721
  185SLPC  H15X21343   6.838   7.550   8.356  2.3710  0.0030  0.8353
  185SLPC  H15Y21344   6.997   7.510   8.274  0.5447 -1.3425  0.3436
  185SLPC  C31621345   6.910   7.348   8.367  0.6788 -0.5970  0.0377
  185SLPC  H16X21346   6.962   7.265   8.314  1.3206 -0.7942  0.9528
  185SLPC  H16Y21347   6.807   7.311   8.390  0.3319  0.4451  0.2372
  185SLPC  C31721348   6.990   7.365   8.495  0.0788  0.1567 -0.1757
  185SLPC  H17X21349   6.954   7.437   8.571  1.3268 -0.3248  0.9239
  185SLPC  H17Y21350   7.092   7.397   8.464  0.3108 -0.3281  0.0866
  185SLPC  C31821351   7.011   7.234   8.571  0.0998 -0.1725  0.2230
  185SLPC  H18X21352   6.910   7.192   8.593  0.4560 -1.3309 -0.2553
  185SLPC  H18Y21353   7.055   7.239   8.672  0.1827 -2.2357  0.3339
  185SLPC  H18Z21354   7.072   7.160   8.514 -0.7983 -1.8280  1.3427
  186SLPC     N21355   0.823   1.237   6.163  0.3067 -0.3439  0.1759
  186SLPC   C1321356   0.923   1.347   6.144  0.1623 -0.2334  0.1260
  186SLPC  H13A21357   0.985   1.327   6.058  0.0578  0.4539 -0.1229
  186SLPC  H13B21358   0.870   1.439   6.124 -1.0134 -1.4446 -2.8345
  186SLPC  H13C21359   0.980   1.364   6.234 -1.7338 -3.3684  2.0867
  186SLPC   C1421360   0.894   1.118   6.218 -0.5420  0.2465 -0.9146
  186SLPC  H14A21361   0.946   1.060   6.144 -1.3406 -1.3390 -0.3069
  186SLPC  H14B21362   0.952   1.142   6.306 -0.0199 -0.3656 -1.0850
  186SLPC  H14C21363   0.817   1.048   6.248  2.5421 -2.1377  2.3198
  186SLPC   C1521364   0.753   1.193   6.038 -0.6735 -0.1706 -0.1596
  186SLPC  H15A21365   0.824   1.195   5.957 -0.3809 -0.0962  0.0962
  186SLPC  H15B21366   0.714   1.092   6.043  2.2839 -1.4813 -1.0196
  186SLPC  H15C21367   0.666   1.252   6.015 -1.4290 -1.0873  0.2425
  186SLPC   C1221368   0.728   1.282   6.269  0.4607 -0.3063  0.7412
  186SLPC  H12A21369   0.770   1.255   6.365 -0.6434 -0.2895  1.2419
  186SLPC  H12B21370   0.640   1.221   6.258  2.2350 -2.7571 -0.9472
  186SLPC   C1121371   0.679   1.428   6.271  0.1029  0.3171  0.0881
  186SLPC  H11A21372   0.765   1.498   6.268  2.3167 -2.2700 -0.4923
  186SLPC  H11B21373   0.625   1.446   6.367 -0.3718 -1.1382  0.1131
  186SLPC     P21374   0.438   1.381   6.191 -0.2420 -0.0297  0.1724
  186SLPC   O1321375   0.345   1.491   6.199  0.4493 -0.9603  0.1830
  186SLPC   O1421376   0.428   1.291   6.079  0.3188  0.9350 -0.2231
  186SLPC   O1221377   0.584   1.442   6.169  0.5131 -0.9420  0.0709
  186SLPC   O1121378   0.446   1.297   6.327 -0.2734  0.4024 -0.1473
  186SLPC    C121379   0.322   1.248   6.385  0.5968  0.5321 -0.7613
  186SLPC    HA21380   0.236   1.240   6.315  0.3075 -3.8271 -0.1839
  186SLPC    HB21381   0.336   1.142   6.416 -0.8982  0.3594 -0.5886
  186SLPC    C221382   0.279   1.333   6.501  0.9009  0.2829 -0.3484
  186SLPC    HS21383   0.291   1.437   6.465  0.9236  0.0932 -0.8978
  186SLPC   O2121384   0.371   1.306   6.603  0.1035  0.0334  0.1217
  186SLPC   C2121385   0.357   1.381   6.715 -0.5374  0.8126  0.1371
  186SLPC   O2221386   0.281   1.479   6.723 -0.1788 -0.1869 -0.2879
  186SLPC   C2221387   0.433   1.315   6.827 -0.4680  0.1872 -1.0109
  186SLPC   H2R21388   0.394   1.216   6.859  2.1043 -0.5864 -0.0765
  186SLPC   H2S21389   0.531   1.292   6.781 -1.0233  0.4798 -2.3746
  186SLPC    C321390   0.130   1.315   6.540  0.1991  0.2653  0.6631
  186SLPC    HX21391   0.079   1.348   6.447  0.2913 -2.2150 -0.3510
  186SLPC    HY21392   0.086   1.381   6.618 -3.0925  0.1663 -0.9258
  186SLPC   O3121393   0.092   1.173   6.559  0.9320 -0.1885  0.2105
  186SLPC   C3121394  -0.031   1.161   6.616  0.5853  0.2281  0.1314
  186SLPC   O3221395  -0.105   1.250   6.652  0.1412 -0.5623  0.0226
  186SLPC   C3221396  -0.059   1.011   6.643 -0.1358  0.1831 -0.4883
  186SLPC   H2X21397  -0.025   0.950   6.557 -0.1861 -0.6077  0.0428
  186SLPC   H2Y21398  -0.169   1.011   6.659 -0.2972  3.3070 -0.9613
  186SLPC   C2321399   0.457   1.412   6.949 -0.5313  0.1881 -0.2600
  186SLPC   H3R21400   0.356   1.448   6.976 -0.6648 -1.6968  2.0471
  186SLPC   H3S21401   0.521   1.496   6.915 -1.8317  0.1552 -3.0785
  186SLPC   C2421402   0.511   1.333   7.075  0.0871 -0.4042 -0.0466
  186SLPC   H4R21403   0.611   1.291   7.052 -0.4300 -1.4321 -0.4584
  186SLPC   H4S21404   0.443   1.248   7.095 -1.4340  1.3137  2.8534
  186SLPC   C2521405   0.493   1.421   7.204  0.6042  1.1305 -0.0194
  186SLPC   H5R21406   0.387   1.449   7.221  0.4685 -0.3250  1.8130
  186SLPC   H5S21407   0.543   1.520   7.194 -2.8213  2.9792 -0.2861
  186SLPC   C2621408   0.549   1.348   7.323  0.1283 -0.0858  0.0519
  186SLPC   H6R21409   0.659   1.362   7.322  0.1074  0.0846 -0.5274
  186SLPC   H6S21410   0.523   1.240   7.324 -2.2911  0.4104 -0.8035
  186SLPC   C2721411   0.501   1.404   7.457  0.5430  0.1990 -0.4526
  186SLPC   H7R21412   0.393   1.423   7.442 -0.4013 -1.4706  3.2411
  186SLPC   H7S21413   0.561   1.493   7.486  0.2884 -0.2186  1.4873
  186SLPC   C2821414   0.520   1.303   7.571  0.2090  0.1279  0.0600
  186SLPC   H8R21415   0.466   1.212   7.539 -0.3050  0.7286 -0.8172
  186SLPC   H8S21416   0.464   1.349   7.655 -1.6337 -1.3030 -0.3147
  186SLPC   C2921417   0.662   1.275   7.612  0.1020 -0.4286 -0.0939
  186SLPC   H9R21418   0.739   1.286   7.534 -0.4697  1.4331 -0.4419
  186SLPC  C21021419   0.696   1.243   7.740 -0.4581  0.1297  0.7747
  186SLPC  H10R21420   0.803   1.237   7.763 -0.7247 -0.7795  1.8819
  186SLPC  C21121421   0.606   1.207   7.860 -0.7867  0.4019  0.0435
  186SLPC  H11R21422   0.577   1.100   7.856 -0.6812  0.2596  2.0794
  186SLPC  H11S21423   0.506   1.255   7.861 -1.2245 -0.4905 -0.3694
  186SLPC  C21221424   0.676   1.219   7.995  0.2827  1.0053 -0.0101
  186SLPC  H12R21425   0.650   1.132   8.056 -1.0916 -0.2512 -2.2582
  186SLPC  C21321426   0.763   1.306   8.054  0.3297 -0.2122  0.4746
  186SLPC  H13R21427   0.800   1.282   8.155  0.6936 -1.1864  0.1215
  186SLPC  C21421428   0.809   1.436   7.988 -0.1847 -0.3380  0.0178
  186SLPC  H14R21429   0.738   1.491   7.923  1.3253  3.1069  1.0634
  186SLPC  H14S21430   0.892   1.409   7.919 -3.2986 -0.8998 -3.8163
  186SLPC  C21521431   0.838   1.551   8.086 -0.2221  0.1238 -0.0905
  186SLPC  H15R21432   0.747   1.573   8.144 -1.1905 -0.1519 -1.4543
  186SLPC  H15S21433   0.861   1.635   8.016  0.2632 -0.5612 -0.7853
  186SLPC  C21621434   0.955   1.524   8.184 -0.2227  0.4198 -0.2503
  186SLPC  H16R21435   1.059   1.519   8.146  1.1995 -2.4698  3.2955
  186SLPC  H16S21436   0.935   1.434   8.247  2.6262 -0.7562 -0.8667
  186SLPC  C21721437   0.970   1.646   8.273 -0.0012  0.2040  0.1294
  186SLPC  H17R21438   0.879   1.664   8.334 -0.4430  2.1811 -1.0346
  186SLPC  H17S21439   0.977   1.739   8.213 -0.9179  1.7874  2.3429
  186SLPC  C21821440   1.087   1.634   8.366 -0.4658  0.3740 -0.0545
  186SLPC  H18R21441   1.087   1.710   8.447 -0.8748 -0.1265  0.4220
  186SLPC  H18S21442   1.185   1.648   8.317 -0.1002  1.9100  1.0432
  186SLPC  H18T21443   1.095   1.534   8.413 -0.2276  0.5719  0.3245
  186SLPC   C3321444  -0.001   0.964   6.777  0.1510 -0.0206  0.0028
  186SLPC   H3X21445   0.109   0.972   6.771  0.2510 -2.1397 -2.8365
  186SLPC   H3Y21446  -0.025   0.860   6.807 -1.4017  0.8475  2.0439
  186SLPC   C3421447  -0.048   1.051   6.897  0.4710  0.6921  0.7137
  186SLPC   H4X21448  -0.158   1.064   6.893  0.4054  2.2425  3.9393
  186SLPC   H4Y21449  -0.011   1.152   6.872  0.5644 -0.0962 -2.7648
  186SLPC   C3521450  -0.002   0.996   7.026 -0.0919  0.1762  0.8733
  186SLPC   H5X21451  -0.029   0.888   7.025  1.5809 -0.2712  0.4071
  186SLPC   H5Y21452  -0.049   1.058   7.105  0.4278  0.5865  0.8656
  186SLPC   C3621453   0.150   1.013   7.038 -0.5412  0.2829 -0.5426
  186SLPC   H6X21454   0.179   1.118   7.014  0.7107  0.3802  1.1970
  186SLPC   H6Y21455   0.213   0.955   6.967  0.3638  0.3057  0.2228
  186SLPC   C3721456   0.204   0.997   7.182 -0.5503 -0.0804 -0.8653
  186SLPC   H7X21457   0.313   1.013   7.167 -0.3003 -1.0167 -0.1142
  186SLPC   H7Y21458   0.202   0.898   7.232 -0.4135  0.1210 -0.4538
  186SLPC   C3821459   0.148   1.109   7.274 -0.0762  0.0447 -0.9484
  186SLPC   H8X21460   0.038   1.118   7.286  0.1110  0.8549  0.4425
  186SLPC   H8Y21461   0.180   1.212   7.250  1.8267  0.6975  3.4297
  186SLPC   C3921462   0.197   1.104   7.426 -0.0330 -0.6306 -0.0552
  186SLPC   H9X21463   0.201   1.210   7.459 -0.6510 -0.7364  0.3736
  186SLPC   H9Y21464   0.300   1.061   7.424 -0.4306 -1.6142 -2.0107
  186SLPC  C31021465   0.096   1.034   7.528  0.2074 -0.4375 -0.4230
  186SLPC  H10X21466   0.097   0.925   7.505 -1.1255 -0.3827 -0.8033
  186SLPC  H10Y21467   0.005   1.092   7.500 -3.1462 -3.6081  2.8324
  186SLPC  C31121468   0.132   1.062   7.674  0.5627  0.0512 -0.1656
  186SLPC  H11X21469   0.116   1.172   7.679  0.9603  0.0868  0.3650
  186SLPC  H11Y21470   0.239   1.042   7.692  1.1291  2.3403 -0.6206
  186SLPC  C31221471   0.048   0.994   7.784 -0.0245  0.0625  0.1633
  186SLPC  H12X21472   0.057   0.884   7.768  1.1394  0.4008 -1.8194
  186SLPC  H12Y21473  -0.058   1.022   7.765 -0.6735 -2.2782 -0.0825
  186SLPC  C31321474   0.085   1.030   7.927 -0.4133  0.0022 -0.0370
  186SLPC  H13X21475   0.017   0.986   8.003  0.1735 -0.3787  0.2749
  186SLPC  H13Y21476   0.075   1.141   7.925 -0.1958  0.3797  5.3195
  186SLPC  C31421477   0.228   0.993   7.960  0.2292 -0.0233 -0.0479
  186SLPC  H14X21478   0.286   1.077   7.915 -1.6461  1.9444  0.9708
  186SLPC  H14Y21479   0.262   0.897   7.917  0.7388  0.2099 -0.1731
  186SLPC  C31521480   0.253   0.979   8.113 -0.2633  0.1407  0.2451
  186SLPC  H15X21481   0.207   0.890   8.160 -1.9452  0.8459  0.0250
  186SLPC  H15Y21482   0.208   1.068   8.163 -0.7932 -0.2892  0.5368
  186SLPC  C31621483   0.402   0.970   8.152 -0.1312  0.4974 -0.6017
  186SLPC  H16X21484   0.454   1.059   8.109  0.0027  0.7781  0.1246
  186SLPC  H16Y21485   0.442   0.877   8.105  1.7735  0.6218  0.6635
  186SLPC  C31721486   0.441   0.952   8.301 -0.1826  0.4943  0.2774
  186SLPC  H17X21487   0.433   1.053   8.347  3.0677  0.8559  0.2558
  186SLPC  H17Y21488   0.547   0.923   8.314  0.5459  3.2106  1.0805
  186SLPC  C31821489   0.355   0.864   8.381  0.0708 -0.0925  0.4281
  186SLPC  H18X21490   0.248   0.894   8.387  0.6055  2.2519 -0.5026
  186SLPC  H18Y21491   0.395   0.860   8.485  1.3410 -1.1266 -0.0763
  186SLPC  H18Z21492   0.354   0.763   8.335 -2.0634  0.4557 -0.8656
  187SLPC     N21493   2.767   0.838   6.664  0.1895 -0.7279  0.0102
  187SLPC   C1321494   2.812   0.983   6.676 -0.4194 -0.1981  0.7793
  187SLPC  H13A21495   2.762   1.047   6.605  1.9748  1.6354  0.5916
  187SLPC  H13B21496   2.779   1.024   6.770 -1.8941 -2.4899  1.3377
  187SLPC  H13C21497   2.919   0.990   6.658 -0.1684 -0.7801  1.9793
  187SLPC   C1421498   2.613   0.826   6.676 -0.0395  0.2147 -0.3530
  187SLPC  H14A21499   2.583   0.890   6.758  2.2008  1.0831 -0.1321
  187SLPC  H14B21500   2.561   0.878   6.597 -2.6440 -1.6992 -0.0161
  187SLPC  H14C21501   2.570   0.730   6.700 -0.5259  0.9520  2.0643
  187SLPC   C1521502   2.822   0.768   6.788  0.4517 -0.3412  0.3424
  187SLPC  H15A21503   2.790   0.797   6.887 -1.6129 -1.1391 -0.0547
  187SLPC  H15B21504   2.807   0.661   6.779 -2.3635  0.1135 -1.3851
  187SLPC  H15C21505   2.930   0.771   6.776  0.2035  1.0816 -2.0888
  187SLPC   C1221506   2.818   0.787   6.528  0.1983  0.2620  0.6318
  187SLPC  H12A21507   2.925   0.770   6.533  0.0866 -0.4553  0.7229
  187SLPC  H12B21508   2.800   0.865   6.456 -1.9303  1.1407  2.0175
  187SLPC   C1121509   2.763   0.652   6.477  0.4644 -0.2912  0.1461
  187SLPC  H11A21510   2.812   0.642   6.378  0.7717 -1.9565  0.4386
  187SLPC  H11B21511   2.655   0.668   6.457  0.4127 -0.4260  0.3134
  187SLPC     P21512   2.931   0.469   6.576  0.0740  0.3544  0.4263
  187SLPC   O1321513   2.918   0.328   6.532  0.6802 -0.0784 -0.5069
  187SLPC   O1421514   3.036   0.552   6.511 -0.5380  0.0782  0.2808
  187SLPC   O1221515   2.789   0.539   6.561  0.2826 -0.6059 -0.4705
  187SLPC   O1121516   2.975   0.480   6.725  0.2740 -0.4032 -0.1200
  187SLPC    C121517   2.885   0.421   6.822 -0.6228  0.5179 -0.2691
  187SLPC    HA21518   2.786   0.469   6.833 -1.0134  0.8570 -4.0723
  187SLPC    HB21519   2.870   0.312   6.807  0.4642  0.0476  1.6576
  187SLPC    C221520   2.944   0.437   6.967  0.3941  0.5327 -0.1027
  187SLPC    HS21521   2.941   0.547   6.987  2.5261  0.3163  1.7083
  187SLPC   O2121522   3.078   0.377   6.952  0.0490 -0.3890 -0.3109
  187SLPC   C2121523   3.172   0.432   7.021  0.4307  0.5992 -0.0406
  187SLPC   O2221524   3.167   0.535   7.091 -0.0831  0.4429  0.0750
  187SLPC   C2221525   3.306   0.362   6.993 -0.1462  0.1115  0.8545
  187SLPC   H2R21526   3.298   0.256   6.963  3.5314  0.2581 -1.2434
  187SLPC   H2S21527   3.355   0.424   6.914  0.2588 -0.4367  0.6727
  187SLPC    C321528   2.859   0.356   7.061 -0.2328  0.6975  0.4236
  187SLPC    HX21529   2.881   0.251   7.033  1.4319  0.7095  1.5200
  187SLPC    HY21530   2.748   0.368   7.057 -0.7989 -3.2808 -0.4442
  187SLPC   O3121531   2.905   0.373   7.196  0.1867  0.7531 -0.5788
  187SLPC   C3121532   2.836   0.461   7.267 -0.0517  0.8921  0.0232
  187SLPC   O3221533   2.738   0.523   7.224  0.3657 -0.1042 -0.6205
  187SLPC   C3221534   2.914   0.489   7.400 -0.6077 -0.2372  0.2867
  187SLPC   H2X21535   3.021   0.461   7.389  0.5059  2.0498  3.6802
  187SLPC   H2Y21536   2.876   0.409   7.466 -0.0807  0.6125  1.6798
  187SLPC   C2321537   3.395   0.379   7.119  0.6774  0.0987 -0.4760
  187SLPC   H3R21538   3.408   0.484   7.151 -0.9556  0.3265 -0.4842
  187SLPC   H3S21539   3.499   0.354   7.089  1.3690  0.9901  1.0928
  187SLPC   C2421540   3.352   0.295   7.234 -1.3614  0.0546 -0.1481
  187SLPC   H4R21541   3.311   0.200   7.194 -1.9147  0.4243 -0.4676
  187SLPC   H4S21542   3.268   0.345   7.286 -0.2125  0.3717  1.4835
  187SLPC   C2521543   3.473   0.268   7.334 -0.3345  0.0152  1.1102
  187SLPC   H5R21544   3.533   0.362   7.342  1.9405 -1.0465 -1.5385
  187SLPC   H5S21545   3.537   0.196   7.278 -0.9981 -1.0916  1.7569
  187SLPC   C2621546   3.429   0.213   7.464 -0.7688 -0.5520 -0.7932
  187SLPC   H6R21547   3.352   0.134   7.451  2.1600 -3.8249  0.1907
  187SLPC   H6S21548   3.370   0.287   7.522 -1.6695 -0.8655 -1.2898
  187SLPC   C2721549   3.541   0.162   7.563  0.1636  0.5945  0.4492
  187SLPC   H7R21550   3.615   0.240   7.593  1.0289 -0.4310  1.0328
  187SLPC   H7S21551   3.595   0.079   7.514  1.6979  0.9792  1.4075
  187SLPC   C2821552   3.476   0.119   7.691 -0.2005  0.3827 -0.5010
  187SLPC   H8R21553   3.404   0.038   7.666  0.1924 -0.8831  2.1520
  187SLPC   H8S21554   3.417   0.206   7.725 -1.9222 -1.1664  0.6745
  187SLPC   C2921555   3.582   0.076   7.794  0.0585  0.3567  0.4236
  187SLPC   H9R21556   3.677   0.038   7.753 -0.0462 -1.1695  1.5167
  187SLPC  C21021557   3.568   0.074   7.927  0.8194 -0.3534 -0.3747
  187SLPC  H10R21558   3.653   0.034   7.983 -0.5464 -0.1811  1.9478
  187SLPC  C21121559   3.437   0.107   7.995 -0.0998  0.2714 -0.3374
  187SLPC  H11R21560   3.431   0.035   8.080 -1.8170  1.5533  0.7149
  187SLPC  H11S21561   3.343   0.088   7.940 -0.8965  2.4983  0.1338
  187SLPC  C21221562   3.438   0.243   8.060 -0.2711  0.1197  0.2077
  187SLPC  H12R21563   3.536   0.288   8.081 -0.0112 -0.2567 -0.1699
  187SLPC  C21321564   3.330   0.310   8.093  0.1519  0.5407  0.0152
  187SLPC  H13R21565   3.349   0.417   8.110 -2.0106  1.0562 -0.4462
  187SLPC  C21421566   3.187   0.271   8.083 -0.3685  0.7975 -0.4202
  187SLPC  H14R21567   3.136   0.313   8.173 -0.0210  0.9861 -0.3071
  187SLPC  H14S21568   3.192   0.160   8.086  1.5744  0.8581  0.4749
  187SLPC  C21521569   3.112   0.310   7.956 -0.9147  0.6637 -0.2968
  187SLPC  H15R21570   3.017   0.253   7.946 -0.2178 -0.5679 -0.0937
  187SLPC  H15S21571   3.173   0.281   7.868 -1.1331  1.3065 -0.6681
  187SLPC  C21621572   3.100   0.462   7.950 -0.4361 -0.3447  0.8345
  187SLPC  H16R21573   3.204   0.503   7.945 -0.1900 -1.0299  0.2535
  187SLPC  H16S21574   3.057   0.503   8.044  0.7130 -1.4040  1.8718
  187SLPC  C21721575   3.021   0.515   7.831  0.6519 -0.5767  0.6468
  187SLPC  H17R21576   2.930   0.457   7.806 -0.8031  1.5154  0.8100
  187SLPC  H17S21577   3.088   0.532   7.743 -0.8558  1.0623 -0.2560
  187SLPC  C21821578   2.974   0.663   7.849 -0.0905 -0.2328 -0.2737
  187SLPC  H18R21579   3.061   0.731   7.835  0.0087 -0.3140 -0.0586
  187SLPC  H18S21580   2.932   0.667   7.952  0.0595  0.2823 -0.2266
  187SLPC  H18T21581   2.893   0.680   7.776  0.2897  0.0008 -0.6458
  187SLPC   C3321582   2.903   0.635   7.448 -0.0182 -1.0010  0.3603
  187SLPC   H3X21583   2.965   0.650   7.539  0.2844  0.4637 -0.0641
  187SLPC   H3Y21584   2.799   0.653   7.484 -0.1658 -1.5608  0.2162
  187SLPC   C3421585   2.974   0.739   7.356  0.8045  0.1603 -0.1841
  187SLPC   H4X21586   2.931   0.733   7.253  1.0481  0.6720 -0.3165
  187SLPC   H4Y21587   3.082   0.716   7.343  0.4270 -2.7953  1.0143
  187SLPC   C3521588   2.937   0.879   7.417  0.2335 -0.1360  0.6449
  187SLPC   H5X21589   2.827   0.891   7.421 -0.0157  0.1867 -3.2843
  187SLPC   H5Y21590   2.978   0.957   7.350  1.0454  0.5421  1.8850
  187SLPC   C3621591   3.014   0.914   7.546 -0.3440 -0.4288  0.2544
  187SLPC   H6X21592   3.110   0.960   7.516 -1.0514  0.8505 -0.1039
  187SLPC   H6Y21593   3.041   0.820   7.599  0.4477 -0.7736 -0.7384
  187SLPC   C3721594   2.941   1.015   7.637  0.0131  0.3435  0.3454
  187SLPC   H7X21595   2.930   1.098   7.564  1.7899 -0.4925 -0.9637
  187SLPC   H7Y21596   2.846   0.959   7.650  0.1450 -0.6046 -2.1698
  187SLPC   C3821597   3.021   1.043   7.761  0.0013 -0.0942 -0.2594
  187SLPC   H8X21598   3.112   1.103   7.743 -0.5865  1.2798  1.1217
  187SLPC   H8Y21599   3.044   0.952   7.820 -1.4722 -0.0298  0.4575
  187SLPC   C3921600   2.947   1.139   7.864  0.3723  0.5106 -0.2176
  187SLPC   H9X21601   2.853   1.096   7.906 -1.2151  3.8768  0.0715
  187SLPC   H9Y21602   2.905   1.223   7.805  0.6451  0.7980 -0.0036
  187SLPC  C31021603   3.041   1.205   7.970 -0.8080 -0.1275  0.6684
  187SLPC  H10X21604   2.978   1.286   8.014  0.8930  1.1771  0.8160
  187SLPC  H10Y21605   3.117   1.259   7.910 -0.3228  0.2256  1.5767
  187SLPC  C31121606   3.117   1.117   8.064 -0.3154  0.3800 -0.3642
  187SLPC  H11X21607   3.182   1.176   8.132  1.2666 -2.0966  0.4156
  187SLPC  H11Y21608   3.175   1.041   8.007  0.5193  1.2759 -0.7498
  187SLPC  C31221609   3.024   1.028   8.157  0.4371 -0.1503  0.4133
  187SLPC  H12X21610   2.970   0.954   8.094  1.9728 -0.5804 -0.4425
  187SLPC  H12Y21611   2.948   1.097   8.199  0.0583 -1.5429  2.1078
  187SLPC  C31321612   3.100   0.953   8.269 -0.7699 -0.5930 -0.2172
  187SLPC  H13X21613   3.161   1.029   8.322  0.1395 -2.0664  0.9226
  187SLPC  H13Y21614   3.166   0.875   8.225  2.3957  2.1254 -0.6942
  187SLPC  C31421615   3.011   0.873   8.376  0.5148  0.5827  0.2562
  187SLPC  H14X21616   2.970   0.779   8.333  0.3214  1.2484 -1.0685
  187SLPC  H14Y21617   2.917   0.928   8.396 -0.0732 -1.1175  2.5086
  187SLPC  C31521618   3.088   0.835   8.501 -0.9762 -0.0222  0.1429
  187SLPC  H15X21619   3.033   0.767   8.569 -2.8557 -0.2906 -1.5593
  187SLPC  H15Y21620   3.098   0.925   8.566  0.7153 -1.4355  1.9458
  187SLPC  C31621621   3.206   0.756   8.456 -0.6916  0.2460  0.4555
  187SLPC  H16X21622   3.272   0.754   8.546 -0.8904  1.0526  0.6257
  187SLPC  H16Y21623   3.257   0.795   8.365 -0.9155 -1.4829 -0.4551
  187SLPC  C31721624   3.176   0.612   8.422  0.0762 -0.2655 -1.0615
  187SLPC  H17X21625   3.106   0.612   8.335 -1.0699  0.7554 -0.1570
  187SLPC  H17Y21626   3.135   0.553   8.507  0.3021 -0.2042 -0.9083
  187SLPC  C31821627   3.297   0.526   8.364  0.3507 -0.2857 -0.3968
  187SLPC  H18X21628   3.255   0.442   8.306 -1.1817  1.8673 -2.6135
  187SLPC  H18Y21629   3.347   0.469   8.445 -2.1918 -1.3854  0.5230
  187SLPC  H18Z21630   3.373   0.585   8.309  1.0769  0.7309  1.5723
  188SLPC     N21631   3.609   0.606   6.211  0.3325  0.1369 -0.4203
  188SLPC   C1321632   3.713   0.669   6.131  0.0865 -1.1425  0.1805
  188SLPC  H13A21633   3.710   0.777   6.125 -2.6586 -1.2289 -2.2389
  188SLPC  H13B21634   3.809   0.636   6.167  1.4849  1.1583 -1.1385
  188SLPC  H13C21635   3.706   0.630   6.030  1.2689  1.1840 -0.8975
  188SLPC   C1421636   3.626   0.456   6.209  0.3614 -0.3979 -0.4654
  188SLPC  H14A21637   3.709   0.424   6.270  0.3090  1.7542  0.8398
  188SLPC  H14B21638   3.534   0.410   6.241  1.0959 -2.3026 -0.9682
  188SLPC  H14C21639   3.645   0.429   6.106 -1.1921 -0.4206 -0.7781
  188SLPC   C1521640   3.487   0.648   6.134  0.2327 -0.2895  0.4018
  188SLPC  H15A21641   3.499   0.603   6.037  0.6033  0.1874  0.2220
  188SLPC  H15B21642   3.390   0.613   6.168 -0.6610  0.8005 -0.9066
  188SLPC  H15C21643   3.482   0.756   6.123  0.6295 -0.4871 -2.4192
  188SLPC   C1221644   3.605   0.662   6.352  0.3190 -0.0692 -0.9774
  188SLPC  H12A21645   3.671   0.605   6.416 -1.6082  1.9675  3.1581
  188SLPC  H12B21646   3.515   0.641   6.408  0.8705  1.1436  0.4076
  188SLPC   C1121647   3.648   0.813   6.370  0.3278 -0.5415  0.8567
  188SLPC  H11A21648   3.745   0.831   6.319  0.8602 -1.3393  1.5501
  188SLPC  H11B21649   3.664   0.841   6.477  3.8630  0.6113  0.1625
  188SLPC     P21650   3.415   0.960   6.375 -0.3377  0.1388 -0.3494
  188SLPC   O1321651   3.316   0.962   6.261 -0.5500  0.4833 -0.0945
  188SLPC   O1421652   3.379   0.884   6.498 -0.4213 -0.5054 -0.3515
  188SLPC   O1221653   3.550   0.901   6.317 -0.1187  0.0212 -0.0315
  188SLPC   O1121654   3.449   1.109   6.414 -0.2562 -0.3666 -0.1965
  188SLPC    C121655   3.577   1.144   6.469 -0.3844 -0.5908 -0.1312
  188SLPC    HA21656   3.644   1.057   6.486 -0.9996 -0.4209  4.7760
  188SLPC    HB21657   3.633   1.218   6.410  2.6115 -0.4314  2.6313
  188SLPC    C221658   3.565   1.214   6.611 -0.8505  0.2848  0.4913
  188SLPC    HS21659   3.670   1.210   6.647  0.6957  2.2775 -3.1749
  188SLPC   O2121660   3.467   1.150   6.694  0.5485  0.0654 -0.3981
  188SLPC   C2121661   3.506   1.039   6.757 -0.0740  0.0759  0.5107
  188SLPC   O2221662   3.602   0.975   6.733  0.4748  0.2416  0.4996
  188SLPC   C2221663   3.418   0.991   6.856  0.4560 -0.1282 -0.0434
  188SLPC   H2R21664   3.383   1.076   6.919  0.8290 -0.6654  0.9081
  188SLPC   H2S21665   3.327   0.939   6.819  0.6380 -0.7413  0.3520
  188SLPC    C321666   3.538   1.363   6.588  0.1026 -0.0722 -0.5659
  188SLPC    HX21667   3.441   1.366   6.534 -1.4736  0.2669  2.1181
  188SLPC    HY21668   3.619   1.410   6.529  0.5330 -0.6238 -0.4296
  188SLPC   O3121669   3.505   1.423   6.713  0.2880  0.6144 -0.1181
  188SLPC   C3121670   3.606   1.487   6.770 -0.0918 -0.3051  0.3002
  188SLPC   O3221671   3.723   1.481   6.734  0.5828  0.0900  0.2197
  188SLPC   C3221672   3.562   1.583   6.883 -0.2964  0.6722 -0.0337
  188SLPC   H2X21673   3.458   1.621   6.871 -0.5201  0.5037  1.1929
  188SLPC   H2Y21674   3.632   1.668   6.874  0.7140 -0.0750  0.5196
  188SLPC   C2321675   3.494   0.890   6.947 -0.4896 -0.6981 -0.5668
  188SLPC   H3R21676   3.601   0.919   6.958 -0.2993 -0.6926 -2.2726
  188SLPC   H3S21677   3.489   0.788   6.903  0.3620 -0.6433 -0.8167
  188SLPC   C2421678   3.428   0.885   7.079  0.1336  0.5495  0.5046
  188SLPC   H4R21679   3.323   0.858   7.056  0.6298 -0.3112 -0.8565
  188SLPC   H4S21680   3.422   0.981   7.134 -1.4086 -0.2747  1.8544
  188SLPC   C2521681   3.491   0.787   7.171 -0.4694 -0.1863  0.3223
  188SLPC   H5R21682   3.595   0.818   7.197 -0.2661 -1.0504  0.5572
  188SLPC   H5S21683   3.501   0.686   7.126 -3.2425  0.2359 -1.4657
  188SLPC   C2621684   3.415   0.759   7.295 -0.0794 -0.4829 -0.0333
  188SLPC   H6R21685   3.319   0.707   7.280  0.9421 -2.5314  0.2343
  188SLPC   H6S21686   3.376   0.855   7.335 -0.2039  0.8464 -3.0515
  188SLPC   C2721687   3.504   0.691   7.398 -0.0118 -0.4110  0.7809
  188SLPC   H7R21688   3.569   0.770   7.439  1.1196 -0.5552 -0.6737
  188SLPC   H7S21689   3.567   0.606   7.365 -1.3982 -0.8493 -0.8622
  188SLPC   C2821690   3.420   0.628   7.514 -1.0205 -1.1360  0.0673
  188SLPC   H8R21691   3.486   0.586   7.593  0.3585  0.8816  0.0620
  188SLPC   H8S21692   3.357   0.545   7.478 -2.5581  0.2877 -0.6577
  188SLPC   C2921693   3.330   0.736   7.571 -0.2724  0.0468  0.1775
  188SLPC   H9R21694   3.262   0.795   7.507  1.7491  1.5844 -0.6410
  188SLPC  C21021695   3.333   0.776   7.700  0.2303  0.0696 -0.0420
  188SLPC  H10R21696   3.265   0.857   7.731 -0.8170 -0.1581 -1.6475
  188SLPC  C21121697   3.413   0.714   7.812 -0.4267  0.2185  0.6788
  188SLPC  H11R21698   3.512   0.725   7.763  0.0843 -1.8015  1.1767
  188SLPC  H11S21699   3.394   0.605   7.819  1.0987 -0.2131 -1.1860
  188SLPC  C21221700   3.409   0.784   7.947  0.7978  0.2012  1.0123
  188SLPC  H12R21701   3.319   0.847   7.958 -0.2995 -0.7134 -1.7680
  188SLPC  C21321702   3.503   0.785   8.041  0.3037 -0.0781 -0.2660
  188SLPC  H13R21703   3.501   0.858   8.123  2.8845 -0.6349  0.3601
  188SLPC  C21421704   3.629   0.707   8.035  0.1420 -0.5363  0.4050
  188SLPC  H14R21705   3.724   0.765   8.030 -1.2593  2.1128  2.3275
  188SLPC  H14S21706   3.640   0.655   7.937 -0.4795  0.0922 -0.0057
  188SLPC  C21521707   3.635   0.604   8.146  0.2725 -0.0842  0.6489
  188SLPC  H15R21708   3.713   0.538   8.104 -1.2879 -0.2035 -2.3093
  188SLPC  H15S21709   3.538   0.551   8.150  0.6793 -1.4945 -3.4860
  188SLPC  C21621710   3.682   0.661   8.274 -0.7142  0.6995 -0.0281
  188SLPC  H16R21711   3.597   0.724   8.308 -2.1215 -0.8327 -0.5694
  188SLPC  H16S21712   3.773   0.721   8.251 -1.2277  1.2719 -0.6024
  188SLPC  C21721713   3.706   0.560   8.395 -0.5437 -0.5192  0.7310
  188SLPC  H17R21714   3.796   0.499   8.372  0.6428  1.4902 -0.2417
  188SLPC  H17S21715   3.612   0.505   8.414  0.0823 -2.1610 -0.7412
  188SLPC  C21821716   3.740   0.625   8.532  0.0489  0.2724 -0.0780
  188SLPC  H18R21717   3.758   0.548   8.611 -1.5274 -0.1913 -0.1349
  188SLPC  H18S21718   3.663   0.699   8.565 -0.2425 -0.0968  0.0800
  188SLPC  H18T21719   3.840   0.672   8.522  0.2045  0.2892  1.2528
  188SLPC   C3321720   3.581   1.506   7.020 -0.6110 -0.1742  0.3197
  188SLPC   H3X21721   3.562   1.591   7.089  1.1524  0.4945  0.0430
  188SLPC   H3Y21722   3.682   1.460   7.029 -2.1380 -3.9846 -0.1818
  188SLPC   C3421723   3.475   1.399   7.043  0.7323 -0.9799 -0.5163
  188SLPC   H4X21724   3.468   1.327   6.958 -4.9418 -0.5961 -0.7814
  188SLPC   H4Y21725   3.377   1.443   7.071  1.3080 -0.3243  0.5202
  188SLPC   C3521726   3.516   1.322   7.170 -0.1398  0.2108  0.1954
  188SLPC   H5X21727   3.612   1.270   7.148 -0.4113  0.1107 -0.8122
  188SLPC   H5Y21728   3.426   1.260   7.193 -0.1458  0.0154 -0.3350
  188SLPC   C3621729   3.538   1.412   7.299  0.5713 -0.2241 -0.0732
  188SLPC   H6X21730   3.451   1.479   7.311  0.3728 -0.7160  1.3887
  188SLPC   H6Y21731   3.630   1.473   7.300  0.9694 -0.8098  1.8349
  188SLPC   C3721732   3.531   1.333   7.428  0.0712  0.0842  0.7248
  188SLPC   H7X21733   3.596   1.382   7.503  0.0822 -0.3705  1.0181
  188SLPC   H7Y21734   3.576   1.232   7.417  0.7234  0.6322 -2.7837
  188SLPC   C3821735   3.385   1.317   7.473  0.8915 -0.6777 -0.1322
  188SLPC   H8X21736   3.328   1.279   7.386  2.4109  1.2483 -2.0738
  188SLPC   H8Y21737   3.345   1.417   7.501  1.4812 -0.5041  0.1168
  188SLPC   C3921738   3.375   1.224   7.594 -0.3689  0.2194  0.4025
  188SLPC   H9X21739   3.414   1.126   7.560  0.8945  0.8944 -0.1828
  188SLPC   H9Y21740   3.267   1.216   7.619 -0.6115 -0.2738 -0.7428
  188SLPC  C31021741   3.447   1.266   7.726  0.3547 -0.6642 -0.3471
  188SLPC  H10X21742   3.403   1.363   7.757  1.5605 -0.3718  0.5050
  188SLPC  H10Y21743   3.552   1.295   7.705 -0.0107  2.0870  1.1746
  188SLPC  C31121744   3.426   1.172   7.843  0.6362  0.2140  0.4120
  188SLPC  H11X21745   3.505   1.096   7.828  2.2045  1.7959  0.3887
  188SLPC  H11Y21746   3.325   1.129   7.859  0.5747  0.5605  0.9747
  188SLPC  C31221747   3.433   1.243   7.979  0.6224  0.3269  0.0565
  188SLPC  H12X21748   3.334   1.292   7.980  0.5752  0.8550 -4.8264
  188SLPC  H12Y21749   3.520   1.310   7.962  1.7796 -0.8571  1.0154
  188SLPC  C31321750   3.450   1.144   8.105  0.8105  0.5784  0.6420
  188SLPC  H13X21751   3.550   1.104   8.079 -0.5216 -1.9206 -1.0776
  188SLPC  H13Y21752   3.385   1.055   8.097  2.4334 -0.5207 -1.3927
  188SLPC  C31421753   3.451   1.207   8.246 -0.4512 -0.0604 -0.1475
  188SLPC  H14X21754   3.351   1.245   8.274 -0.4547  0.3380 -0.6849
  188SLPC  H14Y21755   3.521   1.293   8.245  2.0250 -1.9627 -0.6874
  188SLPC  C31521756   3.500   1.110   8.357  0.1696 -0.1708  0.7038
  188SLPC  H15X21757   3.610   1.115   8.341 -0.0974  1.1229 -0.9922
  188SLPC  H15Y21758   3.477   1.002   8.342  0.2665 -0.4559  2.4034
  188SLPC  C31621759   3.470   1.136   8.508 -0.5237 -0.4125  0.0252
  188SLPC  H16X21760   3.366   1.102   8.529 -1.2962  2.7399  1.9369
  188SLPC  H16Y21761   3.466   1.246   8.519  1.2103 -0.1988 -1.1737
  188SLPC  C31721762   3.577   1.081   8.604 -0.2859  0.3477  0.1451
  188SLPC  H17X21763   3.669   1.126   8.560 -0.0540  0.4858  0.7517
  188SLPC  H17Y21764   3.583   0.971   8.592  1.3565  0.4578 -0.3843
  188SLPC  C31821765   3.571   1.101   8.755  0.1095  0.0736 -0.0892
  188SLPC  H18X21766   3.570   1.211   8.774  1.0760  0.0054  0.4084
  188SLPC  H18Y21767   3.661   1.060   8.806  0.1906 -1.2108 -1.2094
  188SLPC  H18Z21768   3.480   1.055   8.800 -0.9149  0.6700 -1.4552
  189SLPC     N21769   5.142   3.438   6.362 -0.7644 -0.0327  0.6455
  189SLPC   C1321770   5.243   3.542   6.315 -0.2572 -0.1869  0.0625
  189SLPC  H13A21771   5.230   3.627   6.380  0.6106 -2.2231  3.1414
  189SLPC  H13B21772   5.346   3.516   6.330  0.4702  0.8591 -2.5220
  189SLPC  H13C21773   5.223   3.567   6.212  0.9523  1.4633  0.1993
  189SLPC   C1421774   5.182   3.401   6.499 -0.1365 -1.2810  1.0574
  189SLPC  H14A21775   5.109   3.338   6.548  0.7563 -2.5306  0.8232
  189SLPC  H14B21776   5.280   3.358   6.492  0.1078 -0.4596 -2.0292
  189SLPC  H14C21777   5.185   3.482   6.570 -0.7269  0.4103 -0.7505
  189SLPC   C1521778   5.165   3.320   6.271  0.5542  0.9690 -0.0250
  189SLPC  H15A21779   5.267   3.284   6.273  0.0466 -0.5158  1.1202
  189SLPC  H15B21780   5.103   3.236   6.300 -0.0499  0.5652 -2.2358
  189SLPC  H15C21781   5.143   3.345   6.168 -1.4047 -0.1494  0.0592
  189SLPC   C1221782   5.000   3.488   6.350 -0.1179 -0.2369  0.4240
  189SLPC  H12A21783   4.931   3.407   6.369  1.0982 -1.5315 -0.4698
  189SLPC  H12B21784   4.987   3.508   6.244  0.8261 -3.2373 -0.3701
  189SLPC   C1121785   4.950   3.602   6.438 -0.0155 -0.0336 -0.2469
  189SLPC  H11A21786   4.967   3.562   6.540 -0.0888  2.0145  0.6045
  189SLPC  H11B21787   4.842   3.628   6.450  0.2171  0.4447  0.9890
  189SLPC     P21788   4.960   3.830   6.326  0.0224  0.1074  0.2238
  189SLPC   O1321789   5.048   3.949   6.312 -0.1280 -0.1278 -0.1851
  189SLPC   O1421790   4.915   3.761   6.205  0.1977  0.8336 -0.6121
  189SLPC   O1221791   5.025   3.726   6.417 -0.3069  0.2492 -0.1381
  189SLPC   O1121792   4.829   3.868   6.415  0.3617 -0.4834 -0.5159
  189SLPC    C121793   4.837   3.992   6.493  0.3244  1.0300  0.3735
  189SLPC    HA21794   4.891   4.080   6.452  0.4009  2.0084  2.4348
  189SLPC    HB21795   4.733   4.029   6.505  0.5835  0.8919  4.1108
  189SLPC    C221796   4.899   3.967   6.630  0.1813 -0.1172 -0.4862
  189SLPC    HS21797   4.989   3.905   6.609  0.8473  0.5572  0.3409
  189SLPC   O2121798   4.790   3.899   6.698 -0.4741 -0.3498 -0.0043
  189SLPC   C2121799   4.836   3.798   6.774  0.1809 -0.0986  0.3989
  189SLPC   O2221800   4.953   3.763   6.784  0.0949  0.6396 -0.1993
  189SLPC   C2221801   4.718   3.721   6.825 -0.1662  0.0844 -0.5461
  189SLPC   H2R21802   4.683   3.659   6.740  0.6134 -2.6868  1.0574
  189SLPC   H2S21803   4.756   3.652   6.903 -1.4273  2.5954  2.5020
  189SLPC    C321804   4.935   4.103   6.701  0.1767  0.4162 -0.6842
  189SLPC    HX21805   4.840   4.161   6.705 -1.2089 -1.5315 -2.8750
  189SLPC    HY21806   5.012   4.157   6.643  0.7762  1.8031  1.2785
  189SLPC   O3121807   4.973   4.076   6.838  0.3199  0.0725 -0.4966
  189SLPC   C3121808   5.103   4.049   6.864 -0.1104 -0.0899  0.0604
  189SLPC   O3221809   5.192   4.066   6.788  0.3083 -0.0994  0.3645
  189SLPC   C3221810   5.113   3.977   6.995 -0.1048 -0.0636 -0.2949
  189SLPC   H2X21811   5.024   3.918   7.026  0.6524 -0.6741  0.7887
  189SLPC   H2Y21812   5.116   4.047   7.081  1.2007 -1.1213  0.5503
  189SLPC   C2321813   4.619   3.822   6.880 -0.1124  0.4676  1.6588
  189SLPC   H3R21814   4.540   3.756   6.921 -1.0880  2.0340  2.3938
  189SLPC   H3S21815   4.569   3.886   6.804 -0.3094 -0.2157  1.2060
  189SLPC   C2421816   4.674   3.907   6.997  0.7440 -0.5860  0.3746
  189SLPC   H4R21817   4.592   3.974   7.030 -1.1189 -2.0999 -0.9064
  189SLPC   H4S21818   4.750   3.980   6.961  0.2568  0.1305  0.7739
  189SLPC   C2521819   4.714   3.816   7.113 -0.0648  0.4726 -0.2526
  189SLPC   H5R21820   4.789   3.741   7.081 -1.2141 -2.0258  2.4010
  189SLPC   H5S21821   4.619   3.769   7.147 -0.8651  0.6412 -2.1165
  189SLPC   C2621822   4.786   3.895   7.222 -0.3287 -0.2231  0.5439
  189SLPC   H6R21823   4.717   3.972   7.263 -1.1789  0.1648 -1.4765
  189SLPC   H6S21824   4.869   3.951   7.173 -1.5060 -0.1150 -1.4189
  189SLPC   C2721825   4.844   3.803   7.330  0.6010  0.2109  0.3499
  189SLPC   H7R21826   4.925   3.743   7.285  0.5348  1.0715 -0.9918
  189SLPC   H7S21827   4.769   3.728   7.363  0.9762 -1.0257 -1.4672
  189SLPC   C2821828   4.936   3.869   7.431 -1.1717  0.3000 -0.6921
  189SLPC   H8R21829   4.997   3.951   7.387  0.7999 -1.2557 -1.0036
  189SLPC   H8S21830   4.995   3.789   7.480  1.1112  1.8339 -0.7665
  189SLPC   C2921831   4.849   3.929   7.538  0.6818  0.5673  0.3289
  189SLPC   H9R21832   4.742   3.944   7.518  1.0161 -0.2621 -2.4601
  189SLPC  C21021833   4.888   3.950   7.663 -0.2772 -0.4989 -0.0069
  189SLPC  H10R21834   4.813   3.984   7.737 -0.4956  1.0472 -0.8965
  189SLPC  C21121835   5.031   3.941   7.716  0.1682  0.2474 -0.0700
  189SLPC  H11R21836   5.063   4.043   7.746  1.3959 -0.0686 -0.2531
  189SLPC  H11S21837   5.099   3.910   7.634  0.7366 -2.2416  1.2165
  189SLPC  C21221838   5.035   3.828   7.823  0.1359  0.9024 -0.1045
  189SLPC  H12R21839   4.991   3.733   7.791  2.6483  0.8063 -3.9691
  189SLPC  C21321840   5.088   3.831   7.946  0.1855  0.6233  0.3986
  189SLPC  H13R21841   5.069   3.737   8.000 -1.7340  1.2934  0.9596
  189SLPC  C21421842   5.156   3.941   8.015 -0.1975 -1.0051  0.3833
  189SLPC  H14R21843   5.201   4.016   7.947  1.3542 -0.1929  2.1915
  189SLPC  H14S21844   5.248   3.900   8.063 -0.9239 -1.9590  1.0101
  189SLPC  C21521845   5.067   4.002   8.126 -0.1157 -0.1792  0.2578
  189SLPC  H15R21846   5.069   3.930   8.210  1.0313  0.2147  0.5778
  189SLPC  H15S21847   4.965   4.021   8.084  0.0144 -1.9349 -0.9899
  189SLPC  C21621848   5.132   4.139   8.158 -0.3447  0.3201  0.4274
  189SLPC  H16R21849   5.114   4.195   8.064  0.8174  1.6710  0.9818
  189SLPC  H16S21850   5.241   4.130   8.177 -0.0460  1.8218 -0.4980
  189SLPC  C21721851   5.075   4.196   8.284  0.8612  0.6342  0.1370
  189SLPC  H17R21852   5.129   4.292   8.299 -0.2376  1.2644  0.1615
  189SLPC  H17S21853   5.104   4.127   8.365 -0.4793  0.9471  0.9014
  189SLPC  C21821854   4.921   4.216   8.283  0.0916  0.7488  0.5360
  189SLPC  H18R21855   4.892   4.266   8.378  0.2522  2.1388 -0.1223
  189SLPC  H18S21856   4.881   4.112   8.280 -1.4277  1.3007 -2.6832
  189SLPC  H18T21857   4.891   4.267   8.189  0.2942  1.5362  0.8892
  189SLPC   C3321858   5.229   3.881   6.984 -0.3777  0.0457 -0.1380
  189SLPC   H3X21859   5.328   3.930   6.977  0.3718 -1.6373 -3.1021
  189SLPC   H3Y21860   5.216   3.814   6.896 -0.4772 -1.0255  0.6578
  189SLPC   C3421861   5.223   3.774   7.092  0.2159 -0.5270 -0.3734
  189SLPC   H4X21862   5.290   3.690   7.063  0.7181 -1.1251  2.2474
  189SLPC   H4Y21863   5.122   3.728   7.092 -1.5253  2.9728 -1.0065
  189SLPC   C3521864   5.264   3.827   7.231 -0.6377  1.0557 -0.2754
  189SLPC   H5X21865   5.197   3.897   7.285  0.3696  0.6188  1.6275
  189SLPC   H5Y21866   5.361   3.880   7.219  0.6171 -0.7312  1.3607
  189SLPC   C3621867   5.300   3.706   7.319  0.4799  0.1948  0.0806
  189SLPC   H6X21868   5.398   3.662   7.294 -0.4336 -1.3417 -0.9821
  189SLPC   H6Y21869   5.222   3.631   7.292 -1.5001  2.6855 -1.6139
  189SLPC   C3721870   5.301   3.743   7.466  0.0451  0.3498  0.1573
  189SLPC   H7X21871   5.261   3.655   7.521  2.9131 -0.8942  0.4130
  189SLPC   H7Y21872   5.228   3.826   7.482 -0.6719 -0.4905  1.4270
  189SLPC   C3821873   5.430   3.793   7.517 -0.1836 -0.4459 -0.2477
  189SLPC   H8X21874   5.468   3.868   7.444 -0.3149 -0.7267 -0.6057
  189SLPC   H8Y21875   5.513   3.725   7.546 -1.4183 -0.9729  2.3692
  189SLPC   C3921876   5.406   3.871   7.649 -0.1299 -1.0418  0.5216
  189SLPC   H9X21877   5.392   3.804   7.736 -0.6000  0.1848  1.4145
  189SLPC   H9Y21878   5.321   3.942   7.639  0.0778 -0.7900  0.5342
  189SLPC  C31021879   5.541   3.954   7.671 -0.1097 -0.3345 -0.7351
  189SLPC  H10X21880   5.547   4.036   7.597 -0.2330  1.1021  0.7854
  189SLPC  H10Y21881   5.622   3.879   7.664  1.5493  1.4364 -1.2430
  189SLPC  C31121882   5.547   4.009   7.817  0.1113 -0.3031 -0.2721
  189SLPC  H11X21883   5.465   3.973   7.883  0.6040 -0.4583  0.2690
  189SLPC  H11Y21884   5.546   4.120   7.815  2.1716 -0.1925  1.4685
  189SLPC  C31221885   5.685   3.968   7.880  0.4084  0.0588 -0.1103
  189SLPC  H12X21886   5.747   4.034   7.815 -2.8222  1.5766 -1.9167
  189SLPC  H12Y21887   5.710   3.861   7.865  1.6593  0.2038  0.8081
  189SLPC  C31321888   5.701   4.011   8.031 -0.4241 -0.8293  0.4651
  189SLPC  H13X21889   5.621   3.971   8.097 -1.5644  2.4414  1.2739
  189SLPC  H13Y21890   5.706   4.121   8.044 -0.0305 -0.8425  0.4352
  189SLPC  C31421891   5.833   3.956   8.090 -0.3669  0.4332  0.3146
  189SLPC  H14X21892   5.924   3.980   8.031  0.2246 -0.6123  0.7728
  189SLPC  H14Y21893   5.830   3.845   8.088  0.8304  0.3440  1.4315
  189SLPC  C31521894   5.843   4.000   8.235  0.1437 -0.0679  0.3756
  189SLPC  H15X21895   5.769   3.927   8.276 -0.2465 -0.3595 -0.8044
  189SLPC  H15Y21896   5.833   4.108   8.255  2.6314  0.4772 -0.8969
  189SLPC  C31621897   5.971   3.956   8.299  0.5201 -0.6200  0.1186
  189SLPC  H16X21898   6.007   3.863   8.252 -1.6832 -1.3337 -0.2763
  189SLPC  H16Y21899   5.956   3.931   8.406  0.0001 -1.1120 -0.0640
  189SLPC  C31721900   6.083   4.064   8.311  0.2974  0.2942  0.9876
  189SLPC  H17X21901   6.033   4.156   8.350  0.6918  1.2663 -0.6976
  189SLPC  H17Y21902   6.109   4.088   8.206 -0.7046  0.6561  0.8101
  189SLPC  C31821903   6.207   4.019   8.393  0.2950 -0.1093 -0.2105
  189SLPC  H18X21904   6.256   3.927   8.353 -1.9198 -1.7566  0.6989
  189SLPC  H18Y21905   6.170   3.997   8.495 -2.0597  1.1937 -0.7072
  189SLPC  H18Z21906   6.282   4.100   8.407 -0.2718  0.4774 -0.4863
  190SLPC     N21907   3.747   4.105   6.039 -0.3209 -0.1128 -0.4784
  190SLPC   C1321908   3.796   4.041   5.913 -0.1079 -0.6190  0.5466
  190SLPC  H13A21909   3.774   3.935   5.915  1.8153 -1.0577  0.7939
  190SLPC  H13B21910   3.757   4.091   5.826  0.0779 -0.1607  0.7217
  190SLPC  H13C21911   3.904   4.046   5.905  0.0126 -1.4521  1.4451
  190SLPC   C1421912   3.597   4.089   6.048  0.3001  0.0966 -1.2044
  190SLPC  H14A21913   3.551   4.164   5.985 -0.3228  0.6693 -0.1211
  190SLPC  H14B21914   3.576   3.987   6.023  2.0935 -1.4071  2.6333
  190SLPC  H14C21915   3.567   4.105   6.151 -3.4819 -1.1066 -1.9803
  190SLPC   C1521916   3.777   4.247   6.045  0.2282 -0.7020  0.4024
  190SLPC  H15A21917   3.731   4.295   5.960  1.6347  0.2664  0.1446
  190SLPC  H15B21918   3.750   4.296   6.137  0.4776 -2.0123  1.2037
  190SLPC  H15C21919   3.883   4.261   6.030  0.9797 -2.8338  2.9126
  190SLPC   C1221920   3.804   4.029   6.156 -0.2049 -0.0216  0.2712
  190SLPC  H12A21921   3.795   3.922   6.139  1.2328 -0.2566  0.7759
  190SLPC  H12B21922   3.743   4.048   6.243  0.3545 -2.5774  1.3357
  190SLPC   C1121923   3.944   4.079   6.203 -0.9870 -0.4241  0.5916
  190SLPC  H11A21924   3.963   4.027   6.299 -1.3916 -1.6651  0.0291
  190SLPC  H11B21925   3.954   4.184   6.237 -1.3041 -0.5304  1.0189
  190SLPC     P21926   4.196   4.067   6.152 -0.2919  0.3476 -0.0323
  190SLPC   O1321927   4.291   4.011   6.047  0.1759 -0.6524  0.5111
  190SLPC   O1421928   4.218   4.206   6.184  0.9897  0.0305 -0.0226
  190SLPC   O1221929   4.046   4.056   6.104  0.1496  0.0297 -0.3503
  190SLPC   O1121930   4.208   3.984   6.285  0.1048  0.4801 -0.1891
  190SLPC    C121931   4.189   3.844   6.281  0.6538  0.4035 -0.2674
  190SLPC    HA21932   4.106   3.807   6.218  1.4739 -1.3091 -0.4073
  190SLPC    HB21933   4.285   3.794   6.255  0.2686 -0.5901  0.1954
  190SLPC    C221934   4.148   3.786   6.426  0.2535 -0.1192 -0.6889
  190SLPC    HS21935   4.047   3.818   6.457  0.5044 -0.0056  0.0323
  190SLPC   O2121936   4.247   3.836   6.519 -0.0395 -0.4261 -0.3623
  190SLPC   C2121937   4.211   3.943   6.593  0.2533 -0.2134 -0.0851
  190SLPC   O2221938   4.109   4.009   6.573 -1.0291 -0.3641  0.1035
  190SLPC   C2221939   4.303   3.960   6.721  0.2065  0.1621  0.2473
  190SLPC   H2R21940   4.311   3.857   6.761  1.2104 -0.7873 -2.1695
  190SLPC   H2S21941   4.405   3.988   6.686  0.0828  0.3269  0.0069
  190SLPC    C321942   4.146   3.633   6.413  0.5363 -0.0215  0.2462
  190SLPC    HX21943   4.242   3.578   6.414 -0.9970 -2.9423 -0.2063
  190SLPC    HY21944   4.088   3.617   6.320  0.9512 -0.2843  0.0308
  190SLPC   O3121945   4.057   3.580   6.513  0.1179  0.1063  0.3215
  190SLPC   C3121946   4.116   3.557   6.623 -0.4208  0.1010 -0.5969
  190SLPC   O3221947   4.237   3.565   6.647 -0.2491 -0.1363  0.1198
  190SLPC   C3221948   4.013   3.499   6.713 -0.0236 -0.1926  0.1036
  190SLPC   H2X21949   3.972   3.416   6.652  0.6748 -0.3224 -0.1935
  190SLPC   H2Y21950   3.935   3.578   6.726  1.0406  0.8193  0.5185
  190SLPC   C2321951   4.253   4.055   6.830  0.2194 -0.1541  0.8915
  190SLPC   H3R21952   4.154   4.027   6.874  0.7363 -1.8262  1.0780
  190SLPC   H3S21953   4.251   4.155   6.783  0.5607 -1.0386 -1.0889
  190SLPC   C2421954   4.345   4.046   6.958 -0.1796  0.7667  0.3046
  190SLPC   H4R21955   4.432   4.114   6.942  0.3342 -0.2883 -1.7874
  190SLPC   H4S21956   4.382   3.941   6.964  1.1305  1.1958  0.1226
  190SLPC   C2521957   4.277   4.085   7.081  0.0865 -0.1414 -0.0984
  190SLPC   H5R21958   4.207   3.999   7.085 -0.5284  0.3571 -0.0106
  190SLPC   H5S21959   4.209   4.173   7.081 -0.2538 -0.3245  2.1636
  190SLPC   C2621960   4.367   4.071   7.205  0.2889 -0.3789 -0.3249
  190SLPC   H6R21961   4.449   4.146   7.196  0.5855 -0.6230  0.2491
  190SLPC   H6S21962   4.414   3.972   7.189  0.7334 -0.0571 -1.1106
  190SLPC   C2721963   4.299   4.068   7.337 -0.2962  0.6481 -1.0244
  190SLPC   H7R21964   4.219   3.991   7.343 -0.8810  1.3324  0.4682
  190SLPC   H7S21965   4.243   4.162   7.355 -0.8373  0.6921 -2.7693
  190SLPC   C2821966   4.395   4.039   7.454  0.0248 -0.2831  0.2757
  190SLPC   H8R21967   4.458   3.949   7.440 -2.2864 -2.4088  2.4719
  190SLPC   H8S21968   4.342   4.007   7.546 -2.4374  0.7062 -0.7171
  190SLPC   C2921969   4.478   4.167   7.487  0.0406 -0.0234  0.1847
  190SLPC   H9R21970   4.528   4.205   7.396  2.1677 -4.6524 -0.8537
  190SLPC  C21021971   4.492   4.229   7.605 -0.0822  0.3933  0.0372
  190SLPC  H10R21972   4.548   4.323   7.610  1.1369 -0.3473  0.9505
  190SLPC  C21121973   4.438   4.190   7.742  0.7105  0.2368  0.2543
  190SLPC  H11R21974   4.516   4.149   7.809  1.2226 -1.8955 -1.5571
  190SLPC  H11S21975   4.350   4.126   7.720  1.1265  0.3853 -2.0066
  190SLPC  C21221976   4.395   4.323   7.806  0.0242 -0.0213  0.9719
  190SLPC  H12R21977   4.346   4.393   7.738 -0.9325  0.4464  2.1082
  190SLPC  C21321978   4.409   4.353   7.935 -0.2205 -0.2844  0.0243
  190SLPC  H13R21979   4.366   4.448   7.971 -1.0979 -1.1663  1.3910
  190SLPC  C21421980   4.463   4.271   8.042 -0.4887  1.0002 -0.1301
  190SLPC  H14R21981   4.556   4.225   8.004 -1.4126 -1.2961  0.2351
  190SLPC  H14S21982   4.390   4.188   8.059  0.8898 -0.3186 -0.4581
  190SLPC  C21521983   4.488   4.351   8.173 -0.4446  0.5790  0.2039
  190SLPC  H15R21984   4.409   4.425   8.197 -0.6357  0.2861  0.4867
  190SLPC  H15S21985   4.585   4.405   8.168 -1.2278  2.0169 -0.0186
  190SLPC  C21621986   4.513   4.270   8.299  0.3040 -0.0305  0.0761
  190SLPC  H16R21987   4.619   4.238   8.294  0.5213  0.8221 -1.1052
  190SLPC  H16S21988   4.449   4.180   8.298  1.2095 -0.8188  3.0101
  190SLPC  C21721989   4.484   4.351   8.427 -0.0270  0.7030 -0.3013
  190SLPC  H17R21990   4.475   4.268   8.500 -0.3117  0.0283 -1.0846
  190SLPC  H17S21991   4.384   4.401   8.426  0.7227  2.5356  2.8720
  190SLPC  C21821992   4.576   4.471   8.471 -0.3319 -0.2826 -0.0181
  190SLPC  H18R21993   4.683   4.441   8.467  0.3728  2.1775 -2.7604
  190SLPC  H18S21994   4.564   4.486   8.581  0.9471  0.7132  0.0041
  190SLPC  H18T21995   4.562   4.556   8.402  1.2654 -1.2170 -1.5809
  190SLPC   C3321996   4.063   3.441   6.852  0.3585 -0.4693  0.5158
  190SLPC   H3X21997   4.143   3.366   6.837  0.3290 -0.1448 -1.5377
  190SLPC   H3Y21998   3.974   3.386   6.891 -1.1834  2.2932  1.1846
  190SLPC   C3421999   4.084   3.544   6.964 -0.3240  0.6625 -0.1439
  190SLPC   H4X22000   4.081   3.481   7.055  1.9620 -2.6570 -2.1514
  190SLPC   H4Y22001   4.012   3.628   6.971  0.4946  1.2972  1.0619
  190SLPC   C3522002   4.222   3.620   6.960 -0.4353  0.0787  0.7597
  190SLPC   H5X22003   4.229   3.696   6.880  0.4655 -0.7685  0.0168
  190SLPC   H5Y22004   4.299   3.544   6.938 -0.3245  0.2303  0.6215
  190SLPC   C3622005   4.272   3.675   7.095  0.2710 -0.0399  0.4608
  190SLPC   H6X22006   4.209   3.766   7.110  0.2023 -0.3583  2.3818
  190SLPC   H6Y22007   4.376   3.711   7.083  0.8897 -1.7583  0.5114
  190SLPC   C3722008   4.281   3.570   7.212 -0.0729 -0.2269  0.0852
  190SLPC   H7X22009   4.344   3.484   7.181 -0.5765 -0.4099 -0.4384
  190SLPC   H7Y22010   4.178   3.540   7.243  0.4757  0.5800  3.0405
  190SLPC   C3822011   4.348   3.639   7.330  0.3652  0.2279  0.4056
  190SLPC   H8X22012   4.298   3.737   7.345 -0.2643  0.3341 -2.0562
  190SLPC   H8Y22013   4.451   3.663   7.298 -0.4739 -0.8955 -3.6093
  190SLPC   C3922014   4.354   3.548   7.451  0.8377  0.9662 -0.2599
  190SLPC   H9X22015   4.420   3.462   7.426 -0.7990 -0.4157  0.0626
  190SLPC   H9Y22016   4.252   3.509   7.468  0.4306  1.2880 -1.7734
  190SLPC  C31022017   4.409   3.624   7.576  0.9895 -0.4422 -0.0409
  190SLPC  H10X22018   4.334   3.705   7.589  0.9231 -0.7290  1.5482
  190SLPC  H10Y22019   4.502   3.673   7.539  1.9280  1.4339  4.2105
  190SLPC  C31122020   4.414   3.542   7.709 -0.2211  0.1988 -0.3435
  190SLPC  H11X22021   4.495   3.466   7.699 -0.5777 -0.0719 -1.3394
  190SLPC  H11Y22022   4.311   3.500   7.713 -0.2424  0.0378 -1.7776
  190SLPC  C31222023   4.438   3.634   7.829  0.4057 -0.2358 -0.0700
  190SLPC  H12X22024   4.468   3.571   7.915  2.3026 -0.5951 -0.9542
  190SLPC  H12Y22025   4.345   3.689   7.856 -0.2041 -1.2163 -0.0979
  190SLPC  C31322026   4.548   3.737   7.800 -0.3019  1.0671  0.4049
  190SLPC  H13X22027   4.532   3.803   7.712  2.2105  2.3343  0.8010
  190SLPC  H13Y22028   4.645   3.685   7.785 -0.4375  0.8104  0.4240
  190SLPC  C31422029   4.568   3.849   7.908  0.2678 -0.0874  0.9579
  190SLPC  H14X22030   4.488   3.927   7.907 -0.1406 -0.4600 -1.1421
  190SLPC  H14Y22031   4.659   3.909   7.886 -1.0308  2.3195  1.7805
  190SLPC  C31522032   4.598   3.800   8.046 -0.0101  0.1392 -0.1935
  190SLPC  H15X22033   4.704   3.769   8.038  0.3349  1.1345  0.4184
  190SLPC  H15Y22034   4.538   3.708   8.065  1.3303 -1.0467 -1.5006
  190SLPC  C31622035   4.577   3.911   8.147 -0.5339  0.0269 -0.0368
  190SLPC  H16X22036   4.471   3.941   8.160 -1.0124 -1.9198  1.0433
  190SLPC  H16Y22037   4.641   4.001   8.133 -0.9907  0.6149  1.4201
  190SLPC  C31722038   4.618   3.848   8.284 -0.3964 -0.1124 -0.1014
  190SLPC  H17X22039   4.718   3.801   8.270 -1.3035 -2.3191  0.4703
  190SLPC  H17Y22040   4.551   3.766   8.314  0.1774 -0.8517 -0.7971
  190SLPC  C31822041   4.616   3.948   8.390  0.1413  0.2497 -0.7041
  190SLPC  H18X22042   4.697   4.022   8.374  2.0022 -1.4172  0.7107
  190SLPC  H18Y22043   4.623   3.911   8.494  1.3459  3.1522  0.3369
  190SLPC  H18Z22044   4.521   4.006   8.387  0.9953  1.8291  1.1567
  191SLPC     N22045   5.345   4.710   5.638 -0.0442  0.3961  0.5672
  191SLPC   C1322046   5.233   4.616   5.621  0.6260  0.2696 -0.2019
  191SLPC  H13A22047   5.261   4.518   5.658  1.6266  1.5180  2.6232
  191SLPC  H13B22048   5.152   4.651   5.684  1.5417  2.3573 -0.0965
  191SLPC  H13C22049   5.196   4.612   5.520 -1.7946 -0.7789  0.6472
  191SLPC   C1422050   5.287   4.844   5.584 -0.1564 -0.2139  0.1367
  191SLPC  H14A22051   5.209   4.892   5.642  1.9377  1.9296  1.4206
  191SLPC  H14B22052   5.369   4.915   5.575  0.3133 -0.4687  1.9928
  191SLPC  H14C22053   5.254   4.834   5.482 -0.0869  0.3275  0.0584
  191SLPC   C1522054   5.448   4.669   5.537 -0.0212  0.1660  0.9542
  191SLPC  H15A22055   5.402   4.627   5.449  0.3841  0.6568  0.4934
  191SLPC  H15B22056   5.506   4.750   5.494  0.1739 -1.0641 -1.2485
  191SLPC  H15C22057   5.510   4.589   5.574 -0.5687 -1.0921 -0.7135
  191SLPC   C1222058   5.390   4.715   5.777 -0.6303 -0.6678 -0.5548
  191SLPC  H12A22059   5.314   4.751   5.844  0.0250 -1.4293  0.6225
  191SLPC  H12B22060   5.475   4.778   5.796  0.9891 -2.7416 -0.6135
  191SLPC   C1122061   5.454   4.579   5.836 -0.5850 -0.3119  0.5166
  191SLPC  H11A22062   5.393   4.487   5.825  1.0347 -1.2845 -0.6421
  191SLPC  H11B22063   5.467   4.583   5.946  0.0012 -1.3902  0.4900
  191SLPC     P22064   5.712   4.609   5.821  0.0525  0.1266  0.3073
  191SLPC   O1322065   5.821   4.582   5.728  0.4996  0.1647 -0.3424
  191SLPC   O1422066   5.698   4.750   5.864 -0.5883  0.3262 -0.5664
  191SLPC   O1222067   5.578   4.546   5.763  0.3681 -0.3348 -0.1176
  191SLPC   O1122068   5.748   4.526   5.950 -0.1615  0.7775 -0.8385
  191SLPC    C122069   5.697   4.393   5.961  0.5322 -0.6613 -0.2330
  191SLPC    HA22070   5.598   4.379   5.912  1.4202 -1.3127 -1.9408
  191SLPC    HB22071   5.775   4.326   5.921 -0.3090 -2.9876  1.7775
  191SLPC    C222072   5.676   4.355   6.107 -0.2299 -0.6097  0.1055
  191SLPC    HS22073   5.667   4.244   6.106 -3.1859 -0.5031  2.2328
  191SLPC   O2122074   5.546   4.405   6.157 -1.2357 -0.0201  0.1024
  191SLPC   C2122075   5.504   4.365   6.272 -0.2844 -0.1568 -0.3588
  191SLPC   O2222076   5.535   4.262   6.329  0.1097  0.2524  0.1712
  191SLPC   C2222077   5.393   4.466   6.323 -0.6764 -0.1949  0.5056
  191SLPC   H2R22078   5.354   4.516   6.232 -0.5544 -0.6774  0.1824
  191SLPC   H2S22079   5.317   4.404   6.374 -2.9041  1.0108 -1.1783
  191SLPC    C322080   5.791   4.404   6.203  0.0091 -0.5905 -0.3960
  191SLPC    HX22081   5.758   4.509   6.219 -3.1588 -1.2221 -2.0793
  191SLPC    HY22082   5.887   4.412   6.147 -0.2520 -0.8263 -0.8774
  191SLPC   O3122083   5.793   4.341   6.326  0.2660 -0.0206 -0.8994
  191SLPC   C3122084   5.860   4.226   6.327 -0.1543 -0.1071  0.5014
  191SLPC   O3222085   5.894   4.168   6.225 -1.0664  0.2221 -0.0742
  191SLPC   C3222086   5.890   4.181   6.472 -0.2651  0.6539 -0.9088
  191SLPC   H2X22087   5.876   4.071   6.471  0.2548  0.4498  2.5126
  191SLPC   H2Y22088   5.819   4.228   6.543 -0.1779 -0.1292 -0.2993
  191SLPC   C2322089   5.451   4.553   6.438  0.8452 -0.2391  0.1088
  191SLPC   H3R22090   5.371   4.614   6.484  0.8699 -1.3593  1.7388
  191SLPC   H3S22091   5.532   4.616   6.396 -1.4466  1.3385 -2.1630
  191SLPC   C2422092   5.499   4.457   6.552 -0.1090  0.1886 -0.5409
  191SLPC   H4R22093   5.595   4.410   6.523 -1.7595 -2.7189 -1.8392
  191SLPC   H4S22094   5.424   4.374   6.557  0.1089 -0.1760 -2.3289
  191SLPC   C2522095   5.514   4.526   6.685 -0.2902  0.4875 -0.7518
  191SLPC   H5R22096   5.413   4.551   6.724 -0.0180 -0.5904  0.7292
  191SLPC   H5S22097   5.564   4.624   6.675  0.5818  0.5263  2.8119
  191SLPC   C2622098   5.584   4.434   6.793 -0.5967  0.3492 -0.2336
  191SLPC   H6R22099   5.691   4.422   6.766 -0.2559  0.4265  1.0033
  191SLPC   H6S22100   5.525   4.340   6.791  1.3191 -0.9122 -0.5145
  191SLPC   C2722101   5.566   4.497   6.929 -0.0196 -0.6997  0.0906
  191SLPC   H7R22102   5.593   4.420   7.005  1.8193 -0.6168 -0.4306
  191SLPC   H7S22103   5.457   4.512   6.947  0.2699 -0.5100  1.9826
  191SLPC   C2822104   5.640   4.621   6.965 -0.3599 -0.0217 -1.1900
  191SLPC   H8R22105   5.608   4.695   6.888 -1.6567  1.5873  0.7862
  191SLPC   H8S22106   5.750   4.605   6.969 -0.0692  2.0168  1.6333
  191SLPC   C2922107   5.610   4.675   7.108 -0.2264 -0.3193 -0.0676
  191SLPC   H9R22108   5.632   4.604   7.190 -0.9903 -0.1022  0.3370
  191SLPC  C21022109   5.553   4.799   7.140 -0.2521  0.5778  0.3415
  191SLPC  H10R22110   5.519   4.819   7.243 -1.4836 -0.0960  0.0823
  191SLPC  C21122111   5.513   4.912   7.048  0.7502  0.4033 -0.4442
  191SLPC  H11R22112   5.583   4.938   6.967  2.2812  0.2847  0.7953
  191SLPC  H11S22113   5.497   5.005   7.106 -1.7395 -0.9955  1.3369
  191SLPC  C21222114   5.384   4.868   6.984  0.7181 -0.1900  0.4760
  191SLPC  H12R22115   5.394   4.789   6.908  1.1421 -1.2079  1.5546
  191SLPC  C21322116   5.258   4.914   7.010 -0.0245  0.1355  0.0645
  191SLPC  H13R22117   5.177   4.892   6.939 -0.8551  0.5582  0.8455
  191SLPC  C21422118   5.213   5.010   7.112 -0.2178 -0.4408 -0.0629
  191SLPC  H14R22119   5.152   5.086   7.059 -2.2948 -0.0702  2.6068
  191SLPC  H14S22120   5.297   5.062   7.163 -0.6019  0.8508 -0.6920
  191SLPC  C21522121   5.116   4.946   7.210 -0.7574  0.1326 -0.5165
  191SLPC  H15R22122   5.035   4.901   7.148 -1.2913  1.5768 -0.8990
  191SLPC  H15S22123   5.071   5.026   7.272 -0.4726 -1.9609  2.6230
  191SLPC  C21622124   5.179   4.835   7.296 -0.0328 -0.9822 -0.5337
  191SLPC  H16R22125   5.238   4.771   7.227 -2.2792 -1.8013 -1.7987
  191SLPC  H16S22126   5.098   4.772   7.339 -0.9353 -0.5113 -1.4886
  191SLPC  C21722127   5.277   4.875   7.407  0.2740  0.4728 -0.4070
  191SLPC  H17R22128   5.222   4.929   7.487 -1.9821 -0.3217 -1.3326
  191SLPC  H17S22129   5.354   4.944   7.367  0.3269  2.1194  2.2924
  191SLPC  C21822130   5.344   4.753   7.475  0.3659  0.8416 -0.0349
  191SLPC  H18R22131   5.372   4.674   7.402 -1.5511 -1.1616  1.2292
  191SLPC  H18S22132   5.270   4.717   7.550 -3.7119  2.6986 -2.7975
  191SLPC  H18T22133   5.442   4.786   7.516  0.2456  0.4011  0.6328
  191SLPC   C3322134   6.036   4.216   6.514 -0.3963  0.2644 -0.5740
  191SLPC   H3X22135   6.090   4.168   6.430 -0.4514 -0.3664 -0.2541
  191SLPC   H3Y22136   6.053   4.160   6.609  0.2163  2.7819  0.9172
  191SLPC   C3422137   6.056   4.363   6.545 -0.5935 -0.2966 -0.7996
  191SLPC   H4X22138   5.982   4.413   6.479 -4.9458 -2.7506  1.8194
  191SLPC   H4Y22139   6.156   4.405   6.518 -1.2005  0.3479 -2.1595
  191SLPC   C3522140   6.017   4.393   6.693 -0.2023  0.4497 -0.2234
  191SLPC   H5X22141   5.938   4.318   6.714  0.1387  0.3455  0.7421
  191SLPC   H5Y22142   5.977   4.497   6.696  1.0342  0.9858 -1.3481
  191SLPC   C3622143   6.138   4.385   6.782  0.2857 -0.3224  0.6651
  191SLPC   H6X22144   6.212   4.463   6.755  1.9820 -1.8051  0.8222
  191SLPC   H6Y22145   6.184   4.283   6.778 -2.7944 -1.8878  1.5441
  191SLPC   C3722146   6.118   4.399   6.929  0.1151  0.5847 -0.2206
  191SLPC   H7X22147   6.212   4.372   6.981  0.0926 -1.5101 -1.1903
  191SLPC   H7Y22148   6.049   4.319   6.960 -0.3262  0.0060 -2.5200
  191SLPC   C3822149   6.068   4.538   6.976  0.1783 -0.2446 -0.4616
  191SLPC   H8X22150   5.967   4.555   6.933 -0.6115  3.2363  2.3312
  191SLPC   H8Y22151   6.140   4.616   6.942 -0.0065  0.6271  1.0671
  191SLPC   C3922152   6.057   4.554   7.130 -0.1163 -0.4553 -0.3828
  191SLPC   H9X22153   6.147   4.508   7.178  2.0273  0.6884 -3.0623
  191SLPC   H9Y22154   5.972   4.489   7.160  0.5166 -1.0399  0.1936
  191SLPC  C31022155   6.031   4.707   7.174 -0.9479  1.5104  0.4220
  191SLPC  H10X22156   5.951   4.755   7.113  0.1615 -0.0076 -2.4390
  191SLPC  H10Y22157   6.124   4.763   7.151 -0.4953 -0.1713 -2.3253
  191SLPC  C31122158   5.979   4.723   7.317  0.5587 -0.1519  0.3312
  191SLPC  H11X22159   5.884   4.667   7.332  0.8533 -0.6852  0.2550
  191SLPC  H11Y22160   5.971   4.834   7.313  1.1284 -0.0526  1.4435
  191SLPC  C31222161   6.090   4.686   7.415  0.1290  0.3061 -0.1543
  191SLPC  H12X22162   6.186   4.736   7.390  1.0337 -1.1598  0.2607
  191SLPC  H12Y22163   6.121   4.581   7.394  0.5137  0.1424  1.1179
  191SLPC  C31322164   6.041   4.706   7.560  0.3917 -0.7803  0.2622
  191SLPC  H13X22165   6.133   4.695   7.622  1.2076  2.0001 -0.2912
  191SLPC  H13Y22166   5.968   4.627   7.584  1.6344 -1.7294  1.0713
  191SLPC  C31422167   5.986   4.844   7.590  0.8372  0.3672 -0.8438
  191SLPC  H14X22168   5.892   4.866   7.535 -0.9282 -2.3773  0.8157
  191SLPC  H14Y22169   6.061   4.922   7.566  1.5793  0.1208  0.5405
  191SLPC  C31522170   5.955   4.854   7.739 -0.6072 -0.0066 -0.9595
  191SLPC  H15X22171   5.930   4.960   7.761  0.6522 -0.0072  0.6376
  191SLPC  H15Y22172   6.039   4.820   7.802 -0.9616 -1.4388 -1.2187
  191SLPC  C31622173   5.835   4.770   7.780  0.2435 -0.0924 -0.0727
  191SLPC  H16X22174   5.875   4.668   7.765 -0.0483  0.0776 -2.3516
  191SLPC  H16Y22175   5.755   4.788   7.704  1.0158 -0.0275 -0.8801
  191SLPC  C31722176   5.775   4.787   7.918 -0.0390 -0.5639 -0.1285
  191SLPC  H17X22177   5.742   4.891   7.936 -1.6711 -1.1917  0.6988
  191SLPC  H17Y22178   5.855   4.759   7.990  1.5206  1.1065 -1.1539
  191SLPC  C31822179   5.660   4.692   7.940  0.0296 -0.5498 -0.3181
  191SLPC  H18X22180   5.631   4.676   8.045 -0.3817  2.2202  0.0859
  191SLPC  H18Y22181   5.684   4.593   7.896  0.5353  0.2261 -1.8794
  191SLPC  H18Z22182   5.564   4.724   7.895 -1.0576 -1.7955  1.0387
  192SLPC     N22183   5.690   5.309   6.279 -0.5814  0.5777  0.2422
  192SLPC   C1322184   5.698   5.158   6.281  0.1163 -0.6854 -0.1476
  192SLPC  H13A22185   5.601   5.128   6.319 -0.0739  2.2391  2.0394
  192SLPC  H13B22186   5.711   5.126   6.179  0.1854 -3.6246  0.6783
  192SLPC  H13C22187   5.780   5.126   6.344 -2.1982 -2.1287  2.3547
  192SLPC   C1422188   5.572   5.338   6.189  0.6667  0.9428 -0.9153
  192SLPC  H14A22189   5.560   5.442   6.162 -1.0588  0.8162 -0.7745
  192SLPC  H14B22190   5.596   5.285   6.098 -0.5252 -0.9024 -0.2047
  192SLPC  H14C22191   5.475   5.301   6.218  0.8445  0.7877 -0.5190
  192SLPC   C1522192   5.819   5.372   6.226 -1.0393  0.3746  0.0323
  192SLPC  H15A22193   5.804   5.479   6.223  0.6438  0.6290 -0.7586
  192SLPC  H15B22194   5.892   5.364   6.305  0.6410  0.6065 -1.4167
  192SLPC  H15C22195   5.854   5.330   6.133 -0.7917  1.2443 -0.2773
  192SLPC   C1222196   5.656   5.354   6.426 -0.1246 -0.1670 -0.5079
  192SLPC  H12A22197   5.574   5.293   6.462 -0.6898  0.5594 -0.5474
  192SLPC  H12B22198   5.632   5.459   6.432  0.7310 -0.0416  2.7215
  192SLPC   C1122199   5.776   5.342   6.521  0.2084  0.2413 -0.4947
  192SLPC  H11A22200   5.803   5.234   6.516 -0.5377  0.0372 -0.1894
  192SLPC  H11B22201   5.741   5.353   6.626  2.3706 -0.5435  0.3829
  192SLPC     P22202   5.893   5.578   6.519 -0.0118  0.2981 -0.1148
  192SLPC   O1322203   6.025   5.628   6.484  0.5815  0.1642  0.2843
  192SLPC   O1422204   5.786   5.640   6.449  0.2424  0.4780 -0.7463
  192SLPC   O1222205   5.886   5.427   6.487 -0.1782 -0.0474 -0.8085
  192SLPC   O1122206   5.867   5.572   6.675 -0.4680 -0.5647 -0.0516
  192SLPC    C122207   5.974   5.508   6.754 -0.1926 -0.3360  0.1345
  192SLPC    HA22208   5.972   5.398   6.739 -1.2831 -0.2964 -0.1438
  192SLPC    HB22209   6.079   5.538   6.733  0.3064  1.7941  4.5066
  192SLPC    C222210   5.953   5.538   6.902 -0.0395  0.1185 -0.4917
  192SLPC    HS22211   6.053   5.533   6.949 -1.7913 -1.5925  3.5729
  192SLPC   O2122212   5.865   5.439   6.966  0.6036 -0.5695  0.0850
  192SLPC   C2122213   5.937   5.338   7.018  0.0799  0.7510 -0.4418
  192SLPC   O2222214   6.054   5.312   6.994 -0.4242  0.1848  0.3684
  192SLPC   C2222215   5.836   5.253   7.106 -0.3437  0.0358  0.7484
  192SLPC   H2R22216   5.801   5.315   7.192  0.9338  0.4985  0.9550
  192SLPC   H2S22217   5.745   5.248   7.042 -0.0068  1.5700  0.0917
  192SLPC    C322218   5.897   5.687   6.922  0.6382  0.3117 -1.1955
  192SLPC    HX22219   5.793   5.695   6.883  0.0624 -0.8222  0.0534
  192SLPC    HY22220   5.960   5.760   6.865 -0.2056  2.2007  0.1888
  192SLPC   O3122221   5.897   5.720   7.063 -0.7120  0.0992 -0.2192
  192SLPC   C3122222   5.814   5.811   7.108  0.1815 -0.1282 -0.2454
  192SLPC   O3222223   5.734   5.881   7.046  0.0398  0.2366 -0.5657
  192SLPC   C3222224   5.828   5.811   7.259  0.0345  0.6092 -0.5881
  192SLPC   H2X22225   5.739   5.867   7.295 -0.3220 -0.6993  0.6684
  192SLPC   H2Y22226   5.927   5.853   7.289  0.1026 -0.3307  0.5376
  192SLPC   C2322227   5.870   5.114   7.152 -0.2853 -0.1390  0.5013
  192SLPC   H3R22228   5.972   5.118   7.195 -0.6383  0.3173  1.3299
  192SLPC   H3S22229   5.861   5.043   7.067 -1.2285 -0.6150  0.9682
  192SLPC   C2422230   5.765   5.063   7.257 -0.5400 -0.0033 -0.0465
  192SLPC   H4R22231   5.779   4.953   7.258  2.8456  0.2777 -1.5316
  192SLPC   H4S22232   5.663   5.088   7.221 -0.5024 -0.2052 -0.2942
  192SLPC   C2522233   5.779   5.130   7.397 -0.2873 -0.4663  1.1086
  192SLPC   H5R22234   5.788   5.240   7.383  0.5555 -0.5538  0.8647
  192SLPC   H5S22235   5.878   5.103   7.439  0.4285  1.7341  0.9759
  192SLPC   C2622236   5.670   5.083   7.497 -0.2160 -0.0410  0.4816
  192SLPC   H6R22237   5.660   4.972   7.492  1.0868 -0.1720  0.5450
  192SLPC   H6S22238   5.579   5.120   7.445 -0.4104 -0.1424  0.7481
  192SLPC   C2722239   5.682   5.132   7.644  0.6449  0.4543  0.5871
  192SLPC   H7R22240   5.745   5.224   7.646  0.8704  0.4369 -1.8195
  192SLPC   H7S22241   5.726   5.049   7.702  0.3711  0.3606  0.6619
  192SLPC   C2822242   5.541   5.175   7.708  0.5194 -0.3279  0.3193
  192SLPC   H8R22243   5.462   5.099   7.690  0.5887 -0.4153  0.3787
  192SLPC   H8S22244   5.513   5.261   7.645 -2.3586 -2.1819 -1.1338
  192SLPC   C2922245   5.550   5.214   7.852  0.1256 -1.1091  0.4003
  192SLPC   H9R22246   5.587   5.317   7.862 -0.8328 -0.6972 -0.1261
  192SLPC  C21022247   5.505   5.149   7.963  0.4345  0.2935  0.8151
  192SLPC  H10R22248   5.505   5.200   8.061  0.0728  3.2205 -0.6181
  192SLPC  C21122249   5.433   5.012   7.957 -0.4112  0.9872 -0.0221
  192SLPC  H11R22250   5.504   4.927   7.969 -0.3581  0.3431 -3.6247
  192SLPC  H11S22251   5.390   5.004   7.855  1.1387  1.7794 -0.7664
  192SLPC  C21222252   5.318   4.992   8.051  0.3937 -0.0605  0.2821
  192SLPC  H12R22253   5.350   4.984   8.156 -1.7903  0.8578  1.0765
  192SLPC  C21322254   5.190   4.990   8.014  0.8662 -0.3870 -0.2222
  192SLPC  H13R22255   5.118   4.959   8.091 -0.8992  1.0571 -1.2203
  192SLPC  C21422256   5.132   5.012   7.872  0.1841  0.5000  0.5152
  192SLPC  H14R22257   5.204   5.075   7.815 -0.1152  1.7778  1.5035
  192SLPC  H14S22258   5.035   5.065   7.877  0.1028  0.5320 -1.0338
  192SLPC  C21522259   5.108   4.876   7.803 -0.2783 -0.2225  0.1895
  192SLPC  H15R22260   5.038   4.812   7.860  0.3285 -0.0759  1.1151
  192SLPC  H15S22261   5.208   4.827   7.802  0.4845  1.2039  1.7527
  192SLPC  C21622262   5.042   4.893   7.665  0.8606  0.4228  0.1166
  192SLPC  H16R22263   5.067   4.797   7.615  0.0876  0.7802 -1.0083
  192SLPC  H16S22264   5.082   4.979   7.607  1.5007 -0.0548 -0.1627
  192SLPC  C21722265   4.884   4.905   7.664 -1.0468 -0.0628 -0.3505
  192SLPC  H17R22266   4.856   4.901   7.557  1.2926 -2.2082 -0.9746
  192SLPC  H17S22267   4.850   4.811   7.712  0.6388 -0.1577  0.7341
  192SLPC  C21822268   4.817   5.025   7.733  0.0559  0.3518  0.0276
  192SLPC  H18R22269   4.839   5.030   7.841  0.5894  0.0012 -0.0640
  192SLPC  H18S22270   4.707   5.017   7.717 -0.0043 -0.7001  0.8560
  192SLPC  H18T22271   4.854   5.119   7.688 -0.6318  1.0420  0.8765
  192SLPC   C3322272   5.811   5.670   7.322 -0.4245 -0.4680 -0.1120
  192SLPC   H3X22273   5.910   5.621   7.315  0.5323  0.9422  2.1876
  192SLPC   H3Y22274   5.730   5.606   7.282 -0.6917  0.1692 -0.6125
  192SLPC   C3422275   5.795   5.677   7.477  1.2334  0.3873  0.5922
  192SLPC   H4X22276   5.701   5.732   7.501  0.0502 -1.6743  0.9206
  192SLPC   H4Y22277   5.864   5.747   7.528  0.0659  0.3710  2.2697
  192SLPC   C3522278   5.800   5.539   7.541  0.0544 -1.0826  0.2445
  192SLPC   H5X22279   5.908   5.520   7.556  0.4629  0.6426 -0.2909
  192SLPC   H5Y22280   5.750   5.465   7.476 -0.9811 -0.1879 -0.0074
  192SLPC   C3622281   5.716   5.537   7.664  0.1179  0.4996 -0.2540
  192SLPC   H6X22282   5.705   5.430   7.695 -1.2185  0.7260  0.1150
  192SLPC   H6Y22283   5.614   5.575   7.642  0.8818  2.7474 -0.1360
  192SLPC   C3722284   5.764   5.617   7.785  0.0898  0.2365  0.2247
  192SLPC   H7X22285   5.765   5.722   7.748 -0.5296  0.0916 -0.2224
  192SLPC   H7Y22286   5.867   5.580   7.803 -0.4559 -1.2845  0.3644
  192SLPC   C3822287   5.670   5.609   7.902 -0.5398  0.1470  0.5888
  192SLPC   H8X22288   5.659   5.501   7.922  3.8446 -0.3179  1.3626
  192SLPC   H8Y22289   5.572   5.651   7.870  0.3900  1.2056 -1.0629
  192SLPC   C3922290   5.728   5.684   8.030  0.0847  0.7120 -0.3973
  192SLPC   H9X22291   5.720   5.794   8.026  0.9093  0.8969  1.5287
  192SLPC   H9Y22292   5.830   5.645   8.052 -0.3877  0.8710  2.4253
  192SLPC  C31022293   5.642   5.642   8.157 -0.0129  0.8408  0.1004
  192SLPC  H10X22294   5.711   5.646   8.244  1.1806 -0.0265 -0.7698
  192SLPC  H10Y22295   5.621   5.533   8.155  0.4837  0.7420  0.0184
  192SLPC  C31122296   5.510   5.711   8.165 -0.2857  0.0167 -0.2423
  192SLPC  H11X22297   5.462   5.706   8.065  3.4194  2.6333 -2.4351
  192SLPC  H11Y22298   5.514   5.820   8.187 -0.5922  0.8183 -3.5663
  192SLPC  C31222299   5.415   5.638   8.256 -0.1658  1.2165 -0.3969
  192SLPC  H12X22300   5.456   5.642   8.359 -0.7348  0.4274 -0.1257
  192SLPC  H12Y22301   5.410   5.532   8.222  0.2765  0.9406  0.3654
  192SLPC  C31322302   5.275   5.700   8.258 -0.6057 -0.3863  0.5668
  192SLPC  H13X22303   5.234   5.684   8.155 -0.0259 -1.3114  0.4698
  192SLPC  H13Y22304   5.293   5.805   8.288 -0.5249 -0.5182  0.9872
  192SLPC  C31422305   5.171   5.642   8.350 -0.3284 -0.5465  0.2497
  192SLPC  H14X22306   5.177   5.533   8.371 -3.0943 -1.0863 -1.2177
  192SLPC  H14Y22307   5.066   5.656   8.316  0.2451  1.3768 -0.8746
  192SLPC  C31522308   5.187   5.714   8.486 -0.4788  0.2764  0.6685
  192SLPC  H15X22309   5.167   5.823   8.492  1.5151  0.7697 -0.6435
  192SLPC  H15Y22310   5.291   5.711   8.526 -1.1963  0.5446  2.6412
  192SLPC  C31622311   5.106   5.636   8.590 -0.3237 -0.6171 -0.1437
  192SLPC  H16X22312   5.121   5.526   8.585  0.6781 -0.6259  2.0128
  192SLPC  H16Y22313   5.006   5.650   8.544  0.1858  0.5195 -0.9409
  192SLPC  C31722314   5.110   5.686   8.734 -0.1909 -1.1246 -0.2957
  192SLPC  H17X22315   5.037   5.635   8.800 -0.1338  0.0049  0.6758
  192SLPC  H17Y22316   5.093   5.796   8.737  0.0144 -1.0911 -0.3471
  192SLPC  C31822317   5.250   5.656   8.795  0.6695 -0.5255 -0.6189
  192SLPC  H18X22318   5.330   5.713   8.744  0.3864 -0.6528 -1.2129
  192SLPC  H18Y22319   5.267   5.546   8.788 -2.0350 -1.0957  0.3856
  192SLPC  H18Z22320   5.255   5.679   8.904 -1.2849 -0.2311 -0.5508
  193SOD    SOD22321   5.530   6.013   3.133 -0.2442  0.0105  0.1179
  194SOD    SOD22322   3.357   3.037  13.387  0.4473 -0.7017  0.3170
  195SOD    SOD22323   2.981   3.320   1.468  0.5036 -0.1419  0.0197
  196SOD    SOD22324   1.435   5.241   5.668  0.0041 -0.2975 -0.1143
  197SOD    SOD22325   6.299   2.997  10.402 -0.1642  0.6589  0.0500
  198SOD    SOD22326   6.423   5.729  14.800  0.4931  0.4053 -0.5608
  199SOD    SOD22327   3.328   3.329  10.616  0.0231 -0.2515  0.1913
  200SOD    SOD22328   1.557   1.733  13.748 -0.1239  0.5745  0.0574
  201SOD    SOD22329   5.008   1.563   6.266 -0.0885 -0.4412  0.2328
  202SOD    SOD22330   1.172   6.518  13.075 -0.0792  0.1369  0.0749
  203SOD    SOD22331   6.143   3.593  14.269 -0.0783  0.1224 -0.2660
  204SOD    SOD22332   2.552   6.240   5.974  0.6373 -0.0837 -0.3675
  205SOD    SOD22333   0.347   4.510  16.466  0.6276  0.1100  1.0645
  206SOD    SOD22334   1.635   5.668   1.947  0.2770  0.0226  0.5027
  207SOD    SOD22335   0.601   5.463  15.654 -0.2679 -0.3529  0.6438
  208SOD    SOD22336   4.885   4.351  16.061 -0.0536  0.1708 -0.1160
  209SOD    SOD22337   2.603   4.223   4.863 -0.1718 -0.2452 -0.0716
  210SOD    SOD22338   1.583   3.628  12.209 -0.3791  0.3449 -0.0029
  211SOD    SOD22339   3.743   5.825   0.436  0.3682  0.0964 -0.3554
  212SOD    SOD22340   3.717   5.631  16.556 -0.0233 -0.0646  0.1829
  213SOD    SOD22341   6.696   3.387   1.731 -0.1013 -0.0777 -0.3906
  214SOD    SOD22342   6.466   5.541   1.463  0.2945  0.5997 -0.0632
  215SOD    SOD22343   4.201   5.872   3.193  0.3606  0.0115 -0.1620
  216SOD    SOD22344   3.155   4.882   0.576 -0.2154  0.3835  0.0119
  217SOD    SOD22345   5.945   4.358  11.478 -0.2507  0.0490 -0.1204
  218SOD    SOD22346   0.295   3.600  14.729  0.4321  0.0591 -0.5704
  219SOD    SOD22347   3.978   1.323   5.192 -0.2505  0.4590 -0.4925
  220SOD    SOD22348   5.353   6.609   1.435  0.2050 -0.3862 -0.2226
  221SOD    SOD22349   4.183   2.508   2.848 -0.2792  0.0633 -0.1338
  222SOD    SOD22350   1.204   2.302  10.674  0.2249 -0.7989 -0.2586
  223SOD    SOD22351   6.554   0.197   1.505  0.1787 -0.3570  0.3091
  224SOD    SOD22352   0.569   5.882   5.907  0.4795 -0.0084 -0.4720
  225SOD    SOD22353   1.939   5.340   4.398 -0.6316 -0.0705 -0.1631
  226SOD    SOD22354   6.703   1.546  13.605  0.4016  0.1210 -0.0906
  227SOD    SOD22355   5.237   3.268   3.164 -0.2711 -0.0110 -0.3366
  228SOD    SOD22356   0.682   4.932   3.675  0.3789  0.0328  0.7502
  229SOD    SOD22357   2.438   2.216   3.908  0.2894  0.0351 -0.0300
  230SOD    SOD22358   4.133   1.322   2.723  0.1092  0.0266  0.0868
  231SOD    SOD22359   5.588   4.234  10.489  0.0389  0.2217  0.0998
  232SOD    SOD22360   6.621   0.188   0.607  0.0011  0.5032 -0.0176
  233SOD    SOD22361   0.497   4.257   5.880  0.0840  0.1302  0.1414
  234SOD    SOD22362   5.809   2.511  16.393 -0.1408  0.2186  0.3562
  235SOD    SOD22363   3.717   0.590  12.698 -0.2543 -0.7046  0.1510
  236SOD    SOD22364   5.046   5.622   4.164 -0.0227 -0.4243  0.4311
  237SOD    SOD22365   4.808   3.662   1.915  0.5547 -0.0102 -0.3501
  238SOD    SOD22366   5.386   3.027   1.753 -0.0475  0.1263  0.3140
  239SOD    SOD22367   5.630   4.426   3.247  0.1045 -0.3718 -0.2918
  240SOD    SOD22368   3.382   3.669  12.024 -0.2166  0.6143 -0.1019
  241SOD    SOD22369   1.590   0.383  12.028  0.1975  0.3554 -0.1544
  242SOD    SOD22370   0.997   5.931   3.897  0.6899  0.1826 -0.0347
  243SOD    SOD22371   0.229   2.260  11.703 -0.3051  0.3918  0.0530
  244SOD    SOD22372   3.569   2.823  16.647 -0.1163  0.0901  0.5101
  245SOD    SOD22373   1.843   2.507   0.288  0.3163 -0.1047  0.1615
  246SOD    SOD22374   0.029   0.631  12.693  0.6932 -0.3598 -0.3872
  247SOD    SOD22375   3.848   0.153   5.471  0.0926  0.1053  0.0709
  248SOD    SOD22376   1.102   0.383   4.318  0.5494  0.4219  0.7860
  249SOD    SOD22377   5.703   1.545  14.256 -0.2504  0.0708  0.3129
  250SOD    SOD22378   6.793   1.088   5.120 -0.1911  0.5724  0.1082
  251SOD    SOD22379   1.052   3.386  14.347  0.0667 -0.0940  0.1979
  252SOD    SOD22380   3.091   5.378  15.823  0.3824  0.1562 -0.0953
  253SOD    SOD22381   1.338   4.989  14.907  0.0214 -0.1333 -0.1593
  254SOD    SOD22382   1.082   2.355   5.570 -0.9122  0.4210 -0.6300
  255SOD    SOD22383   4.635   3.103  11.366 -0.1470  0.3971  0.2061
  256SOD    SOD22384   5.750   3.661   5.267 -0.0031  0.4043 -0.2301
  257SOD    SOD22385   6.640   5.447  16.850  0.1437  0.3234  0.0033
  258SOD    SOD22386   2.615   1.756  15.836  1.1348  0.0233 -0.5529
  259SOD    SOD22387   1.894   4.307  16.493 -0.2330  0.4430 -0.1321
  260SOD    SOD22388   6.711   0.085   6.103 -0.3677  0.3478  0.0962
  261SOD    SOD22389   5.600   3.710   5.606  0.3447 -0.0680  0.1667
  262SOD    SOD22390   3.063   5.392  11.304  0.1615 -0.0217  0.3185
  263SOD    SOD22391   1.434   0.929  10.771  0.4342 -0.4530 -0.1355
  264SOD    SOD22392   4.494   5.007  11.089  0.9166  0.2114  0.4880
  265SOD    SOD22393   3.989   4.819  14.044  0.0845  0.0683  0.3628
  266CLA    CLA22394   4.661   5.545  16.579  0.4844  0.4969  0.2825
  267CLA    CLA22395   0.408   2.687   1.638  0.0703 -0.3277 -0.1254
  268CLA    CLA22396   4.375   3.729  13.800  0.0841 -0.0965 -0.0931
  269CLA    CLA22397   6.334   0.466   0.748 -0.4711 -0.1648  0.0801
  270CLA    CLA22398   4.022   5.109  16.532 -0.0359  0.3395  0.0653
  271CLA    CLA22399   4.858   3.602  17.029 -0.4226 -0.0331  0.0905
  272CLA    CLA22400   6.647   6.536   0.985 -0.2755  0.1192 -0.0081
  273CLA    CLA22401   4.415   0.620   1.759  0.1999  0.0948  0.2327
  274CLA    CLA22402   5.418   1.814  12.630  0.2681  0.1826 -0.0504
  275CLA    CLA22403   2.947   3.189   0.199 -0.0910 -0.4769  0.0840
  276CLA    CLA22404   3.963   6.431   3.381  0.1251 -0.4506 -0.0443
  277CLA    CLA22405   0.570   1.134   2.330  0.1302 -0.0228  0.2885
  278CLA    CLA22406   0.847   4.602  15.237 -0.4318 -0.2440 -0.1817
  279CLA    CLA22407   5.585   3.800  16.649 -0.1760 -0.0332 -0.1161
  280CLA    CLA22408   5.240   6.729   0.414  0.1761  0.4824 -0.1071
  281CLA    CLA22409   5.773   2.526   0.615  0.4062  0.1381  0.4694
  282CLA    CLA22410   4.911   2.557   4.713  0.3422  0.2756 -0.0703
  283CLA    CLA22411   0.585   5.607   3.783 -0.4712 -0.3208 -0.0173
  284CLA    CLA22412   5.746   6.129  11.609 -0.3067  0.1921  0.2188
  285CLA    CLA22413   1.424   5.408  15.040 -0.5480 -0.2088 -0.4581
  286CLA    CLA22414   6.811   2.963   1.816 -0.4115 -0.1476 -0.3195
  287CLA    CLA22415   2.342   3.645  15.259  0.2717 -0.1312  0.1811
  288CLA    CLA22416   0.218   0.320   3.489 -0.4005 -0.1985  0.1952
  289CLA    CLA22417   3.056   1.669  15.744  0.0842 -0.1510 -0.0182
  290CLA    CLA22418   6.011   1.426  13.287  0.0070  0.2460  0.0289
  291CLA    CLA22419   5.684   6.039  16.595 -0.0677 -0.1394 -0.1308
  292CLA    CLA22420   3.653   5.873  16.673 -0.0807 -0.0468  0.0424
  293CLA    CLA22421   1.462   4.083  16.454  0.2765 -0.0365 -0.1739
  294CLA    CLA22422   6.212   5.789  14.430 -0.0813  0.3599  0.1946
  295CLA    CLA22423   1.274   5.135   3.263 -0.1366 -0.1820  0.4108
  296CLA    CLA22424   0.313   2.046   3.269  0.2747  0.1488 -0.2805
  297CLA    CLA22425   2.292   6.469  15.486 -0.1713 -0.2490 -0.4077
  298CLA    CLA22426   0.463   0.930  12.370  0.0840 -0.0207  0.2523
  299CLA    CLA22427   5.758   2.578   4.630  0.4291  0.4342 -0.0367
  300CLA    CLA22428   1.402   1.928  16.424 -0.2467 -0.0262  0.0507
  301CLA    CLA22429   3.804   2.521   3.269 -0.2372  0.2854 -0.0770
  302CLA    CLA22430   4.643   4.885   4.928  0.0144 -0.3221 -0.1616
  303CLA    CLA22431   2.476   6.237   3.759 -0.2150  0.3479 -0.2337
  304CLA    CLA22432   2.137   0.492  11.663 -0.0575  0.1139  0.4138
  305CLA    CLA22433   2.611   1.645  11.493 -0.3644  0.0233  0.3061
  306CLA    CLA22434   0.325   3.971   2.014 -0.2836 -0.0920 -0.0543
  307CLA    CLA22435   3.461   6.106  13.078 -0.0311 -0.3262 -0.1098
  308CLA    CLA22436   6.283   2.224  14.156 -0.1355 -0.1056 -0.0737
  309CLA    CLA22437   0.186   3.376  11.411 -0.0700 -0.1060 -0.0039
  310CLA    CLA22438   1.622   1.255   4.083 -0.1219  0.6361  0.2906
  311CLA    CLA22439   0.082   6.314   0.071  0.0285 -0.2656  0.1294
  312CLA    CLA22440   0.209   0.464   5.052 -0.3272  0.0109  0.1832
  313CLA    CLA22441   4.760   5.377   2.997 -0.0424  0.1996  0.2118
  314CLA    CLA22442   0.223   4.475  16.920 -0.2159  0.0749 -0.0100
  315CLA    CLA22443   5.814   3.982  11.633  0.0354 -0.4276  0.0258
  316CLA    CLA22444   1.532   3.972   5.207 -0.0637  0.1574  0.0189
  317CLA    CLA22445   2.508   0.755   3.922 -0.3536  0.1383 -0.2380
  318CLA    CLA22446   5.274   3.332   2.130  0.3085 -0.2370 -0.0845
  319TIP3   OH222447   4.940   3.295  17.119  0.5046 -0.1446 -0.4308
  319TIP3    H122448   4.917   3.273  17.029 -1.3272  0.4696 -0.1510
  319TIP3    H222449   4.915   3.386  17.129  1.4134  0.0245  0.4904
  320TIP3   OH222450   6.616   4.720   0.985 -0.0422 -0.0175 -0.4613
  320TIP3    H122451   6.638   4.784   1.053 -1.1167 -0.9828  0.8344
  320TIP3    H222452   6.609   4.637   1.031 -1.0215 -0.6725 -1.7309
  321TIP3   OH222453   2.350   5.849   5.965 -0.5001  0.2549 -0.1667
  321TIP3    H122454   2.365   5.921   5.904 -3.2612  0.9516 -0.1329
  321TIP3    H222455   2.317   5.891   6.044 -2.8001 -1.0185 -0.3653
  322TIP3   OH222456   2.221   2.945  12.797 -0.0074 -0.1335  0.2703
  322TIP3    H122457   2.147   2.979  12.746 -0.3311  0.1745  0.9357
  322TIP3    H222458   2.296   2.954  12.739  0.5225  4.4499  1.3318
  323TIP3   OH222459   5.034   0.118   1.350 -0.5757 -0.0599 -0.5157
  323TIP3    H122460   5.015   0.139   1.259 -1.3904  0.1718 -0.2997
  323TIP3    H222461   4.985   0.183   1.400  1.0145  0.7429  0.0712
  324TIP3   OH222462   0.615   3.430   0.750 -0.0049  0.2324 -0.5065
  324TIP3    H122463   0.651   3.349   0.785  0.5892  0.6583 -0.1148
  324TIP3    H222464   0.659   3.442   0.665  1.0823  0.9418  0.1345
  325TIP3   OH222465   5.276   6.060  12.075  0.1517 -0.0232  0.3856
  325TIP3    H122466   5.295   6.070  12.168  1.8143 -0.5259  0.1288
  325TIP3    H222467   5.351   6.012  12.040 -1.1974 -1.2879 -0.9194
  326TIP3   OH222468   4.684   0.233  12.382 -0.6147 -0.4839 -0.2892
  326TIP3    H122469   4.625   0.308  12.378 -0.6676 -0.5166 -0.1105
  326TIP3    H222470   4.765   0.264  12.341 -0.9561 -0.6298 -1.0988
  327TIP3   OH222471   4.241   0.363   0.345  0.1864  0.2346 -0.2977
  327TIP3    H122472   4.329   0.386   0.375  0.0673 -0.9254  1.0500
  327TIP3    H222473   4.235   0.401   0.258  1.8471  0.7518 -0.2257
  328TIP3   OH222474   3.646   1.203   0.945  0.3632  0.2194  0.1559
  328TIP3    H122475   3.671   1.292   0.972  2.0351 -0.1962  0.1098
  328TIP3    H222476   3.632   1.156   1.027  3.3922 -0.4802  0.4116
  329TIP3   OH222477   4.229   2.345  12.824 -0.1559  0.0540 -0.0387
  329TIP3    H122478   4.307   2.397  12.843  0.9132 -1.5075  0.0469
  329TIP3    H222479   4.177   2.349  12.904  0.8104 -0.5002  0.6414
  330TIP3   OH222480   0.780   3.604  12.765  0.4427 -0.2263  0.0182
  330TIP3    H122481   0.844   3.675  12.773  0.6866 -0.3661 -0.6254
  330TIP3    H222482   0.701   3.638  12.807  0.0321  1.0788 -1.6661
  331TIP3   OH222483   0.679   4.358  16.594 -0.0592 -0.2611  0.5225
  331TIP3    H122484   0.598   4.409  16.587 -0.3904 -0.9227 -0.9728
  331TIP3    H222485   0.696   4.329  16.504  2.2376  0.4547  0.6746
  332TIP3   OH222486   6.357   6.563  13.196 -0.0083 -0.3312 -0.2710
  332TIP3    H122487   6.398   6.496  13.250  0.4859  1.4463  1.6544
  332TIP3    H222488   6.415   6.639  13.203 -2.1080  1.3153  0.1463
  333TIP3   OH222489   4.234   2.170   1.456 -0.2969  0.4372  0.2319
  333TIP3    H122490   4.165   2.202   1.398 -0.0120 -0.2815 -0.5149
  333TIP3    H222491   4.197   2.181   1.544 -2.0079 -1.3214 -0.1953
  334TIP3   OH222492   0.978   4.841   4.623 -0.5003  0.0425 -0.7992
  334TIP3    H122493   1.014   4.752   4.632 -1.5203 -0.4935 -1.7302
  334TIP3    H222494   0.904   4.844   4.684  1.2493  1.2622  1.3820
  335TIP3   OH222495   2.626   3.753  15.139  0.4509  0.0285 -0.1087
  335TIP3    H122496   2.540   3.712  15.127  1.4356 -1.7581 -1.5699
  335TIP3    H222497   2.668   3.701  15.207  1.7525 -1.6297 -2.0535
  336TIP3   OH222498   5.551   3.032  15.337 -0.0893  0.4120  0.0058
  336TIP3    H122499   5.550   3.021  15.432 -0.8646 -0.2292 -0.0696
  336TIP3    H222500   5.493   2.963  15.304 -0.3471  1.0410 -0.8898
  337TIP3   OH222501   5.681   2.001  11.670  0.5252  0.4033  0.2793
  337TIP3    H122502   5.614   2.042  11.724  0.3567 -0.3069  0.6154
  337TIP3    H222503   5.695   1.915  11.709  0.4638 -0.0954 -0.7517
  338TIP3   OH222504   5.189   5.709  17.157  0.6838 -1.1622  0.0509
  338TIP3    H122505   5.169   5.699  17.063 -1.0500 -2.8799  0.5344
  338TIP3    H222506   5.111   5.750  17.194  1.5150 -0.1247  0.7167
  339TIP3   OH222507   2.052   3.994   4.276  0.2958  0.1612  0.3214
  339TIP3    H122508   2.067   3.949   4.359  1.1566 -0.2835 -0.0653
  339TIP3    H222509   2.139   4.006   4.239 -0.1327 -0.3260 -0.8822
  340TIP3   OH222510   1.534   1.546   1.530 -0.7515 -0.6280  0.1627
  340TIP3    H122511   1.535   1.529   1.625 -2.9124  1.3092  0.6143
  340TIP3    H222512   1.559   1.462   1.491 -1.1151 -1.8720  2.3987
  341TIP3   OH222513   3.456   0.427  15.176  0.0575  0.1924 -0.5052
  341TIP3    H122514   3.500   0.436  15.092  0.2878  0.9822 -0.3101
  341TIP3    H222515   3.402   0.506  15.183  1.0251  0.7965  0.6346
  342TIP3   OH222516   4.682   2.536   1.394 -0.0785 -0.3891  0.2298
  342TIP3    H122517   4.725   2.499   1.471  1.4705 -1.5130 -1.1075
  342TIP3    H222518   4.637   2.462   1.353 -1.1771  0.2631  0.1980
  343TIP3   OH222519   4.616   1.618  14.981 -0.4730  0.2693 -0.5882
  343TIP3    H122520   4.619   1.664  15.065 -2.8741 -0.0821 -0.2475
  343TIP3    H222521   4.651   1.531  15.000 -0.2819  0.4452 -0.1282
  344TIP3   OH222522   1.473   1.544  14.153  0.7932  0.1019  0.0833
  344TIP3    H122523   1.390   1.509  14.185  1.5669 -1.8633  0.0568
  344TIP3    H222524   1.522   1.566  14.232  0.2262  1.4591  0.0983
  345TIP3   OH222525   4.793   4.169  13.748 -0.6192  0.1721  0.6948
  345TIP3    H122526   4.792   4.155  13.653  1.1290 -1.0354  0.8057
  345TIP3    H222527   4.812   4.082  13.784 -0.1402  0.8317  2.0841
  346TIP3   OH222528   3.743   5.396   0.581  0.6948  0.1305 -0.1091
  346TIP3    H122529   3.700   5.416   0.664 -0.6182 -1.8485 -0.2397
  346TIP3    H222530   3.824   5.352   0.607 -0.8637 -2.7758  0.2539
  347TIP3   OH222531   3.321   5.249   2.332 -0.2274  0.6491 -0.6441
  347TIP3    H122532   3.250   5.311   2.314 -0.5216  0.3131 -0.6626
  347TIP3    H222533   3.329   5.249   2.427 -0.6475  0.2589 -0.6046
  348TIP3   OH222534   6.612   2.068  12.847  0.1342 -0.0296  0.4828
  348TIP3    H122535   6.521   2.041  12.835  0.5705 -1.0042 -0.9091
  348TIP3    H222536   6.608   2.164  12.852 -0.9837 -0.0724  0.6510
  349TIP3   OH222537   3.872   5.612   2.075  0.3394 -0.5160 -0.1739
  349TIP3    H122538   3.837   5.663   2.002 -0.6267  2.7702  2.3103
  349TIP3    H222539   3.967   5.628   2.072  0.2272  0.1575 -0.3749
  350TIP3   OH222540   3.212   6.697   0.624 -0.5249 -0.2998  0.1696
  350TIP3    H122541   3.163   6.770   0.662 -1.7484 -1.1454  0.2774
  350TIP3    H222542   3.245   6.731   0.541 -0.2129  0.6853  0.6802
  351TIP3   OH222543   1.376   5.356  11.991 -0.4603  1.2783 -0.3695
  351TIP3    H122544   1.320   5.365  11.914  1.5657 -2.4975 -2.6027
  351TIP3    H222545   1.456   5.404  11.968  0.3897 -0.3628 -1.0374
  352TIP3   OH222546   3.122   5.758  14.803  0.4893 -0.4614  0.2256
  352TIP3    H122547   3.044   5.768  14.748  0.9767  1.2832 -0.2146
  352TIP3    H222548   3.089   5.730  14.888 -0.6449  0.3965  0.0879
  353TIP3   OH222549   2.438   2.723   5.015  0.0383 -0.0935  0.0797
  353TIP3    H122550   2.516   2.675   5.043  0.2744  0.5334  0.5031
  353TIP3    H222551   2.366   2.661   5.027  0.3581 -0.3849  0.4938
  354TIP3   OH222552   6.523   2.974   0.081 -0.3193  0.3134 -0.1812
  354TIP3    H122553   6.520   2.981  -0.015 -1.0240  1.4298 -0.0914
  354TIP3    H222554   6.434   2.947   0.105  0.1195 -0.9273  0.1043
  355TIP3   OH222555   4.145   6.319   2.881  0.1848 -0.4103 -0.0192
  355TIP3    H122556   4.154   6.354   2.969  0.4127 -0.7797  0.1062
  355TIP3    H222557   4.160   6.395   2.824  0.3732 -0.2386  0.2520
  356TIP3   OH222558   2.325   1.496   6.097 -0.1298  0.2325  0.5122
  356TIP3    H122559   2.294   1.412   6.063 -0.7842  0.8457 -0.4471
  356TIP3    H222560   2.282   1.504   6.182  0.2564 -0.5803  0.7983
  357TIP3   OH222561   3.439   3.441  11.661 -0.2583 -0.3728  0.5185
  357TIP3    H122562   3.483   3.498  11.724  0.6345  1.8233 -1.9107
  357TIP3    H222563   3.495   3.443  11.583 -1.0642 -3.3207 -0.2618
  358TIP3   OH222564   6.202   0.997  12.493  0.2675 -0.3508 -0.0554
  358TIP3    H122565   6.231   1.081  12.530  0.5251 -0.9307  1.0757
  358TIP3    H222566   6.145   1.023  12.420  0.3669  0.8127  0.2490
  359TIP3   OH222567   4.812   6.022   2.160 -0.1391 -0.6057  0.2005
  359TIP3    H122568   4.763   5.978   2.230  0.2319 -0.6053  0.4590
  359TIP3    H222569   4.760   6.100   2.141 -1.2552 -1.5635 -0.8441
  360TIP3   OH222570   4.637   6.253  16.381 -0.0594 -0.4953 -0.0203
  360TIP3    H122571   4.672   6.214  16.461 -0.4309  0.6255  0.7240
  360TIP3    H222572   4.620   6.344  16.405 -1.2772 -0.4260 -1.0328
  361TIP3   OH222573   1.169   1.457  16.016  0.0794 -0.2696  0.3962
  361TIP3    H122574   1.203   1.505  15.940  1.1148 -1.7511 -0.1108
  361TIP3    H222575   1.095   1.510  16.046  1.0832  1.5534 -0.2092
  362TIP3   OH222576   0.828   0.665  13.414  0.2705  0.0939 -0.4305
  362TIP3    H122577   0.735   0.644  13.420  0.2757 -1.0151 -2.6942
  362TIP3    H222578   0.872   0.586  13.446  0.3864 -0.0457 -0.9178
  363TIP3   OH222579   2.952   0.576  14.672  0.1190  0.4069 -0.1279
  363TIP3    H122580   2.956   0.652  14.613 -2.1405 -0.2844 -1.2854
  363TIP3    H222581   3.022   0.519  14.642 -1.4059 -0.2669 -2.7659
  364TIP3   OH222582   6.291   5.742   4.039 -0.8027 -1.3464  0.5945
  364TIP3    H122583   6.281   5.787   3.955 -0.7441 -0.6582  0.9578
  364TIP3    H222584   6.255   5.802   4.104  0.9008 -1.0269  1.3094
  365TIP3   OH222585   1.768   5.209   4.001 -0.0961  0.9349 -0.3817
  365TIP3    H122586   1.815   5.236   3.921 -1.0246 -0.4057 -1.4184
  365TIP3    H222587   1.741   5.119   3.983 -0.6314  0.7343  1.3322
  366TIP3   OH222588   2.895   5.015   5.078  0.1665  0.2865  0.3723
  366TIP3    H122589   2.905   4.990   4.986 -0.1564  0.4365  0.2950
  366TIP3    H222590   2.898   5.111   5.077 -1.2738  0.3570  0.3299
  367TIP3   OH222591   5.857   5.123   3.967 -0.0040 -0.2133  0.2883
  367TIP3    H122592   5.788   5.187   3.951  0.0808 -0.5315 -1.4440
  367TIP3    H222593   5.821   5.040   3.938  1.7464 -0.0854 -2.6040
  368TIP3   OH222594   2.816   4.472  11.840 -0.0484 -0.1476 -0.1237
  368TIP3    H122595   2.742   4.514  11.884 -1.0684  1.4562 -3.0648
  368TIP3    H222596   2.777   4.429  11.764  1.9910  0.7795 -1.7973
  369TIP3   OH222597   6.400   4.589  17.092  0.0520 -0.1784  0.1782
  369TIP3    H122598   6.317   4.542  17.084 -1.7084  2.1384  2.8840
  369TIP3    H222599   6.445   4.547  17.166  0.4163 -0.2253 -0.0667
  370TIP3   OH222600   2.362   0.690  16.267 -0.0690 -0.6559  0.1233
  370TIP3    H122601   2.302   0.660  16.199 -2.4402  2.5767  0.5481
  370TIP3    H222602   2.429   0.740  16.220  0.4628 -1.5322 -0.0771
  371TIP3   OH222603   4.561   6.428   2.538  0.3527  0.2835  0.3031
  371TIP3    H122604   4.656   6.428   2.526  0.3477  0.8483  0.2453
  371TIP3    H222605   4.538   6.520   2.550 -0.0970  0.0746  1.0953
  372TIP3   OH222606   1.649   5.621  15.165  0.6105  0.0691 -0.2717
  372TIP3    H122607   1.601   5.690  15.211 -0.7580  1.3680 -3.2963
  372TIP3    H222608   1.581   5.561  15.135  1.3122 -0.2990 -1.1724
  373TIP3   OH222609   5.797   3.223  10.634 -0.3642  0.1088  0.1058
  373TIP3    H122610   5.758   3.148  10.589  1.1502 -1.6336  1.5782
  373TIP3    H222611   5.827   3.280  10.563  0.1686 -1.5894 -1.1036
  374TIP3   OH222612   5.017   1.601  13.416 -0.3114 -0.4387  0.0659
  374TIP3    H122613   5.050   1.684  13.450 -1.4816  0.3840 -0.7078
  374TIP3    H222614   4.930   1.592  13.457 -0.0487 -1.4715  0.4225
  375TIP3   OH222615   5.874   3.154  16.035  0.2386 -0.2728  1.2692
  375TIP3    H122616   5.960   3.148  15.992 -0.2121 -0.6306  0.3890
  375TIP3    H222617   5.845   3.243  16.017 -0.1605 -0.5662  0.3801
  376TIP3   OH222618   2.100   5.218   5.113 -0.3310 -0.1313  0.7430
  376TIP3    H122619   2.121   5.287   5.050 -2.6324 -0.0307 -0.0243
  376TIP3    H222620   2.184   5.179   5.135  0.8585  1.8371 -0.0553
  377TIP3   OH222621   2.592   2.326  14.134 -0.2731  0.0468 -0.9137
  377TIP3    H122622   2.654   2.286  14.195 -0.3129  2.7283  1.0333
  377TIP3    H222623   2.595   2.269  14.057  2.5297 -1.4652  0.1631
  378TIP3   OH222624   5.472   5.500  16.251 -0.2166 -0.1251 -0.0260
  378TIP3    H122625   5.405   5.439  16.281  0.4378 -0.5279  0.6716
  378TIP3    H222626   5.504   5.542  16.332  0.8828 -0.4907 -0.2523
  379TIP3   OH222627   5.241   2.839   5.331 -0.2594 -0.5572  0.2045
  379TIP3    H122628   5.188   2.849   5.410  1.9839 -1.1478  1.8851
  379TIP3    H222629   5.286   2.755   5.343  2.3662  0.6836 -0.2566
  380TIP3   OH222630   1.281   3.408  14.335 -0.2401 -0.1936  0.0692
  380TIP3    H122631   1.312   3.339  14.277 -0.4467  1.1001 -1.6371
  380TIP3    H222632   1.330   3.395  14.416 -0.1449 -2.2092 -0.2624
  381TIP3   OH222633   5.721   4.430  15.432 -0.2190  0.0908 -0.2000
  381TIP3    H122634   5.789   4.472  15.486 -0.0838 -0.6450  0.2182
  381TIP3    H222635   5.680   4.367  15.491  1.0791 -1.9817 -1.3724
  382TIP3   OH222636   3.952   1.746   1.645  0.8219  0.1630  0.5055
  382TIP3    H122637   4.021   1.812   1.641  1.8771 -0.9135  0.3781
  382TIP3    H222638   3.995   1.668   1.680  0.7830 -1.7913 -3.2746
  383TIP3   OH222639   6.378   1.666  14.248 -0.1778  0.2550  0.2396
  383TIP3    H122640   6.364   1.734  14.183 -0.6639 -0.0556  0.0127
  383TIP3    H222641   6.360   1.709  14.332  0.0200  0.5395  0.1368
  384TIP3   OH222642   1.621   6.186   4.109 -0.3114  0.7017  0.0147
  384TIP3    H122643   1.592   6.188   4.201  0.5515  1.6226  0.2907
  384TIP3    H222644   1.626   6.279   4.084  1.0035  0.5300 -0.4410
  385TIP3   OH222645   2.241   1.587  15.342  0.3409  0.1662 -0.7708
  385TIP3    H122646   2.158   1.608  15.300  0.1457 -0.2440 -0.5998
  385TIP3    H222647   2.252   1.654  15.409 -1.0942 -1.1638  0.9071
  386TIP3   OH222648   5.568   5.077   5.591  0.3253 -0.0614  0.1235
  386TIP3    H122649   5.506   5.148   5.577 -0.2192 -0.5349  0.0711
  386TIP3    H222650   5.545   5.041   5.677 -0.0263 -0.7643 -0.2485
  387TIP3   OH222651   2.139   0.662  14.836  0.7244  0.3304 -0.3607
  387TIP3    H122652   2.155   0.654  14.930 -1.1550 -1.1359 -0.0871
  387TIP3    H222653   2.226   0.675  14.797  1.3599  2.9448  1.6904
  388TIP3   OH222654   6.738   0.990  11.240 -0.2811 -0.2285  0.7276
  388TIP3    H122655   6.671   1.057  11.229  0.6523  0.3623 -2.2651
  388TIP3    H222656   6.691   0.907  11.224 -0.7303 -0.0106  0.8948
  389TIP3   OH222657   2.104   3.129  14.687 -0.1791 -0.4861  0.3948
  389TIP3    H122658   2.137   3.062  14.747 -2.4852 -0.4277  1.8471
  389TIP3    H222659   2.102   3.209  14.740  0.3610  0.2478 -0.6395
  390TIP3   OH222660   4.139   6.461  13.675  0.3746  0.4759  0.7515
  390TIP3    H122661   4.204   6.493  13.738  0.4750 -1.1132  1.5255
  390TIP3    H222662   4.094   6.390  13.722  1.1523 -1.4869 -1.2905
  391TIP3   OH222663   1.174   1.743   5.873 -0.0915 -0.1838  0.9541
  391TIP3    H122664   1.175   1.799   5.951 -1.1269 -0.6338  1.3103
  391TIP3    H222665   1.113   1.786   5.814  1.7865  0.9503 -0.2517
  392TIP3   OH222666   6.364   3.157   4.709  0.1086  0.6399 -0.4216
  392TIP3    H122667   6.298   3.108   4.758  1.0044  0.0801  0.2683
  392TIP3    H222668   6.405   3.091   4.652  1.0606  0.6455  0.2297
  393TIP3   OH222669   1.877   0.200   2.019  0.3591  0.1645 -0.1005
  393TIP3    H122670   1.936   0.251   1.964 -1.3717  1.9455 -0.4207
  393TIP3    H222671   1.819   0.155   1.957  0.2371 -0.1145  0.2124
  394TIP3   OH222672   6.436   5.311  11.479 -0.3962  0.3920  0.4540
  394TIP3    H122673   6.354   5.294  11.433 -0.2217  1.9922 -0.5117
  394TIP3    H222674   6.422   5.395  11.523  1.1507  1.3643 -0.8318
  395TIP3   OH222675   6.024   3.301   2.851 -0.2059  0.4258  0.1833
  395TIP3    H122676   6.102   3.278   2.800 -0.1888 -0.0148  0.3983
  395TIP3    H222677   5.966   3.225   2.840 -1.1136  1.2358 -0.9428
  396TIP3   OH222678   3.265   5.759   2.257 -0.0007  0.1446 -0.0660
  396TIP3    H122679   3.197   5.821   2.232  0.8657  0.6406 -1.2652
  396TIP3    H222680   3.336   5.813   2.292  0.2621 -0.2659  0.0414
  397TIP3   OH222681   4.441   5.137  17.068  0.0635  0.3578 -0.1717
  397TIP3    H122682   4.393   5.064  17.105  2.1043 -0.9709  0.0197
  397TIP3    H222683   4.533   5.112  17.077  0.7570  1.1517 -3.7147
  398TIP3   OH222684   0.176   2.357  12.419  0.0569 -0.6408  0.1442
  398TIP3    H122685   0.266   2.345  12.448 -0.7550  0.3015  3.6500
  398TIP3    H222686   0.141   2.268  12.411  0.5574 -1.0073  1.6696
  399TIP3   OH222687   0.988   6.624  13.178 -0.1598 -0.4434  0.0882
  399TIP3    H122688   1.012   6.620  13.271 -0.8896 -0.7684  0.2659
  399TIP3    H222689   0.893   6.619  13.177 -0.2060  0.3205 -0.6416
  400TIP3   OH222690   3.937   0.284   2.796  0.8285  0.1554 -0.5597
  400TIP3    H122691   3.920   0.193   2.821 -0.4734  0.2130 -1.1366
  400TIP3    H222692   3.906   0.336   2.870  1.4983  0.1459 -0.2642
  401TIP3   OH222693   4.241   5.032   4.755 -0.2252  0.0012 -0.1321
  401TIP3    H122694   4.178   5.091   4.797  0.1859 -0.0847  0.6263
  401TIP3    H222695   4.267   5.078   4.674 -1.3464 -0.0253 -0.5195
  402TIP3   OH222696   6.400   2.390   3.335 -0.0359 -0.2402  0.5216
  402TIP3    H122697   6.444   2.339   3.267  0.0381 -1.2129  1.2789
  402TIP3    H222698   6.353   2.458   3.287  1.2304  0.0313 -0.3975
  403TIP3   OH222699   6.718   5.906   5.147  0.3888  0.0070 -0.2898
  403TIP3    H122700   6.799   5.941   5.111  1.7269 -3.7405 -1.3339
  403TIP3    H222701   6.662   5.892   5.071  1.1578 -2.9804 -0.3873
  404TIP3   OH222702   6.659   5.274  11.282  0.4664  0.2966  0.4696
  404TIP3    H122703   6.709   5.305  11.357  1.2057  0.4109 -0.0630
  404TIP3    H222704   6.664   5.345  11.218  1.1561 -0.4064 -0.2818
  405TIP3   OH222705   4.310   5.245   1.174 -0.1773  0.4961  0.1143
  405TIP3    H122706   4.274   5.156   1.178 -1.4920  1.0581  1.8506
  405TIP3    H222707   4.404   5.233   1.187  0.0437 -0.7974 -2.0708
  406TIP3   OH222708   0.493   1.979   5.491 -0.0480  0.2318  0.3033
  406TIP3    H122709   0.449   1.983   5.576  0.3401 -1.2396  0.6026
  406TIP3    H222710   0.444   1.912   5.442 -0.4471  1.2611 -0.7590
  407TIP3   OH222711   6.359   4.505  10.797  0.0349 -0.4543 -0.0715
  407TIP3    H122712   6.330   4.418  10.771  0.1660 -0.1417 -1.3431
  407TIP3    H222713   6.280   4.547  10.831 -0.3851 -0.5547 -0.9032
  408TIP3   OH222714   0.244   0.933   1.913 -0.5367  0.2400  0.0534
  408TIP3    H122715   0.313   0.965   1.972  1.6765 -1.7097 -1.2934
  408TIP3    H222716   0.223   0.846   1.946  0.2048 -0.5797 -1.5656
  409TIP3   OH222717   0.257   1.436  10.457 -0.2033  0.5873 -0.1230
  409TIP3    H122718   0.329   1.500  10.452  0.4997 -0.0587  1.3463
  409TIP3    H222719   0.287   1.362  10.404  0.3692  0.1930  0.7346
  410TIP3   OH222720   4.066   5.345   1.440  0.5684  0.2470 -0.0241
  410TIP3    H122721   4.014   5.343   1.520  1.3566  2.7738  0.6268
  410TIP3    H222722   4.030   5.273   1.387 -0.9498 -0.5576  1.9560
  411TIP3   OH222723   1.468   3.427   6.419  0.0589 -0.3611  0.1036
  411TIP3    H122724   1.550   3.460   6.455  1.0353 -0.4356 -1.8792
  411TIP3    H222725   1.486   3.335   6.397 -0.4765 -0.3205 -0.5477
  412TIP3   OH222726   4.708   6.439  13.347 -1.3679  0.1167  0.4732
  412TIP3    H122727   4.709   6.466  13.439  0.1264  0.1842  0.4555
  412TIP3    H222728   4.722   6.519  13.298 -1.8282  0.0285  0.1896
  413TIP3   OH222729   3.843   6.487  16.235  0.2187  0.3680  0.3496
  413TIP3    H122730   3.876   6.548  16.301 -1.5377  1.9934 -0.1896
  413TIP3    H222731   3.812   6.411  16.285  2.4699 -0.1957  1.0272
  414TIP3   OH222732   5.582   0.248   2.155  0.3950 -0.8330 -0.2576
  414TIP3    H122733   5.663   0.203   2.181  0.8963  1.0077  1.5925
  414TIP3    H222734   5.605   0.292   2.073  1.0499 -0.8948 -0.1139
  415TIP3   OH222735   2.448   1.979  14.405 -0.3758 -0.3329  0.4102
  415TIP3    H122736   2.411   2.067  14.402 -2.5019 -1.1834 -1.9666
  415TIP3    H222737   2.403   1.937  14.478  0.1331  0.2968  1.1081
  416TIP3   OH222738   6.470   3.113   4.956 -0.4357  0.2166 -0.1834
  416TIP3    H122739   6.430   3.027   4.969 -0.2880  0.1316 -0.2958
  416TIP3    H222740   6.472   3.124   4.861 -1.8938  1.0116 -0.1603
  417TIP3   OH222741   2.712   0.427   1.174  0.2846  0.3540  0.3546
  417TIP3    H122742   2.733   0.458   1.262 -0.7054 -0.6414  0.9714
  417TIP3    H222743   2.678   0.504   1.129  0.7143  0.8545  0.8611
  418TIP3   OH222744   0.885   0.989   2.005  0.1506 -0.2594 -0.3898
  418TIP3    H122745   0.896   0.982   1.911  0.7068 -0.6278 -0.3037
  418TIP3    H222746   0.873   1.083   2.021 -0.3112 -0.2347 -0.8572
  419TIP3   OH222747   6.049   2.887   5.360  0.3946  0.7758 -0.9262
  419TIP3    H122748   6.078   2.801   5.392  0.2946  0.0377 -2.7217
  419TIP3    H222749   6.028   2.936   5.440 -0.9440 -1.3555  0.1211
  420TIP3   OH222750   4.981   3.139   0.546  0.3352 -0.0066  0.4097
  420TIP3    H122751   4.916   3.081   0.585 -2.3663  3.2626  1.2161
  420TIP3    H222752   4.982   3.117   0.453 -1.5850 -0.4806  0.4820
  421TIP3   OH222753   6.594   5.429  15.489 -0.5415 -0.2380  0.1048
  421TIP3    H122754   6.594   5.457  15.580 -3.2575 -1.2199  0.5094
  421TIP3    H222755   6.520   5.475  15.450 -0.5824 -1.2729 -1.1074
  422TIP3   OH222756   2.605   3.354  15.211 -0.5390 -0.2871 -0.2370
  422TIP3    H122757   2.603   3.298  15.289 -0.6316 -0.8466 -0.6422
  422TIP3    H222758   2.653   3.432  15.240  1.0866 -1.2899 -0.1450
  423TIP3   OH222759   5.149   4.635  14.213  0.1108  0.2570 -0.2025
  423TIP3    H122760   5.161   4.724  14.182  0.4304  0.7766  1.3334
  423TIP3    H222761   5.150   4.581  14.134 -1.7403  1.7545 -1.3129
  424TIP3   OH222762   3.580   5.126   4.111  0.2008  0.2217  0.2513
  424TIP3    H122763   3.650   5.093   4.055 -0.3518 -1.2778  0.3882
  424TIP3    H222764   3.537   5.047   4.144 -1.7859  1.0875 -0.1176
  425TIP3   OH222765   1.875   2.503   1.352 -0.9837  0.1667  0.1013
  425TIP3    H122766   1.835   2.590   1.354 -0.2453  0.5236  2.0547
  425TIP3    H222767   1.860   2.468   1.440 -0.2660 -1.2246 -0.2976
  426TIP3   OH222768   3.388   5.936  12.840 -0.3728  0.1514  0.0724
  426TIP3    H122769   3.393   5.854  12.889  0.4602 -0.8973 -1.6692
  426TIP3    H222770   3.408   6.004  12.905  0.6022 -1.1551  1.2078
  427TIP3   OH222771   4.294   1.268   6.165  0.2281  0.2605  0.1990
  427TIP3    H122772   4.308   1.283   6.072  1.7346 -1.5077  0.0779
  427TIP3    H222773   4.379   1.286   6.206 -0.6630  2.0440  1.4453
  428TIP3   OH222774   6.433   1.283   2.625 -0.1842 -0.4535 -0.5342
  428TIP3    H122775   6.392   1.308   2.542 -3.1618 -0.9715  0.6702
  428TIP3    H222776   6.512   1.337   2.630 -1.2101  1.3682 -2.5827
  429TIP3   OH222777   3.768   0.286  12.018 -0.2571 -0.4054 -0.3414
  429TIP3    H122778   3.708   0.214  11.998  0.5055 -0.7425 -1.4670
  429TIP3    H222779   3.767   0.341  11.940 -0.6992  0.7427  0.4392
  430TIP3   OH222780   1.798   1.591  10.600 -0.4073  0.3680 -0.6235
  430TIP3    H122781   1.752   1.511  10.573  0.2705 -0.1527 -0.2675
  430TIP3    H222782   1.889   1.575  10.576 -0.1288  0.6932  0.2152
  431TIP3   OH222783   1.272   2.805   4.959  0.3259 -0.5504 -0.1625
  431TIP3    H122784   1.199   2.812   5.021  0.1327  0.9705 -0.5115
  431TIP3    H222785   1.316   2.724   4.983 -0.1083 -0.3188  1.5827
  432TIP3   OH222786   6.224   4.779  17.016 -0.6754  0.6036 -0.2292
  432TIP3    H122787   6.244   4.788  16.922 -0.4213  2.1489 -0.0560
  432TIP3    H222788   6.292   4.720  17.049 -0.8414 -0.0655 -1.0310
  433TIP3   OH222789   4.390   0.174   5.677  0.5362 -0.3413  0.1723
  433TIP3    H122790   4.468   0.134   5.638  0.7195 -1.0916  1.2562
  433TIP3    H222791   4.414   0.189   5.768 -0.2186  0.4544  0.2485
  434TIP3   OH222792   5.359   6.035  11.204  0.3822 -0.4637 -0.6334
  434TIP3    H122793   5.360   6.104  11.137  1.4863  1.5961  1.3849
  434TIP3    H222794   5.449   6.033  11.237 -0.4537 -0.4063  1.7678
  435TIP3   OH222795   2.502   6.457   4.009  0.5048 -0.1366  0.3257
  435TIP3    H122796   2.443   6.417   4.073 -0.0329  0.7934  0.4219
  435TIP3    H222797   2.511   6.391   3.940 -2.8712  0.6870 -1.0833
  436TIP3   OH222798   4.923   2.312   4.519  0.2821 -0.0606 -0.5055
  436TIP3    H122799   4.905   2.370   4.592 -0.1902 -1.1424  0.2709
  436TIP3    H222800   4.909   2.366   4.441  0.1455  0.9294  0.1919
  437TIP3   OH222801   4.371   5.482  16.252 -0.4179 -0.9790  0.0118
  437TIP3    H122802   4.308   5.499  16.183 -1.2387  1.0223  1.1672
  437TIP3    H222803   4.319   5.445  16.324 -0.3880  0.7889  1.0139
  438TIP3   OH222804   0.896   6.551   1.094  1.0704  0.2481 -0.4168
  438TIP3    H122805   0.916   6.555   1.000  0.7266 -0.0007 -0.5049
  438TIP3    H222806   0.919   6.462   1.119 -1.3074 -0.5567 -0.8637
  439TIP3   OH222807   5.550   1.143   0.434  0.0404  0.2648 -0.1976
  439TIP3    H122808   5.620   1.180   0.379 -0.5478  2.7892  0.6169
  439TIP3    H222809   5.597   1.088   0.497  1.0073 -0.2699 -1.3373
  440TIP3   OH222810   5.293   1.680  13.046 -0.5927  0.1434 -0.5879
  440TIP3    H122811   5.383   1.710  13.061 -0.9420  0.1972  2.0115
  440TIP3    H222812   5.239   1.756  13.068 -1.3038  0.0682 -1.9901
  441TIP3   OH222813   4.680   1.826  14.218 -0.2327  0.6522 -0.5822
  441TIP3    H122814   4.642   1.874  14.292  0.4033 -0.9557  0.8355
  441TIP3    H222815   4.617   1.757  14.199  1.7469 -1.9641  1.7051
  442TIP3   OH222816   3.856   5.847  12.798  0.7100  0.1879 -0.1105
  442TIP3    H122817   3.818   5.929  12.829 -2.6198 -1.5306  0.8039
  442TIP3    H222818   3.788   5.808  12.743  1.6010 -2.6000  0.6122
  443TIP3   OH222819   3.182   5.581  16.774  0.2231 -0.1431 -0.6009
  443TIP3    H122820   3.259   5.547  16.819 -0.5422 -0.0110  0.9114
  443TIP3    H222821   3.108   5.541  16.820 -0.6338  0.9566 -0.9618
  444TIP3   OH222822   1.151   1.520   3.273  0.0593  0.1647 -0.4882
  444TIP3    H122823   1.111   1.605   3.255 -2.5921 -0.8070  0.3289
  444TIP3    H222824   1.176   1.523   3.365 -1.2830 -0.3440 -0.0812
  445TIP3   OH222825   0.315   3.450  14.085 -0.1109 -0.0408 -0.1672
  445TIP3    H122826   0.326   3.507  14.009 -0.7767  0.3597  0.0299
  445TIP3    H222827   0.244   3.490  14.135  0.1854 -0.4142  0.5648
  446TIP3   OH222828   0.366   6.216  11.155 -0.4107  0.7881  0.0561
  446TIP3    H122829   0.296   6.157  11.182 -0.9946  1.3409 -0.2096
  446TIP3    H222830   0.326   6.269  11.085  1.1745 -0.9782 -2.3577
  447TIP3   OH222831   3.247   1.076   1.748 -0.4729  0.2977  0.4883
  447TIP3    H122832   3.234   1.170   1.760 -2.3345  0.1169  0.0559
  447TIP3    H222833   3.342   1.067   1.739 -0.2244  2.0873  0.8727
  448TIP3   OH222834   3.349   1.426  16.291  0.0071  0.2541  0.3361
  448TIP3    H122835   3.312   1.415  16.379 -1.4731  0.5201 -0.2207
  448TIP3    H222836   3.393   1.344  16.272 -2.0787 -0.9081  0.2433
  449TIP3   OH222837   5.248   3.779  14.331 -0.1301  0.3697 -0.5446
  449TIP3    H122838   5.268   3.870  14.311 -1.0699  0.8300  0.4917
  449TIP3    H222839   5.217   3.781  14.422  2.4420 -1.3703  0.4874
  450TIP3   OH222840   2.581   0.423  11.782 -0.9969  0.5376 -0.1515
  450TIP3    H122841   2.663   0.423  11.733 -0.6001 -0.7901  0.4661
  450TIP3    H222842   2.581   0.507  11.828 -0.0383  0.6076 -0.2545
  451TIP3   OH222843   4.703   3.288   4.644  0.0607  0.7005  0.4896
  451TIP3    H122844   4.762   3.243   4.704  0.1528  1.8796  1.3249
  451TIP3    H222845   4.615   3.263   4.672  0.1006 -1.6178 -1.1947
  452TIP3   OH222846   0.814   4.858   3.517  0.2325  0.3313 -0.2002
  452TIP3    H122847   0.848   4.781   3.563  0.4121  0.5138 -0.0277
  452TIP3    H222848   0.807   4.831   3.426 -2.3269 -0.8248  0.2474
  453TIP3   OH222849   0.780   0.305  16.401  0.3152 -0.4013  0.1407
  453TIP3    H122850   0.785   0.210  16.394  0.7611 -0.4122  0.5702
  453TIP3    H222851   0.699   0.328  16.354 -0.3250 -1.0782  0.8883
  454TIP3   OH222852   1.945   3.150   1.181  0.0838 -0.7404  0.0948
  454TIP3    H122853   1.876   3.111   1.234 -0.4516 -0.8986 -0.6975
  454TIP3    H222854   2.024   3.099   1.202  0.1041 -0.1831  1.4363
  455TIP3   OH222855   6.712   1.778   2.126  0.1323 -0.0897 -0.1407
  455TIP3    H122856   6.759   1.833   2.064  1.9048 -3.2688 -1.8927
  455TIP3    H222857   6.758   1.791   2.209  1.1702  0.3217 -0.7618
  456TIP3   OH222858   5.415   0.313  17.083 -0.2265  0.4778 -0.1577
  456TIP3    H122859   5.508   0.322  17.104 -0.2848  1.0482 -0.1210
  456TIP3    H222860   5.414   0.253  17.008  0.0417 -0.8160  0.8395
  457TIP3   OH222861   3.874   5.191  11.306  0.7051 -0.3035 -0.1958
  457TIP3    H122862   3.916   5.275  11.285  1.9170 -0.7370  0.3867
  457TIP3    H222863   3.896   5.175  11.398 -1.6339 -0.0829  0.4649
  458TIP3   OH222864   6.258   1.060  10.696  0.1078  0.2745  0.3085
  458TIP3    H122865   6.277   0.970  10.670  0.7124  0.1575  1.1086
  458TIP3    H222866   6.344   1.097  10.717 -0.3056  0.4861  1.6871
  459TIP3   OH222867   3.106   1.946   4.895  0.4934  0.4130  0.1361
  459TIP3    H122868   3.141   2.015   4.951 -0.2837  1.9377 -1.1746
  459TIP3    H222869   3.019   1.977   4.872  0.2716 -0.8515 -0.7996
  460TIP3   OH222870   3.222   1.161   4.882 -0.1080 -0.4845  0.6786
  460TIP3    H122871   3.180   1.164   4.796 -1.8217  1.3538  1.4932
  460TIP3    H222872   3.163   1.107   4.935  0.8605 -1.4858  0.7533
  461TIP3   OH222873   4.812   4.263  11.949 -0.1501  0.1126  0.0853
  461TIP3    H122874   4.849   4.188  11.996 -1.0980 -1.3304 -1.3342
  461TIP3    H222875   4.888   4.314  11.922  0.9039 -2.3706 -2.1152
  462TIP3   OH222876   4.832   4.430  10.426 -0.3636 -0.0054  0.7065
  462TIP3    H122877   4.870   4.358  10.377 -1.3946 -0.1551  0.1099
  462TIP3    H222878   4.802   4.390  10.508  2.2846  0.4231  2.0185
  463TIP3   OH222879   1.900   5.754  14.110 -0.0839  0.5353 -0.8291
  463TIP3    H122880   1.855   5.819  14.164 -1.4021 -2.8794  2.7178
  463TIP3    H222881   1.831   5.692  14.084  1.4295 -0.8060 -1.8755
  464TIP3   OH222882   1.391   1.742  14.669  1.1938  0.0666 -0.1262
  464TIP3    H122883   1.360   1.736  14.579  2.3941  1.0476 -0.6405
  464TIP3    H222884   1.316   1.719  14.723 -0.1947  1.6544 -1.3107
  465TIP3   OH222885   1.885   4.068   1.159  0.1594  0.7598 -0.0865
  465TIP3    H122886   1.905   4.121   1.082 -0.9138 -0.5555 -1.3065
  465TIP3    H222887   1.839   3.992   1.125  1.0808 -0.6660  1.6873
  466TIP3   OH222888   2.342   2.532   2.184  0.3055 -0.0696  0.0571
  466TIP3    H122889   2.251   2.503   2.192  0.4429 -0.0567  2.0624
  466TIP3    H222890   2.342   2.621   2.218  0.9603  0.1628 -0.5247
  467TIP3   OH222891   6.437   0.378   4.900 -0.2433 -0.1500  0.1808
  467TIP3    H122892   6.446   0.284   4.919 -3.0972 -0.3531  0.9730
  467TIP3    H222893   6.424   0.382   4.806 -1.5825 -0.7475  0.3158
  468TIP3   OH222894   6.058   0.866  14.749 -0.2323 -0.2977  0.0383
  468TIP3    H122895   6.152   0.882  14.744 -0.2122 -0.1398  0.7405
  468TIP3    H222896   6.051   0.774  14.773 -0.1922  0.1471  1.9015
  469TIP3   OH222897   6.390   1.978   3.597  0.0524  0.3871 -0.0261
  469TIP3    H122898   6.355   2.067   3.590 -0.7157  0.1409  0.4825
  469TIP3    H222899   6.385   1.943   3.508 -1.0672  0.3520  0.0357
  470TIP3   OH222900   0.053   1.014  15.042  0.5131  1.0107 -0.2082
  470TIP3    H122901   0.024   1.091  15.091  0.1224  0.2176  0.8493
  470TIP3    H222902  -0.019   0.995  14.982  0.8867  1.8388 -0.9497
  471TIP3   OH222903   5.271   1.527  15.057 -0.2264 -0.5213  0.4378
  471TIP3    H122904   5.225   1.556  15.136  2.3661 -1.4663  2.4676
  471TIP3    H222905   5.350   1.483  15.091  0.8243 -1.2867 -2.7049
  472TIP3   OH222906   3.255   6.003   2.403  0.1416  0.4906  0.0414
  472TIP3    H122907   3.161   6.019   2.408 -0.4093 -1.8679 -1.3437
  472TIP3    H222908   3.273   5.944   2.476  0.2017 -0.3608 -0.6455
  473TIP3   OH222909   4.423   3.635  12.328 -0.0496 -0.5899  0.1399
  473TIP3    H122910   4.413   3.720  12.370 -2.6612 -0.0803 -1.2806
  473TIP3    H222911   4.511   3.637  12.292  0.1683  1.3019  0.6400
  474TIP3   OH222912   1.322   4.189  14.791 -0.4208 -0.1279 -0.3205
  474TIP3    H122913   1.403   4.219  14.750 -0.8563  0.8573 -0.4983
  474TIP3    H222914   1.292   4.118  14.735  0.9305 -1.3594  0.4285
  475TIP3   OH222915   2.771   6.378   2.663  0.2024  0.4091 -0.3023
  475TIP3    H122916   2.838   6.346   2.602 -1.2960  1.3077 -2.5320
  475TIP3    H222917   2.717   6.301   2.681  0.2371  0.2924 -0.6841
  476TIP3   OH222918   2.251   6.548   0.261  0.5183 -0.4500 -0.8284
  476TIP3    H122919   2.299   6.629   0.245 -1.6591  1.1826  0.4163
  476TIP3    H222920   2.282   6.518   0.346  0.4325 -0.2372 -0.7225
  477TIP3   OH222921   3.871   4.207  14.835 -0.1984 -0.5726 -0.1926
  477TIP3    H122922   3.785   4.180  14.868 -2.8372  4.3321 -1.9756
  477TIP3    H222923   3.917   4.241  14.912 -0.8206 -1.0229  0.3951
  478TIP3   OH222924   2.434   1.055  11.405 -0.3763 -0.1857  0.1790
  478TIP3    H122925   2.369   1.050  11.475  0.3364  0.6593  0.9433
  478TIP3    H222926   2.416   1.138  11.361 -0.4295 -0.4176 -0.2446
  479TIP3   OH222927   0.992   2.988  11.009  0.7544  0.0376 -0.4662
  479TIP3    H122928   1.056   2.936  11.057 -1.4453 -4.5639 -1.9911
  479TIP3    H222929   1.013   2.974  10.917 -1.2686 -0.0354 -0.9619
  480TIP3   OH222930   6.470   6.391   4.631 -0.3823  0.2991 -0.0603
  480TIP3    H122931   6.534   6.325   4.658  1.2344  1.4633 -0.8256
  480TIP3    H222932   6.496   6.414   4.542 -2.1374  0.5373 -0.5352
  481TIP3   OH222933   0.493   4.591  15.447  0.1521 -0.0327  0.5792
  481TIP3    H122934   0.456   4.559  15.529  1.0661 -0.2018  0.9265
  481TIP3    H222935   0.584   4.562  15.448  0.8739  2.1060  0.6679
  482TIP3   OH222936   4.004   4.140  16.239 -0.4723 -0.2919 -0.0978
  482TIP3    H122937   3.983   4.200  16.310  0.6932  0.3054 -0.2273
  482TIP3    H222938   4.029   4.197  16.166  1.1940 -0.9109 -0.0489
  483TIP3   OH222939   5.484   5.178   4.570  0.1162 -0.3782  0.0776
  483TIP3    H122940   5.523   5.182   4.658  1.5180  2.3897 -0.5589
  483TIP3    H222941   5.389   5.182   4.586  0.3682  0.7242  1.4543
  484TIP3   OH222942   3.827   0.692   2.978 -0.2377 -0.0617 -0.0070
  484TIP3    H122943   3.837   0.779   3.017  0.6838 -0.3777  0.4750
  484TIP3    H222944   3.798   0.710   2.888 -3.4522  0.6602  1.0263
  485TIP3   OH222945   2.060   1.483  10.531  0.3182  0.5088  0.0549
  485TIP3    H122946   2.036   1.443  10.615 -0.2778 -2.4254 -1.3872
  485TIP3    H222947   2.144   1.444  10.509 -0.5460 -0.4454 -1.6870
  486TIP3   OH222948   3.039   3.120  15.737  0.4945 -0.1005 -0.3708
  486TIP3    H122949   3.052   3.170  15.656 -0.4177  0.2319 -0.3231
  486TIP3    H222950   3.073   3.176  15.806  0.9351 -0.2286 -0.4799
  487TIP3   OH222951   6.543   0.128  16.354 -0.3033  0.0088 -0.2842
  487TIP3    H122952   6.540   0.120  16.259 -1.0788  1.1355 -0.3748
  487TIP3    H222953   6.563   0.220  16.369 -0.4805 -0.0972  0.6500
  488TIP3   OH222954   6.655   3.980  12.027  0.0292  0.1629  0.0125
  488TIP3    H122955   6.678   4.024  11.946  1.8076 -2.6123 -1.1433
  488TIP3    H222956   6.565   3.949  12.013  0.0611  0.3386 -0.6057
  489TIP3   OH222957   6.267   6.007   0.663 -0.0694 -0.0461 -0.2495
  489TIP3    H122958   6.191   5.954   0.639  0.3116  0.0390 -1.6879
  489TIP3    H222959   6.319   5.950   0.720 -2.1809  0.6017  2.5094
  490TIP3   OH222960   6.733   4.472  10.427  0.5131  0.1495  0.3438
  490TIP3    H122961   6.802   4.537  10.436 -0.0205  1.4352 -3.2918
  490TIP3    H222962   6.675   4.488  10.502  0.4844  3.8557 -0.2688
  491TIP3   OH222963   3.957   4.941  14.972  0.0490  0.0043  0.1816
  491TIP3    H122964   3.886   4.889  15.008 -0.8662  0.5470 -0.8036
  491TIP3    H222965   4.033   4.917  15.026 -0.8960 -0.4407  1.3666
  492TIP3   OH222966   3.234   4.156   5.737  0.2787  0.2004  0.1893
  492TIP3    H122967   3.292   4.190   5.805  1.2335 -1.0542  0.0353
  492TIP3    H222968   3.292   4.124   5.669 -0.6482  0.4980 -0.7846
  493TIP3   OH222969   3.569   5.471   3.831  0.2426  0.2562  0.0709
  493TIP3    H122970   3.491   5.421   3.855  0.4944 -0.1395  0.0772
  493TIP3    H222971   3.630   5.405   3.797  0.0603  0.7337 -1.2651
  494TIP3   OH222972   6.730   4.608   3.929 -0.1832 -0.3003 -0.7869
  494TIP3    H122973   6.637   4.595   3.912 -0.0052 -0.4579 -1.7138
  494TIP3    H222974   6.771   4.524   3.905  0.3493  0.2161 -1.7730
  495TIP3   OH222975   6.354   5.378  15.095 -0.5916  0.3173 -0.3399
  495TIP3    H122976   6.300   5.303  15.116 -1.1442  0.8435  0.1531
  495TIP3    H222977   6.442   5.343  15.084 -0.2802 -0.0403  2.6510
  496TIP3   OH222978   2.949   5.121  14.914  0.0809  0.2529  0.0867
  496TIP3    H122979   2.985   5.105  15.001  2.9872  0.7037 -0.8966
  496TIP3    H222980   2.855   5.131  14.927  0.5449  1.4464  3.3210
  497TIP3   OH222981   3.757   4.361   2.581 -0.0752 -0.2893  0.5753
  497TIP3    H122982   3.741   4.267   2.581  0.0542 -0.4007 -2.0633
  497TIP3    H222983   3.849   4.370   2.605 -0.0689 -0.8505  0.7702
  498TIP3   OH222984   5.716   5.926  13.297 -0.5511 -0.5633  0.0379
  498TIP3    H122985   5.747   5.875  13.372  0.9832  0.5841  0.2376
  498TIP3    H222986   5.767   5.891  13.223 -1.2143 -0.9052 -0.2621
  499TIP3   OH222987   4.375   3.920  13.159 -0.7183  0.0509 -0.3160
  499TIP3    H122988   4.333   3.988  13.212  1.0886  1.6042 -0.7604
  499TIP3    H222989   4.349   3.941  13.069 -0.0473  0.2607 -0.4672
  500TIP3   OH222990   6.515   4.784  11.720  0.3566 -0.1352 -0.1791
  500TIP3    H122991   6.481   4.695  11.733  0.4835 -0.2923 -0.8611
  500TIP3    H222992   6.606   4.771  11.692 -0.1200  0.1203 -1.9851
  501TIP3   OH222993   2.656   6.097   4.177  0.4808  0.6346 -0.2410
  501TIP3    H122994   2.656   6.042   4.099 -0.4328  2.7004 -1.8123
  501TIP3    H222995   2.567   6.089   4.212  0.9577 -0.4849  0.8073
  502TIP3   OH222996   0.560   5.654  11.233  0.1289 -0.2892 -0.3584
  502TIP3    H122997   0.584   5.589  11.298 -2.0386  0.7769  1.6814
  502TIP3    H222998   0.467   5.672  11.250 -0.1083  1.2131 -2.7372
  503TIP3   OH222999   5.720   6.751  13.876 -0.0528  0.4578  0.1360
  503TIP3    H123000   5.733   6.664  13.840  0.5832  0.7678 -0.4217
  503TIP3    H223001   5.626   6.758  13.891 -0.5658  0.8069 -2.7761
  504TIP3   OH223002   3.390   1.905   1.190 -0.4032  0.1511  0.1852
  504TIP3    H123003   3.484   1.925   1.191 -0.6571  1.5534 -1.1483
  504TIP3    H223004   3.382   1.835   1.125 -0.3024  0.2253  0.0904
  505TIP3   OH223005   3.837   6.411   5.010  1.3823 -0.4133  0.1720
  505TIP3    H123006   3.777   6.356   5.060  0.6767  0.1603 -0.0227
  505TIP3    H223007   3.922   6.368   5.019  0.9033 -1.3961  0.2316
  506TIP3   OH223008   2.714   0.537   1.461  0.4021  0.6350 -0.4073
  506TIP3    H123009   2.654   0.587   1.517 -1.3986 -2.3210  0.5691
  506TIP3    H223010   2.757   0.477   1.521  0.4299 -0.8220 -1.8280
  507TIP3   OH223011   3.297   6.765  11.535 -0.5312 -0.0463  0.9452
  507TIP3    H123012   3.336   6.802  11.456  1.4540  0.3064  2.0160
  507TIP3    H223013   3.268   6.678  11.509  0.1648  0.0307 -0.1696
  508TIP3   OH223014   6.201   1.158  11.417  0.5859  0.3589  0.1925
  508TIP3    H123015   6.270   1.216  11.447  1.3426  0.1091 -0.9945
  508TIP3    H223016   6.244   1.074  11.403  0.3890  0.5373 -1.8507
  509TIP3   OH223017   0.981   3.158  15.586 -0.2008 -0.2779  0.4481
  509TIP3    H123018   1.058   3.102  15.574  0.0051  0.0915  0.0108
  509TIP3    H223019   0.946   3.132  15.671 -1.1365 -2.3203 -0.5121
  510TIP3   OH223020   4.145   0.483   6.614  0.1934  0.1586 -0.3180
  510TIP3    H123021   4.094   0.406   6.639 -0.3667  0.7488  0.3951
  510TIP3    H223022   4.135   0.488   6.518 -1.6385  0.6312 -0.1352
  511TIP3   OH223023   0.477   1.103  14.938  0.7333 -0.1386 -0.0953
  511TIP3    H123024   0.473   1.186  14.892  2.8997  0.2759  0.3376
  511TIP3    H223025   0.387   1.070  14.937 -0.0509  1.8770 -0.8370
  512TIP3   OH223026   1.214   4.454  14.677  0.1066  0.1913 -0.4284
  512TIP3    H123027   1.298   4.409  14.684 -0.6164 -1.1228  0.2256
  512TIP3    H223028   1.202   4.496  14.762 -0.4489 -0.6753 -0.0628
  513TIP3   OH223029   4.768   5.638  11.763  0.5034  0.3385 -0.1287
  513TIP3    H123030   4.850   5.679  11.736  0.6099  0.0565 -0.2395
  513TIP3    H223031   4.701   5.681  11.709  0.4233  1.4036  0.7913
  514TIP3   OH223032   0.447   3.690   0.092  0.1813 -0.3646  0.0806
  514TIP3    H123033   0.512   3.760   0.105  0.3292 -0.0181 -2.1989
  514TIP3    H223034   0.386   3.725   0.027 -2.5522 -0.5783  2.3248
  515TIP3   OH223035   4.774   1.648   6.003 -0.1505 -0.1976  0.5163
  515TIP3    H123036   4.717   1.627   5.929 -0.2371 -1.0035  0.8029
  515TIP3    H223037   4.756   1.740   6.022 -3.0616 -0.9469  2.0286
  516TIP3   OH223038   6.476   0.927   6.133  0.0561  0.0988  0.4389
  516TIP3    H123039   6.387   0.958   6.151 -0.1856  0.2672 -0.9704
  516TIP3    H223040   6.532   0.987   6.181 -0.5589  0.5177  0.6488
  517TIP3   OH223041   3.946   5.688  16.494 -0.2724 -0.7261  0.3089
  517TIP3    H123042   4.004   5.728  16.559  0.0480 -0.2266 -0.2728
  517TIP3    H223043   3.998   5.687  16.414 -1.0625 -0.2907 -0.2208
  518TIP3   OH223044   0.081   4.767   1.269  0.2371 -0.0190 -0.5047
  518TIP3    H123045   0.062   4.703   1.337 -1.5275 -2.3784 -2.9916
  518TIP3    H223046   0.169   4.746   1.239  0.4719  0.1251  0.0745
  519TIP3   OH223047   0.623   0.305  13.254  0.4904 -0.1396  0.1403
  519TIP3    H123048   0.627   0.387  13.304  0.6875 -0.1511  0.1416
  519TIP3    H223049   0.680   0.320  13.179  1.6899 -0.7969  0.8894
  520TIP3   OH223050   6.820   5.237   2.321  0.7486 -0.0290  0.0237
  520TIP3    H123051   6.828   5.281   2.406  2.1244  1.2200 -0.7004
  520TIP3    H223052   6.910   5.210   2.300  0.3971 -0.4705 -0.9652
  521TIP3   OH223053   0.356   3.446   1.755 -0.4688 -0.3581  0.5986
  521TIP3    H123054   0.359   3.538   1.727 -0.4227 -0.6684 -0.4728
  521TIP3    H223055   0.418   3.441   1.827  0.6082  0.1710 -0.2567
  522TIP3   OH223056   2.768   1.154  16.241 -0.1550 -0.3532  0.3782
  522TIP3    H123057   2.807   1.240  16.226  0.1390 -0.4824  0.3982
  522TIP3    H223058   2.688   1.154  16.188 -0.0717 -0.1298  0.2534
  523TIP3   OH223059   5.558   3.381  11.673 -0.4626 -0.3435 -0.0929
  523TIP3    H123060   5.621   3.333  11.620 -0.1636  0.5109 -0.5414
  523TIP3    H223061   5.509   3.434  11.610 -0.2459  0.5334  0.4479
  524TIP3   OH223062   1.186   5.681   2.425  0.2581  0.2213  0.0820
  524TIP3    H123063   1.110   5.624   2.421  0.7390 -0.4157 -0.1984
  524TIP3    H223064   1.212   5.681   2.517  1.9101 -2.2784 -0.3005
  525TIP3   OH223065   1.960   1.090   2.198 -0.2204  0.0246 -0.1407
  525TIP3    H123066   1.901   1.162   2.173  0.6587  1.0790  0.7176
  525TIP3    H223067   2.043   1.112   2.155  0.0146 -0.5833 -0.0060
  526TIP3   OH223068   3.354   4.443   4.978 -0.0564 -0.6780 -0.6582
  526TIP3    H123069   3.321   4.531   4.957  0.1472 -0.6302 -0.7749
  526TIP3    H223070   3.385   4.409   4.895 -2.8861 -2.0471 -1.2877
  527TIP3   OH223071   4.233   6.676   4.423 -0.3726  0.3562 -0.0821
  527TIP3    H123072   4.248   6.683   4.518 -1.1369 -2.0029  0.2767
  527TIP3    H223073   4.161   6.614   4.415  0.0821  0.0422 -2.2505
  528TIP3   OH223074   5.665   4.113   5.825  0.8442  0.3086  0.0403
  528TIP3    H123075   5.641   4.176   5.756 -0.9693  0.1312  0.4501
  528TIP3    H223076   5.590   4.113   5.884  0.9503 -1.9389  0.2677
  529TIP3   OH223077   3.328   3.227  13.820  0.1580 -0.3630  0.1731
  529TIP3    H123078   3.301   3.292  13.884  0.0221  1.8013 -1.9237
  529TIP3    H223079   3.420   3.209  13.841  0.9559  2.3493 -0.5103
  530TIP3   OH223080   2.557   0.811   2.714 -0.5027 -0.3263  0.1061
  530TIP3    H123081   2.562   0.857   2.798  1.1997 -0.3226  0.0422
  530TIP3    H223082   2.587   0.875   2.650 -1.1191 -0.5507 -0.4115
  531TIP3   OH223083   5.374   0.102  11.400  0.2735 -0.0696 -0.0385
  531TIP3    H123084   5.362   0.031  11.337  1.3007 -0.6632  0.4074
  531TIP3    H223085   5.467   0.098  11.423  0.1811  0.9438  0.5655
  532TIP3   OH223086   5.333   5.894   2.173  0.1636  0.3191  0.4174
  532TIP3    H123087   5.246   5.916   2.141  1.3264  1.5654 -2.2358
  532TIP3    H223088   5.392   5.946   2.119  2.6239 -1.2218  1.4376
  533TIP3   OH223089   1.884   2.408  12.165  0.5464  0.1422  0.1918
  533TIP3    H123090   1.847   2.495  12.176  1.2692  0.4313  0.3234
  533TIP3    H223091   1.978   2.419  12.176  0.9678 -0.1782 -2.5063
  534TIP3   OH223092   0.696   6.270   4.959 -0.7476  0.1149  0.0889
  534TIP3    H123093   0.755   6.343   4.941  0.0375 -0.0444  1.7904
  534TIP3    H223094   0.707   6.253   5.053 -1.5232 -1.6484 -0.0927
  535TIP3   OH223095   2.052   4.157  11.270 -0.2568 -0.4977 -0.1308
  535TIP3    H123096   2.068   4.062  11.271 -0.0074 -0.4477  0.8528
  535TIP3    H223097   1.957   4.165  11.282 -0.2334 -0.6158  0.1457
  536TIP3   OH223098   3.690   5.992   0.999  0.4251 -0.5683 -0.6853
  536TIP3    H123099   3.785   6.002   0.992  0.6358 -1.8158  0.0721
  536TIP3    H223100   3.669   5.917   0.944 -0.0566 -0.6232 -0.4341
  537TIP3   OH223101   1.212   4.623   1.633  0.0372  0.2444  0.0411
  537TIP3    H123102   1.304   4.605   1.613 -0.2526 -1.6361  0.1930
  537TIP3    H223103   1.215   4.664   1.719  0.7709  0.8641 -0.2655
  538TIP3   OH223104   5.411   0.996   5.596 -0.3316  0.1473  0.1962
  538TIP3    H123105   5.503   0.978   5.579 -0.2161  0.0590  0.8937
  538TIP3    H223106   5.376   0.914   5.632 -0.9842 -0.2191 -1.2191
  539TIP3   OH223107   1.859   3.775   1.834  0.0851  0.3799  0.5028
  539TIP3    H123108   1.904   3.700   1.874  1.0120  0.5991 -0.1078
  539TIP3    H223109   1.923   3.846   1.838 -0.4869  0.9088  0.3145
  540TIP3   OH223110   3.366   3.180   5.480 -0.1930 -0.0472  0.3073
  540TIP3    H123111   3.459   3.201   5.474  0.2514 -2.1137 -1.8104
  540TIP3    H223112   3.354   3.147   5.569  0.2665  3.3261  1.7561
  541TIP3   OH223113   6.120   6.495  13.386 -0.3525 -0.4052 -0.2459
  541TIP3    H123114   6.199   6.540  13.357 -2.3540  3.0252 -0.9500
  541TIP3    H223115   6.129   6.490  13.481 -0.9790  4.0372  0.2715
  542TIP3   OH223116   6.584   4.004   0.215 -0.2845  0.0989 -0.1133
  542TIP3    H123117   6.544   4.086   0.244 -0.0275 -0.3464  1.6712
  542TIP3    H223118   6.664   4.031   0.170 -1.2999  0.8900 -1.4857
  543TIP3   OH223119   6.264   6.210  13.233 -0.7514  0.6593  0.0239
  543TIP3    H123120   6.254   6.166  13.317 -1.6875  0.9960  0.0973
  543TIP3    H223121   6.297   6.297  13.256  1.0516  0.0716 -0.1179
  544TIP3   OH223122   4.266   4.620  13.389  0.7051 -0.2046 -0.4879
  544TIP3    H123123   4.258   4.539  13.439 -0.4738  1.0087  1.4296
  544TIP3    H223124   4.230   4.599  13.303 -1.6246 -1.2064  0.6429
  545TIP3   OH223125   2.132   3.473   4.352 -0.4787  0.2346 -0.3034
  545TIP3    H123126   2.198   3.505   4.413 -0.7069  1.2309 -0.5635
  545TIP3    H223127   2.078   3.413   4.404 -0.7389  1.1576  0.5047
  546TIP3   OH223128   3.453   0.468  16.616  0.3677  0.7239  0.1247
  546TIP3    H123129   3.515   0.399  16.642  1.6823  1.8972  0.1844
  546TIP3    H223130   3.378   0.455  16.673  1.0163 -0.0333  0.8306
  547TIP3   OH223131   5.631   2.485  14.359 -0.3160  0.2396  0.2764
  547TIP3    H123132   5.630   2.400  14.315 -0.2973  0.3637  0.0322
  547TIP3    H223133   5.700   2.477  14.425  0.1121  0.2673 -0.1606
  548TIP3   OH223134   1.413   6.679  11.909  1.1895 -0.0547 -0.3028
  548TIP3    H123135   1.404   6.743  11.838  1.5392 -1.4739 -1.6946
  548TIP3    H223136   1.496   6.701  11.950  1.2307  0.4851 -0.6579
  549TIP3   OH223137   4.237   6.035  11.606 -0.2562  0.2801 -0.1257
  549TIP3    H123138   4.295   6.071  11.539  2.7118 -2.8637  0.4420
  549TIP3    H223139   4.296   6.009  11.677 -2.5618 -1.5844  1.2676
  550TIP3   OH223140   5.196   1.787   5.773 -0.0063  0.6545 -0.4375
  550TIP3    H123141   5.228   1.854   5.713 -0.6545  0.3381 -1.1636
  550TIP3    H223142   5.274   1.739   5.800  0.6957  2.7207  1.4320
  551TIP3   OH223143   1.864   3.183  15.020  0.1868 -0.0442 -0.1732
  551TIP3    H123144   1.858   3.089  15.006 -0.7419 -0.2504  1.4317
  551TIP3    H223145   1.776   3.216  15.006  0.0340  0.2599  1.3380
  552TIP3   OH223146   0.070   0.845   3.599  0.6085  0.0395  0.2952
  552TIP3    H123147   0.119   0.824   3.520 -0.8861 -1.2437 -0.3531
  552TIP3    H223148   0.067   0.940   3.601  2.1759  0.1236 -0.2126
  553TIP3   OH223149   1.680   3.001   0.383  0.4010 -0.2864 -0.2988
  553TIP3    H123150   1.600   3.042   0.351  0.0680  1.9286  2.8499
  553TIP3    H223151   1.650   2.922   0.427 -0.1364  0.5197  0.8477
  554TIP3   OH223152   3.265   3.306   5.218  0.0135  0.2942 -0.2415
  554TIP3    H123153   3.307   3.261   5.291  0.7188  0.4824 -0.5221
  554TIP3    H223154   3.191   3.352   5.257  0.2103  0.1506  0.3015
  555TIP3   OH223155   5.518   1.934  13.638  0.2447 -0.8491  0.3393
  555TIP3    H123156   5.513   1.839  13.652 -0.1028 -0.9592 -0.4986
  555TIP3    H223157   5.462   1.951  13.563 -1.2757  0.2989  1.6634
  556TIP3   OH223158   4.315   1.671   2.000 -0.4669  0.1282  0.0172
  556TIP3    H123159   4.262   1.591   2.005 -0.4813  0.1610  0.3851
  556TIP3    H223160   4.332   1.694   2.091  1.7048 -0.8930 -0.0749
  557TIP3   OH223161   3.927   4.794  16.535  0.4919 -0.5850 -0.2359
  557TIP3    H123162   3.964   4.807  16.623 -0.7720  1.5133  0.0561
  557TIP3    H223163   3.917   4.883  16.500 -3.1520 -1.0059 -0.6813
  558TIP3   OH223164   0.062   1.313   5.977  0.0056  0.2292 -0.2116
  558TIP3    H123165   0.001   1.375   5.936 -2.0373 -2.1308 -1.0274
  558TIP3    H223166   0.049   1.325   6.071 -1.6053 -0.0226 -0.3629
  559TIP3   OH223167   2.472   3.487  17.212 -0.8276  0.0674 -0.0103
  559TIP3    H123168   2.548   3.448  17.168 -0.9961  0.1220 -0.3571
  559TIP3    H223169   2.416   3.412  17.234 -0.9420  0.0745 -0.2737
  560TIP3   OH223170   4.284   0.477  15.634  0.6921  0.0696  0.0633
  560TIP3    H123171   4.259   0.459  15.725  2.2639  0.8460  0.6747
  560TIP3    H223172   4.266   0.395  15.588  0.7069 -0.6305  1.2534
  561TIP3   OH223173   2.273   2.651  16.361 -0.0246 -0.1577  0.6458
  561TIP3    H123174   2.261   2.639  16.267  2.0820  0.4739  0.2394
  561TIP3    H223175   2.186   2.641  16.398 -0.7983 -1.0573 -1.2994
  562TIP3   OH223176   4.703   0.292  12.063  0.2310  0.4983 -0.6050
  562TIP3    H123177   4.744   0.239  11.994  0.9501  1.6277 -1.0834
  562TIP3    H223178   4.734   0.253  12.145  0.8517  0.2515 -0.9472
  563TIP3   OH223179   1.000   6.811  10.854  0.3171 -0.1983  0.1487
  563TIP3    H123180   0.994   6.736  10.796  0.4790  0.1938 -0.3844
  563TIP3    H223181   1.090   6.810  10.886  0.6318  0.3517 -0.6744
  564TIP3   OH223182   0.980   6.210   4.306 -0.2606 -0.7193 -0.3109
  564TIP3    H123183   1.049   6.158   4.265  0.9768  0.1717  0.5577
  564TIP3    H223184   0.942   6.151   4.372 -0.3910 -1.2425 -0.8433
  565TIP3   OH223185   5.519   6.521   1.544  0.3004  0.2274  0.0431
  565TIP3    H123186   5.501   6.525   1.638 -0.8737 -0.4202 -0.1347
  565TIP3    H223187   5.614   6.514   1.538  0.3406 -0.5387  1.2185
  566TIP3   OH223188   3.596   2.135   5.571  0.5897  0.2647 -0.3792
  566TIP3    H123189   3.571   2.118   5.480 -0.9715 -0.7170  0.1911
  566TIP3    H223190   3.634   2.053   5.601  0.1025  0.2271  0.1573
  567TIP3   OH223191   5.635   1.933   5.245  0.3448  0.0852  0.0898
  567TIP3    H123192   5.677   1.995   5.304 -2.3559 -0.0509  2.3263
  567TIP3    H223193   5.578   1.986   5.190  1.4165 -0.0036 -1.1604
  568TIP3   OH223194   4.340   2.847   3.756 -0.1018 -0.2816 -0.1923
  568TIP3    H123195   4.280   2.862   3.683  0.0318 -0.5073 -0.3510
  568TIP3    H223196   4.293   2.786   3.814  0.0595 -0.6359 -0.4280
  569TIP3   OH223197   5.462   5.335   2.397 -0.6004  0.3436 -0.0436
  569TIP3    H123198   5.546   5.289   2.391 -0.5698  0.2558  1.0082
  569TIP3    H223199   5.465   5.399   2.326  0.3873  0.3884  0.0315
  570TIP3   OH223200   0.330   3.031  15.912 -0.0409  0.0999  0.1196
  570TIP3    H123201   0.283   3.078  15.842  1.6793 -0.5234 -1.5314
  570TIP3    H223202   0.404   3.087  15.934  0.2220 -0.3599  0.4316
  571TIP3   OH223203   0.267   2.612  16.886  0.0247  0.1025 -0.1977
  571TIP3    H123204   0.207   2.579  16.819  0.8296 -2.4381  0.2166
  571TIP3    H223205   0.352   2.617  16.842  0.3375 -0.5004  0.3262
  572TIP3   OH223206   6.366   1.424   1.983 -0.6522 -0.4197  0.5906
  572TIP3    H123207   6.426   1.351   1.994 -0.1402 -0.0426  0.3285
  572TIP3    H223208   6.280   1.387   2.002 -0.5787 -1.4353 -0.8325
  573TIP3   OH223209   1.526   0.804   5.363  0.1037 -0.1941  0.0114
  573TIP3    H123210   1.589   0.868   5.329  2.7779 -2.2131  0.8141
  573TIP3    H223211   1.545   0.800   5.457 -1.0414 -1.0779  0.2261
  574TIP3   OH223212   0.167   4.069  11.427 -0.2648  0.0290  0.3880
  574TIP3    H123213   0.156   4.115  11.344  0.7085  1.0422  0.8021
  574TIP3    H223214   0.130   3.982  11.411 -2.3280  0.9674 -0.3637
  575TIP3   OH223215   0.948   0.461   1.538 -0.9819 -0.2796  0.2910
  575TIP3    H123216   0.972   0.472   1.446  0.0517  0.8796  0.6578
  575TIP3    H223217   1.031   0.439   1.581 -0.9346  1.6695  1.2958
  576TIP3   OH223218   0.624   2.918  11.956 -0.5222 -0.4833  0.3486
  576TIP3    H123219   0.616   3.008  11.987  0.6235 -0.5330  0.8489
  576TIP3    H223220   0.585   2.919  11.868 -0.2306  0.5797  0.2149
  577TIP3   OH223221   3.033   0.696  16.968  0.0117  0.5360 -0.3099
  577TIP3    H123222   3.098   0.714  17.036  2.9514 -2.1075 -2.1756
  577TIP3    H223223   3.045   0.603  16.947 -2.7901  0.5344 -2.4781
  578TIP3   OH223224   0.388   3.956  12.952  0.3273 -0.2808  0.8778
  578TIP3    H123225   0.335   3.948  13.031 -0.4016 -0.1711  0.4131
  578TIP3    H223226   0.386   4.049  12.931 -0.9538 -0.5149 -0.2285
  579TIP3   OH223227   3.982   0.972   6.255  0.1262  0.2276  0.0110
  579TIP3    H123228   4.045   0.946   6.321  0.3038 -1.7882 -0.8637
  579TIP3    H223229   4.032   0.972   6.173 -1.1628 -2.9720 -0.9681
  580TIP3   OH223230   6.658   1.582   1.175  0.1352  0.3688 -0.0004
  580TIP3    H123231   6.635   1.489   1.176  0.2843  0.3319  0.1436
  580TIP3    H223232   6.593   1.623   1.232  0.2358  0.3107  0.1582
  581TIP3   OH223233   5.332   4.454   3.903 -0.1127  0.3410 -0.7590
  581TIP3    H123234   5.368   4.541   3.921 -0.4969  0.7389 -1.8806
  581TIP3    H223235   5.255   4.470   3.849 -1.2556 -0.5889  0.5019
  582TIP3   OH223236   3.072   2.837  12.973  0.1907  0.5973 -0.1874
  582TIP3    H123237   3.153   2.791  12.994  0.7580  2.4174  1.9489
  582TIP3    H223238   3.014   2.818  13.046 -0.7889  0.5361 -0.9608
  583TIP3   OH223239   5.054   6.233  11.016 -0.1765  0.2362  0.0251
  583TIP3    H123240   5.002   6.239  10.936 -0.5396  0.1676  0.2541
  583TIP3    H223241   5.106   6.154  11.006 -0.0583  0.3451 -0.2376
  584TIP3   OH223242   1.808   1.846   0.324  0.0918 -0.5097 -1.1628
  584TIP3    H123243   1.845   1.907   0.388 -1.8815  1.0520 -1.4029
  584TIP3    H223244   1.884   1.804   0.285  1.4418  0.0629  0.6744
  585TIP3   OH223245   0.534   2.874  15.809 -0.7162 -0.2455 -0.4043
  585TIP3    H123246   0.556   2.909  15.722 -0.1003  0.8128  0.1572
  585TIP3    H223247   0.477   2.940  15.848  2.3074  1.4312  1.5791
  586TIP3   OH223248   0.937   1.792  13.879 -0.2148 -0.1522 -0.5579
  586TIP3    H123249   0.972   1.878  13.904 -1.0681  0.0978 -0.1966
  586TIP3    H223250   0.896   1.759  13.958 -0.0153 -0.8406 -0.7348
  587TIP3   OH223251   4.027   2.114  11.754 -0.0535 -1.2141  0.3968
  587TIP3    H123252   3.999   2.133  11.664  0.6647  0.8673  0.5453
  587TIP3    H223253   4.106   2.167  11.765  0.5730 -2.3912  1.8720
  588TIP3   OH223254   0.274   2.491   0.380  0.0952  0.0578 -0.5739
  588TIP3    H123255   0.309   2.554   0.317  0.3860 -0.5934 -1.0786
  588TIP3    H223256   0.310   2.407   0.352  0.5324 -0.2034  0.6820
  589TIP3   OH223257   3.174   1.484   2.882 -0.3147  0.3119 -0.4389
  589TIP3    H123258   3.125   1.528   2.951  0.6649 -0.1242  0.5699
  589TIP3    H223259   3.116   1.414   2.852 -0.5302  0.1340  0.3671
  590TIP3   OH223260   1.386   1.815   3.654 -0.0518  0.4976 -0.3097
  590TIP3    H123261   1.427   1.805   3.740  0.1897  1.2167 -0.3326
  590TIP3    H223262   1.309   1.869   3.671 -0.5568 -0.1946 -0.3902
  591TIP3   OH223263   3.074   0.130   5.499  0.3828  0.6641  0.2002
  591TIP3    H123264   3.088   0.213   5.544  2.0498  1.0274 -0.9136
  591TIP3    H223265   3.086   0.149   5.406 -0.0270 -0.6543 -0.1529
  592TIP3   OH223266   4.316   5.692   0.635  0.1151 -0.3009 -0.6062
  592TIP3    H123267   4.387   5.720   0.578 -0.8238  0.8512 -1.2387
  592TIP3    H223268   4.345   5.607   0.669  2.4844  0.8084  0.3899
  593TIP3   OH223269   6.350   6.620  15.335  0.0526 -0.8698 -0.6371
  593TIP3    H123270   6.302   6.559  15.280  0.6326 -1.6875 -0.2449
  593TIP3    H223271   6.403   6.671  15.274  0.1629 -1.2940 -0.8977
  594TIP3   OH223272   0.010   0.267  14.903  0.3316  0.0467 -0.1127
  594TIP3    H123273  -0.041   0.339  14.939  1.7712  0.3255  1.5348
  594TIP3    H223274  -0.010   0.193  14.960  2.2390  0.3467  1.0184
  595TIP3   OH223275   4.851   6.342  16.166 -0.4123 -0.6595 -0.2236
  595TIP3    H123276   4.796   6.312  16.238  0.1503 -0.6018  0.2319
  595TIP3    H223277   4.905   6.411  16.203  0.8872 -1.5964 -0.3103
  596TIP3   OH223278   0.748   0.694  10.941 -0.1114 -0.0531  0.0901
  596TIP3    H123279   0.737   0.778  10.986 -1.6479  0.5671 -1.3513
  596TIP3    H223280   0.797   0.715  10.862 -3.0923  0.1513 -1.8565
  597TIP3   OH223281   1.613   1.673  13.955 -0.3408  0.0485 -0.3169
  597TIP3    H123282   1.688   1.634  13.999 -0.7806 -0.4530  0.0064
  597TIP3    H223283   1.537   1.642  14.005 -0.7254  1.0801 -0.2378
  598TIP3   OH223284   1.059   6.003  15.938 -0.2440  0.3093  0.2120
  598TIP3    H123285   1.048   6.053  16.019 -0.5055  2.4214 -1.0495
  598TIP3    H223286   0.969   5.987  15.907 -0.1306  0.8228 -0.4025
  599TIP3   OH223287   1.159   2.532   1.981 -0.0468 -0.3052  0.6371
  599TIP3    H123288   1.157   2.544   2.076  0.7001  0.2095  0.5950
  599TIP3    H223289   1.136   2.440   1.969 -1.3434 -0.0845  1.2382
  600TIP3   OH223290   5.468   2.138  11.788  0.2823  0.1954  0.4923
  600TIP3    H123291   5.423   2.185  11.717 -0.4304 -1.6935 -0.3663
  600TIP3    H223292   5.409   2.145  11.863 -0.7174 -0.8620 -0.1613
  601TIP3   OH223293   5.389   4.602  12.846 -0.4127  0.2492  0.1169
  601TIP3    H123294   5.478   4.575  12.821 -0.6951 -0.1310 -0.4985
  601TIP3    H223295   5.350   4.634  12.765 -1.7338 -2.0385 -0.2313
  602TIP3   OH223296   1.856   2.115   0.439 -0.4672 -0.3211 -0.3611
  602TIP3    H123297   1.761   2.110   0.427 -0.5209 -0.0606 -0.0617
  602TIP3    H223298   1.877   2.208   0.426 -0.5094 -0.0477  1.3730
  603TIP3   OH223299   1.938   2.366  13.093 -0.2220  0.2039  0.4915
  603TIP3    H123300   1.941   2.420  13.172 -0.3712  0.1982  0.4998
  603TIP3    H223301   1.899   2.423  13.027  0.2116  0.3261  0.3325
  604TIP3   OH223302   1.864   3.896   3.681 -0.3995  0.3440 -0.0910
  604TIP3    H123303   1.894   3.863   3.596 -0.2756  1.5762 -0.5578
  604TIP3    H223304   1.880   3.825   3.742  0.3882 -0.2302 -0.9398
  605TIP3   OH223305   4.673   4.291  15.338 -0.8808  0.2250  0.2142
  605TIP3    H123306   4.750   4.307  15.394 -0.4248 -0.3402 -0.2363
  605TIP3    H223307   4.704   4.228  15.273 -1.3933  0.9111 -0.7143
  606TIP3   OH223308   1.152   3.105  16.901  0.5109 -0.1425  1.0200
  606TIP3    H123309   1.206   3.148  16.834 -0.3115 -0.0716  0.3916
  606TIP3    H223310   1.182   3.143  16.983  2.2805 -0.9927  0.8250
  607TIP3   OH223311   4.608   4.806  13.835  0.4244  0.3689  0.5959
  607TIP3    H123312   4.686   4.788  13.888  0.4384  0.9184  0.7699
  607TIP3    H223313   4.613   4.900  13.816 -0.3247  0.4660  0.8275
  608TIP3   OH223314   2.197   2.630   4.488  0.1209  0.4921 -0.0078
  608TIP3    H123315   2.163   2.709   4.530 -0.1806  0.8427 -0.8748
  608TIP3    H223316   2.187   2.647   4.394  0.5600 -0.3560 -0.2190
  609TIP3   OH223317   6.026   4.994   6.326  0.4017  0.5834 -0.1219
  609TIP3    H123318   6.051   5.079   6.362  0.3535 -0.3095  2.1843
  609TIP3    H223319   6.104   4.940   6.334 -0.0011 -0.0119 -0.1141
  610TIP3   OH223320   2.795   6.074   0.180  0.0321  0.1087 -0.4240
  610TIP3    H123321   2.822   6.050   0.268  0.0230  1.3891 -0.0498
  610TIP3    H223322   2.702   6.098   0.189  0.5295  2.2407 -0.3184
  611TIP3   OH223323   1.920   1.270  16.310  0.7448 -0.0346  0.0539
  611TIP3    H123324   1.891   1.236  16.394 -0.1734 -0.0366 -0.2574
  611TIP3    H223325   1.925   1.365  16.323 -0.7003  0.1020 -0.2643
  612TIP3   OH223326   5.054   4.475   4.640 -0.0256 -0.2115 -0.2826
  612TIP3    H123327   5.007   4.553   4.609 -1.1440  0.0134  1.7867
  612TIP3    H223328   5.109   4.450   4.566 -1.1419  1.3350 -1.7407
  613TIP3   OH223329   5.926   1.090   5.930  0.0911 -0.4548  0.6855
  613TIP3    H123330   5.884   1.025   5.986 -0.7091  0.1424  0.8102
  613TIP3    H223331   5.874   1.169   5.944  0.5444 -0.0152 -0.0850
  614TIP3   OH223332   0.974   3.524   1.259 -0.6606 -0.0676 -0.1227
  614TIP3    H123333   0.930   3.607   1.242  0.6820  0.8116  0.5092
  614TIP3    H223334   0.910   3.457   1.234 -1.4793  1.1417 -1.3952
  615TIP3   OH223335   2.634   3.713   4.045  0.1489 -0.1082  0.5359
  615TIP3    H123336   2.643   3.740   4.136  2.4622  0.7554  0.1323
  615TIP3    H223337   2.593   3.627   4.049  0.4450 -0.1953  2.4048
  616TIP3   OH223338   0.247   6.499   4.242  0.0758  0.2696 -0.0235
  616TIP3    H123339   0.231   6.455   4.326  0.6388  0.1897  0.0428
  616TIP3    H223340   0.341   6.517   4.241 -0.0029  0.6787 -0.4410
  617TIP3   OH223341   3.798   5.150   0.834  0.0410  0.4407 -0.7347
  617TIP3    H123342   3.753   5.231   0.858  0.5126  1.0844 -1.9048
  617TIP3    H223343   3.891   5.171   0.840  0.1804 -0.3900  0.1124
  618TIP3   OH223344   2.635   3.946  17.257 -0.3315  0.1128  0.0239
  618TIP3    H123345   2.547   3.953  17.220  0.4211  0.4111 -1.8429
  618TIP3    H223346   2.692   3.935  17.180  1.1638 -1.0752  1.2361
  619TIP3   OH223347   2.422   0.208   3.271 -0.5639  0.3923  0.1139
  619TIP3    H123348   2.418   0.169   3.183  2.2065  0.7511 -0.2465
  619TIP3    H223349   2.350   0.166   3.318 -1.1958 -0.9430 -1.8894
  620TIP3   OH223350   1.610   6.465   2.459  0.1169 -0.2790  0.1956
  620TIP3    H123351   1.515   6.478   2.465 -0.1518 -1.9086 -0.0568
  620TIP3    H223352   1.626   6.444   2.367  0.7937  0.3234  0.1597
  621TIP3   OH223353   3.092   4.838  15.357 -0.5930  0.3479 -0.1283
  621TIP3    H123354   3.089   4.744  15.343  0.1029  0.4214 -0.8056
  621TIP3    H223355   3.184   4.857  15.375 -1.0089  0.6257  2.0467
  622TIP3   OH223356   1.856   5.127   2.045 -0.2157  0.1094  0.1456
  622TIP3    H123357   1.847   5.190   2.117  0.1453 -1.5754  1.7459
  622TIP3    H223358   1.889   5.048   2.087  2.4129 -0.2249 -2.2912
  623TIP3   OH223359   5.983   3.026  14.645 -0.4166  0.3845 -0.5714
  623TIP3    H123360   5.957   2.954  14.588  0.5007 -0.3797 -0.0629
  623TIP3    H223361   5.959   3.105  14.597 -2.1060 -0.2413 -0.8309
  624TIP3   OH223362   2.416   4.508   6.664 -0.0044 -0.8302 -0.4553
  624TIP3    H123363   2.423   4.599   6.694 -1.8143 -0.9832  0.5845
  624TIP3    H223364   2.359   4.512   6.587  0.3941 -1.0256 -0.7624
  625TIP3   OH223365   4.664   4.744   1.719 -0.3924  0.1025  0.5526
  625TIP3    H123366   4.600   4.815   1.724 -1.5907 -0.8155 -0.9459
  625TIP3    H223367   4.737   4.782   1.670 -0.7316  0.5156  0.3531
  626TIP3   OH223368   6.464   3.400   5.322  0.1567  0.2077  0.0290
  626TIP3    H123369   6.379   3.365   5.348  0.8847  0.3989  2.9772
  626TIP3    H223370   6.513   3.324   5.292 -0.8838  0.0515 -1.4199
  627TIP3   OH223371   0.547   2.399  14.793 -0.0963 -0.0820 -0.2544
  627TIP3    H123372   0.470   2.348  14.819 -0.0144 -0.3250 -0.4792
  627TIP3    H223373   0.516   2.453  14.720 -0.7412  1.7538  1.3131
  628TIP3   OH223374   2.850   4.637   1.982 -0.5963 -0.4382  0.0336
  628TIP3    H123375   2.809   4.594   2.057 -0.2822  0.3192  0.6504
  628TIP3    H223376   2.916   4.694   2.020  0.7392 -1.2783 -0.9153
  629TIP3   OH223377   2.013   5.164   4.583 -0.4137 -0.0233  0.0661
  629TIP3    H123378   2.101   5.147   4.551 -0.0040  1.0062  0.5924
  629TIP3    H223379   2.001   5.103   4.655  0.7366  1.2874  1.4328
  630TIP3   OH223380   2.246   5.531   3.416  0.1350  0.3603 -0.2759
  630TIP3    H123381   2.289   5.465   3.362  1.8115  1.1972 -0.0119
  630TIP3    H223382   2.295   5.531   3.498 -2.3119 -0.8278  1.2995
  631TIP3   OH223383   4.287   1.257  16.549  0.9959 -0.7261 -0.0461
  631TIP3    H123384   4.329   1.297  16.625 -0.7218  0.4230  0.3524
  631TIP3    H223385   4.264   1.169  16.577  1.1567 -0.6057  0.4750
  632TIP3   OH223386   1.180   0.062   0.251  0.2475 -0.9413  0.3148
  632TIP3    H123387   1.189  -0.028   0.284 -0.1586 -0.6396  1.2814
  632TIP3    H223388   1.240   0.113   0.306 -1.3832 -0.2250  1.5032
  633TIP3   OH223389   2.433   4.511  10.814  0.1906 -0.1448  0.2424
  633TIP3    H123390   2.489   4.511  10.737  0.8291  1.6515  0.6516
  633TIP3    H223391   2.396   4.423  10.817 -0.8591  0.0671 -2.8112
  634TIP3   OH223392   6.818   4.913   5.282 -0.1718  0.2497  0.7225
  634TIP3    H123393   6.814   4.878   5.371 -2.1744 -2.3102 -0.2268
  634TIP3    H223394   6.905   4.890   5.251  0.7971  1.7696  2.1845
  635TIP3   OH223395   0.423   6.010  15.942 -0.3474 -0.0486 -0.3572
  635TIP3    H123396   0.378   5.928  15.921  1.0183 -1.2002  1.0008
  635TIP3    H223397   0.423   6.014  16.037  2.0173  0.0834 -0.3006
  636TIP3   OH223398   4.065   4.455   3.112  0.0274  0.1278  0.7093
  636TIP3    H123399   4.084   4.488   3.024  1.4373  0.4948  1.1107
  636TIP3    H223400   3.971   4.440   3.113 -0.0450  0.3367 -0.7853
  637TIP3   OH223401   3.228   1.960  16.944 -1.0320 -0.2330 -0.7295
  637TIP3    H123402   3.266   1.886  16.990  0.4897  0.4668 -0.8141
  637TIP3    H223403   3.171   1.921  16.878 -1.2714 -1.2806  0.0625
  638TIP3   OH223404   5.990   5.304  12.849 -0.3239 -0.3099  0.6708
  638TIP3    H123405   5.918   5.246  12.825 -0.3760  0.0047  0.0469
  638TIP3    H223406   6.062   5.245  12.872 -0.5881 -0.6204  0.7152
  639TIP3   OH223407   2.845   5.859   2.402  0.3065  0.1718  0.0780
  639TIP3    H123408   2.896   5.895   2.474 -0.6709  1.9822 -0.0657
  639TIP3    H223409   2.772   5.920   2.392 -0.6230 -1.0790 -1.2131
  640TIP3   OH223410   1.894   2.200  15.037 -0.7604  0.2056  0.0968
  640TIP3    H123411   1.809   2.157  15.026 -0.2466 -0.3393 -2.3162
  640TIP3    H223412   1.942   2.180  14.957  2.2945 -0.8135  2.0100
  641TIP3   OH223413   2.922   4.580   4.803  0.9033 -0.4682  0.8015
  641TIP3    H123414   2.942   4.620   4.888  0.2565 -0.1575  0.8174
  641TIP3    H223415   2.995   4.605   4.746  0.3179  1.0950  0.6957
  642TIP3   OH223416   1.338   2.415  12.738  0.1527  0.1955 -0.0652
  642TIP3    H123417   1.319   2.501  12.777 -0.3225  0.7174 -1.3918
  642TIP3    H223418   1.266   2.400  12.677  0.8267 -0.6384 -0.6791
  643TIP3   OH223419   0.331   0.080  15.421  0.0317 -0.2266  0.2444
  643TIP3    H123420   0.285   0.136  15.484  0.0143  2.4688 -1.9685
  643TIP3    H223421   0.367   0.141  15.357 -0.3694 -2.8006 -2.6640
  644TIP3   OH223422   3.748   4.346  14.178  0.0526  0.2644 -0.4608
  644TIP3    H123423   3.672   4.354  14.122  0.2015  0.6832 -0.6133
  644TIP3    H223424   3.820   4.323  14.119  0.3123  1.1981 -0.5379
  645TIP3   OH223425   4.600   6.611  11.833 -0.0729 -0.5146 -0.6246
  645TIP3    H123426   4.552   6.623  11.915  0.2705  0.3033 -0.5453
  645TIP3    H223427   4.692   6.618  11.857  0.0564 -0.9211 -0.9796
  646TIP3   OH223428   3.434   1.757   3.481 -0.5650 -0.0979 -0.4531
  646TIP3    H123429   3.474   1.815   3.546  2.2072 -0.9165 -1.2951
  646TIP3    H223430   3.344   1.747   3.511  0.0186  1.2297  2.0749
  647TIP3   OH223431   4.992   0.384  13.305 -0.5013 -0.0204 -0.1175
  647TIP3    H123432   4.902   0.354  13.301  0.1373 -2.0256 -0.2540
  647TIP3    H223433   4.990   0.459  13.365 -2.0970 -0.5729  0.5539
  648TIP3   OH223434   2.000   5.221  12.034 -0.8934  0.7114  0.1315
  648TIP3    H123435   2.024   5.165  12.108 -1.2042 -1.0099 -1.0005
  648TIP3    H223436   2.077   5.220  11.977 -1.6260 -0.3526 -0.9010
  649TIP3   OH223437   5.497   0.747  11.553 -0.4021 -0.2280 -0.8819
  649TIP3    H123438   5.540   0.702  11.626 -1.2619 -0.7703 -0.6879
  649TIP3    H223439   5.449   0.678  11.508 -2.9916  0.6902  0.2976
  650TIP3   OH223440   2.554   6.026   0.491 -0.3555  0.2451  0.1473
  650TIP3    H123441   2.509   5.987   0.566 -3.4531  1.4390 -0.9287
  650TIP3    H223442   2.550   5.959   0.423 -2.9794  1.1502 -0.7365
  651TIP3   OH223443   0.501   1.921   4.252 -0.3089 -0.4793 -0.2515
  651TIP3    H123444   0.535   2.005   4.222 -2.1810  0.5017  0.2453
  651TIP3    H223445   0.568   1.889   4.313  0.8665  0.1666 -1.1574
  652TIP3   OH223446   3.279   4.419  16.097  0.3158 -0.0289  0.2316
  652TIP3    H123447   3.214   4.349  16.102 -0.1145  0.4197  1.1445
  652TIP3    H223448   3.355   4.385  16.143  1.1831 -0.9882 -1.7776
  653TIP3   OH223449   5.286   0.077   4.720 -0.5745  0.4366  0.4193
  653TIP3    H123450   5.344   0.011   4.681  0.7466  1.7542  0.0915
  653TIP3    H223451   5.345   0.146   4.750 -1.8168  0.8648  2.0113
  654TIP3   OH223452   1.823   1.493   0.751 -0.5400  0.2768 -0.1688
  654TIP3    H123453   1.908   1.451   0.738  0.5778  2.0466  0.9951
  654TIP3    H223454   1.782   1.492   0.665  0.3999 -1.1211 -0.6325
  655TIP3   OH223455   2.882   0.321  13.514 -0.2647 -0.1892  0.1373
  655TIP3    H123456   2.797   0.316  13.471  0.1533  0.1010 -0.7565
  655TIP3    H223457   2.887   0.410  13.548 -0.1168 -0.0518 -0.2437
  656TIP3   OH223458   0.217   1.865  13.762  0.2640  0.3721 -0.5220
  656TIP3    H123459   0.207   1.960  13.761 -1.3984  0.2339 -1.0228
  656TIP3    H223460   0.229   1.843  13.854 -1.2869  0.9256 -0.1568
  657TIP3   OH223461   4.526   1.118  11.489 -0.4284 -0.2292 -0.3107
  657TIP3    H123462   4.464   1.087  11.422 -0.5643 -1.2349  0.2636
  657TIP3    H223463   4.489   1.088  11.572  0.6000 -0.4626  0.0766
  658TIP3   OH223464   3.334   5.134   5.688 -0.0192 -0.2311 -0.3206
  658TIP3    H123465   3.329   5.184   5.769  1.9964 -1.2489  0.5173
  658TIP3    H223466   3.295   5.049   5.710 -1.1751  0.1042 -1.0040
  659TIP3   OH223467   3.315   2.502   2.624  0.2529 -0.1249 -0.6897
  659TIP3    H123468   3.226   2.488   2.592  0.6333 -0.7172 -1.5099
  659TIP3    H223469   3.307   2.504   2.720 -0.4387 -1.6102 -0.7019
  660TIP3   OH223470   0.399   1.998  15.062 -0.2806 -0.0184  0.1050
  660TIP3    H123471   0.434   2.008  14.973 -2.6735  2.7917 -0.6966
  660TIP3    H223472   0.390   1.903  15.074  3.5930 -0.6803 -1.0841
  661TIP3   OH223473   6.782   4.223   3.254  0.0591  0.9065  0.0447
  661TIP3    H123474   6.733   4.301   3.227 -0.1899  0.8370  0.2957
  661TIP3    H223475   6.720   4.151   3.244  0.6188  0.5693 -1.2471
  662TIP3   OH223476   5.075   3.812  16.929 -0.2614  0.2431 -0.1058
  662TIP3    H123477   5.154   3.770  16.964 -0.0722  0.3287 -0.4206
  662TIP3    H223478   5.003   3.755  16.956 -0.1915  0.6179  0.9353
  663TIP3   OH223479   5.674   6.221  10.405 -0.0468  0.0673  0.1060
  663TIP3    H123480   5.634   6.255  10.485 -1.4928  0.5299 -0.7875
  663TIP3    H223481   5.742   6.285  10.382  2.0222 -1.2134  2.1705
  664TIP3   OH223482   0.257   6.426  16.872  0.1794  0.6230 -0.1166
  664TIP3    H123483   0.332   6.431  16.813  0.5192  0.9965  0.3457
  664TIP3    H223484   0.289   6.380  16.949  0.1447  1.4257  0.3889
  665TIP3   OH223485   6.574   6.549   1.556 -0.0085 -0.1026 -0.0925
  665TIP3    H123486   6.659   6.581   1.588 -0.4113 -2.2048  3.7886
  665TIP3    H223487   6.593   6.460   1.524 -0.4024  0.3183 -1.5330
  666TIP3   OH223488   2.383   0.196   6.253 -0.1919  0.4186  0.1268
  666TIP3    H123489   2.367   0.259   6.324 -0.5080 -0.0173  0.4441
  666TIP3    H223490   2.342   0.115   6.283  1.1816 -0.2728  0.2227
  667TIP3   OH223491   2.749   3.366   0.405 -0.1782  0.4394  0.0268
  667TIP3    H123492   2.720   3.448   0.364 -1.0876  0.3269  0.4198
  667TIP3    H223493   2.784   3.315   0.332  0.0691  1.0369 -0.2807
  668TIP3   OH223494   1.324   3.949  15.206  0.1805  0.1958  0.3675
  668TIP3    H123495   1.231   3.957  15.185  0.7198  1.7426 -1.8944
  668TIP3    H223496   1.341   4.021  15.267  0.6937  3.1659 -2.9502
  669TIP3   OH223497   6.000   1.777   3.039  0.0419  0.1935  1.0174
  669TIP3    H123498   5.965   1.757   3.126 -0.0599  0.9710  1.1583
  669TIP3    H223499   6.063   1.848   3.054  1.6682 -1.1314  0.7748
  670TIP3   OH223500   0.280   3.777  14.563 -0.2959  0.3433  0.6218
  670TIP3    H123501   0.296   3.782  14.469  0.3702 -1.0435  0.6409
  670TIP3    H223502   0.219   3.849  14.580  2.2206  2.8713 -0.2435
  671TIP3   OH223503   0.086   4.367   1.834 -0.3027  0.1698  0.5097
  671TIP3    H123504   0.172   4.341   1.868  0.3315  0.6538 -0.6556
  671TIP3    H223505   0.068   4.451   1.875  1.0362  1.3643 -1.1984
  672TIP3   OH223506   0.872   3.854  11.700  0.4439 -0.2024 -0.2045
  672TIP3    H123507   0.920   3.873  11.619 -0.5796  1.1695 -0.5329
  672TIP3    H223508   0.783   3.886  11.683 -0.0065 -0.6488  1.1733
  673TIP3   OH223509   2.844   4.925  12.073  0.3407 -0.2002  0.0064
  673TIP3    H123510   2.870   4.877  11.994 -2.9270  1.2526 -2.2012
  673TIP3    H223511   2.765   4.881  12.103 -0.1110  1.0058  0.6858
  674TIP3   OH223512   5.544   0.587  13.265  0.0294 -0.7324 -0.1686
  674TIP3    H123513   5.617   0.635  13.304 -0.0993 -1.1107  0.5481
  674TIP3    H223514   5.482   0.656  13.239 -0.5931 -0.5167  1.7276
  675TIP3   OH223515   5.003   5.084  14.823  0.2605  0.2737  0.6034
  675TIP3    H123516   5.092   5.052  14.836  0.2509  0.4681  1.1478
  675TIP3    H223517   4.949   5.034  14.884  0.0119  0.2347  0.3558
  676TIP3   OH223518   4.770   3.229  12.640  0.5747  0.1795  0.5649
  676TIP3    H123519   4.805   3.216  12.552 -1.3082  1.1780 -0.3862
  676TIP3    H223520   4.792   3.320  12.660 -1.9607  1.0859 -0.3712
  677TIP3   OH223521   3.099   0.701  11.732  0.1304  0.0331  0.1770
  677TIP3    H123522   3.193   0.686  11.720  0.0438 -0.1237 -0.3403
  677TIP3    H223523   3.091   0.727  11.823  0.6731 -0.0016  0.2427
  678TIP3   OH223524   4.871   6.032  15.296 -0.0709 -0.2953 -0.1406
  678TIP3    H123525   4.920   5.961  15.253 -1.3789 -1.5723  0.3948
  678TIP3    H223526   4.926   6.056  15.371  0.7772 -0.1432 -0.7857
  679TIP3   OH223527   1.050   4.871  11.879  0.5542  0.3389 -0.0388
  679TIP3    H123528   1.077   4.948  11.829 -0.6594  0.9916  0.2561
  679TIP3    H223529   1.038   4.803  11.812 -0.4361  1.0268 -0.6020
  680TIP3   OH223530   3.651   3.574  12.936  0.2730  0.0098  0.0076
  680TIP3    H123531   3.703   3.499  12.967 -1.2671  0.1247  3.3179
  680TIP3    H223532   3.628   3.552  12.846  2.0243 -2.2464  0.0152
  681TIP3   OH223533   1.265   6.373   4.339  0.1604 -0.1440 -0.0599
  681TIP3    H123534   1.194   6.314   4.367  0.5793 -1.1425 -1.0132
  681TIP3    H223535   1.333   6.314   4.306 -0.4398  0.8907 -3.5036
  682TIP3   OH223536   5.647   0.626   3.035  0.2782 -0.1483 -0.3024
  682TIP3    H123537   5.555   0.630   3.011  0.5927  2.1809 -1.4608
  682TIP3    H223538   5.651   0.671   3.120  0.3924  0.0146 -0.3951
  683TIP3   OH223539   6.362   5.208  12.654  0.1916  0.3508 -0.5257
  683TIP3    H123540   6.417   5.130  12.651  1.3948  1.0448  1.3553
  683TIP3    H223541   6.424   5.281  12.651 -0.8936  1.2580 -2.0244
  684TIP3   OH223542   4.167   2.044  12.176  0.2827 -0.2974  0.2756
  684TIP3    H123543   4.150   1.950  12.171 -1.5385  0.0470 -1.0530
  684TIP3    H223544   4.130   2.071  12.260  2.5766 -1.0151  1.6145
  685TIP3   OH223545   1.628   0.654  15.405 -0.0283  0.2397  0.1200
  685TIP3    H123546   1.689   0.688  15.340 -1.4961 -0.3240 -1.6125
  685TIP3    H223547   1.671   0.576  15.439 -0.3286 -0.9932 -2.1397
  686TIP3   OH223548   5.428   6.245  12.395 -0.7751  0.6540  0.7011
  686TIP3    H123549   5.465   6.264  12.481  1.8455  1.2944 -0.4912
  686TIP3    H223550   5.439   6.151  12.383 -0.7612  0.6341  0.8759
  687TIP3   OH223551   4.789   4.180  15.096 -0.5577 -0.2492 -0.0259
  687TIP3    H123552   4.773   4.096  15.052 -0.9252 -0.7988  1.1140
  687TIP3    H223553   4.750   4.245  15.038 -1.3634 -0.9901 -0.3418
  688TIP3   OH223554   6.086   4.619   0.386  0.6893 -0.4645  0.1781
  688TIP3    H123555   6.178   4.646   0.386  0.5353  0.0801  0.4898
  688TIP3    H223556   6.039   4.691   0.344  0.6234 -1.6131 -1.8319
  689TIP3   OH223557   5.854   3.550   1.726 -0.2932 -0.1839  0.2041
  689TIP3    H123558   5.806   3.477   1.764 -0.6383 -0.5840 -0.9728
  689TIP3    H223559   5.866   3.526   1.634 -1.2347  1.6547 -0.4367
  690TIP3   OH223560   2.142   2.049   0.658  1.0416  0.0974 -0.0097
  690TIP3    H123561   2.065   2.090   0.697  0.1897  0.0915 -1.5976
  690TIP3    H223562   2.189   2.120   0.616  1.5819 -0.0025  0.4103
  691TIP3   OH223563   0.890   5.009   2.592  0.4307 -0.7929  0.4331
  691TIP3    H123564   0.964   4.949   2.586  0.6258 -0.6201  1.0275
  691TIP3    H223565   0.855   5.014   2.503  0.7487 -1.3588  0.2762
  692TIP3   OH223566   2.029   4.115   5.056 -0.3309  0.1064  0.0514
  692TIP3    H123567   2.112   4.071   5.041 -0.5452 -0.3174  0.1167
  692TIP3    H223568   1.967   4.046   5.079 -0.9135  0.2975 -0.8651
  693TIP3   OH223569   6.534   4.094   1.409 -0.3424  0.2350 -0.3458
  693TIP3    H123570   6.563   4.120   1.321 -1.1883  1.3835 -0.3005
  693TIP3    H223571   6.612   4.055   1.448  0.0901 -0.1652 -1.5515
  694TIP3   OH223572   5.555   6.772  12.514 -0.3302 -1.0242 -0.2228
  694TIP3    H123573   5.615   6.781  12.440 -1.0128 -0.9189 -0.7672
  694TIP3    H223574   5.497   6.700  12.490 -1.3641 -0.1651 -0.3582
  695TIP3   OH223575   5.392   4.447   5.242 -0.7328  0.1640 -0.3806
  695TIP3    H123576   5.357   4.514   5.184 -1.7536  0.2945  0.3616
  695TIP3    H223577   5.388   4.366   5.190 -1.0798  0.3820 -0.6956
  696TIP3   OH223578   3.247   4.116   4.447  0.2684  0.4949 -0.0785
  696TIP3    H123579   3.178   4.160   4.398 -0.0973 -1.0121 -0.9629
  696TIP3    H223580   3.326   4.130   4.395 -0.0856 -0.9485 -1.0327
  697TIP3   OH223581   5.113   1.035   1.499  0.2488 -0.2056 -0.0826
  697TIP3    H123582   5.087   0.944   1.508  1.3517 -0.5083  0.2225
  697TIP3    H223583   5.206   1.031   1.474  0.4578  0.8385  0.4807
  698TIP3   OH223584   6.117   4.207  16.285 -0.5752 -0.1274  0.3671
  698TIP3    H123585   6.173   4.220  16.208  0.2353 -1.3611  0.7242
  698TIP3    H223586   6.097   4.114  16.285 -1.2242 -0.0018  1.2246
  699TIP3   OH223587   5.789   0.368   5.154 -0.3223 -0.1329  0.3528
  699TIP3    H123588   5.792   0.287   5.103  0.9875  0.9317 -1.3972
  699TIP3    H223589   5.731   0.426   5.104 -0.3186  0.4055  0.9552
  700TIP3   OH223590   1.655   3.078  11.667  0.1951 -0.3354  0.3664
  700TIP3    H123591   1.744   3.044  11.657  0.8006  1.0043  1.0085
  700TIP3    H223592   1.621   3.084  11.577  1.4536  0.9357 -0.0511
  701TIP3   OH223593   0.792   5.100  13.531 -0.2546 -0.3233 -0.4854
  701TIP3    H123594   0.754   5.126  13.615  1.3531 -0.5132  0.3476
  701TIP3    H223595   0.860   5.036  13.554  0.7516  0.1999 -1.8452
  702TIP3   OH223596   2.084   6.520   4.315 -0.0009  0.2337 -0.0977
  702TIP3    H123597   2.037   6.526   4.398 -1.2439  0.6780 -0.7943
  702TIP3    H223598   2.049   6.441   4.274 -0.5525  0.8483 -0.8467
  703TIP3   OH223599   3.505   2.252   1.026  0.1129 -0.5135  0.1357
  703TIP3    H123600   3.414   2.229   1.007 -0.3200  1.4772 -0.4178
  703TIP3    H223601   3.499   2.332   1.079  1.5455  0.2989 -0.8718
  704TIP3   OH223602   3.194   4.437   2.805  0.3771 -0.0113 -0.2281
  704TIP3    H123603   3.220   4.506   2.866 -0.9191  0.8446 -0.5938
  704TIP3    H223604   3.230   4.464   2.721  0.4359 -0.1315 -0.2417
  705TIP3   OH223605   2.845   0.415  11.426  0.4831 -0.3024 -0.8441
  705TIP3    H123606   2.917   0.353  11.416  0.3231 -0.5785 -0.3491
  705TIP3    H223607   2.864   0.462  11.507 -1.1064 -2.1052  0.7054
  706TIP3   OH223608   0.932   1.367   3.203 -0.3410  0.1128  0.9097
  706TIP3    H123609   0.938   1.287   3.256  0.2834 -1.9234 -2.0013
  706TIP3    H223610   1.015   1.412   3.218 -0.1333 -0.4808  1.5865
  707TIP3   OH223611   2.631   0.009   2.071 -0.0849 -0.3815 -0.1180
  707TIP3    H123612   2.672  -0.040   2.000  0.1527 -0.6852  0.2211
  707TIP3    H223613   2.578  -0.056   2.117 -3.2039  0.5279 -2.1667
  708TIP3   OH223614   2.603   0.286  16.392  0.2610 -0.1434 -0.4174
  708TIP3    H123615   2.618   0.379  16.404  1.2251 -0.3441  0.0932
  708TIP3    H223616   2.516   0.280  16.352 -1.1063  0.8093  2.2184
  709TIP3   OH223617   1.022   3.190  13.521 -0.0673  0.5670 -0.0583
  709TIP3    H123618   1.086   3.120  13.508  0.2313  0.6242  1.0258
  709TIP3    H223619   1.013   3.230  13.434 -0.8928 -1.3263 -0.9060
  710TIP3   OH223620   2.479   6.225  15.345 -0.6274  0.3451 -0.5804
  710TIP3    H123621   2.395   6.215  15.390 -0.1132 -0.2952  0.2696
  710TIP3    H223622   2.544   6.216  15.415  0.2881 -2.4218 -1.6592
  711TIP3   OH223623   2.159   3.138  11.558  0.3213 -0.6893  0.7671
  711TIP3    H123624   2.196   3.194  11.490 -1.2776 -0.7374 -0.1891
  711TIP3    H223625   2.211   3.057  11.554 -0.2950 -1.0420 -1.0360
  712TIP3   OH223626   5.095   0.352   3.954 -0.0374  0.5131 -0.0290
  712TIP3    H123627   5.018   0.366   4.008 -0.3776 -1.4472  0.0622
  712TIP3    H223628   5.164   0.329   4.017  0.5924  2.0208 -0.1288
  713TIP3   OH223629   5.787   3.189  16.899 -0.0203 -1.1567  0.7174
  713TIP3    H123630   5.787   3.127  16.972 -0.2174 -0.3890  1.3906
  713TIP3    H223631   5.818   3.139  16.824  2.4017 -1.4202  1.7981
  714TIP3   OH223632   0.261   1.174  15.180 -0.7245  0.0604 -0.5185
  714TIP3    H123633   0.297   1.255  15.144 -0.5132  0.3491  0.3237
  714TIP3    H223634   0.194   1.148  15.117 -0.1449  0.3741 -1.2841
  715TIP3   OH223635   5.460   0.413  14.461 -0.2889  0.8070  0.8368
  715TIP3    H123636   5.418   0.464  14.391  1.4679 -0.4925 -1.3186
  715TIP3    H223637   5.551   0.443  14.460  0.0945 -0.2905  1.5382
  716TIP3   OH223638   3.136   4.304  15.724 -0.0689  0.0205 -0.2774
  716TIP3    H123639   3.065   4.312  15.788  1.4402 -0.3555  1.5289
  716TIP3    H223640   3.116   4.370  15.658  0.1250  3.0206  2.4199
  717TIP3   OH223641   5.736   1.038   3.601  0.4200  0.6191  0.0327
  717TIP3    H123642   5.758   0.948   3.626  0.1795  0.6762  0.4670
  717TIP3    H223643   5.647   1.032   3.566  2.1110 -0.2219 -5.0040
  718TIP3   OH223644   3.266   0.739  16.384 -0.3482 -0.0155  0.7316
  718TIP3    H123645   3.277   0.663  16.326  0.1376  0.2350  0.4824
  718TIP3    H223646   3.331   0.802  16.352 -1.3631  0.8667  0.3522
  719TIP3   OH223647   3.690   6.332  11.077  0.8719 -0.6750 -0.1958
  719TIP3    H123648   3.708   6.277  11.000  2.2654 -1.9867  1.0041
  719TIP3    H223649   3.713   6.421  11.049 -0.4238 -0.8065 -1.8479
  720TIP3   OH223650   4.910   0.267  10.838 -0.7975 -0.2671 -0.4049
  720TIP3    H123651   4.969   0.314  10.778 -1.2723 -0.2054 -0.8272
  720TIP3    H223652   4.853   0.335  10.874 -2.2847 -0.6565 -1.9365
  721TIP3   OH223653   5.033   3.994   3.459 -0.3708  0.0870  0.5945
  721TIP3    H123654   4.947   3.971   3.423 -0.1084 -1.5715  0.9412
  721TIP3    H223655   5.020   3.992   3.554  0.1260 -0.5082  0.6532
  722TIP3   OH223656   5.697   0.045  15.101  0.0354  0.6448 -0.3249
  722TIP3    H123657   5.733  -0.023  15.157 -0.8893 -0.4691 -1.0111
  722TIP3    H223658   5.694   0.005  15.014  0.3321  1.9005 -0.9319
  723TIP3   OH223659   3.991   4.855  12.086 -0.1247  0.0172 -0.0537
  723TIP3    H123660   3.935   4.797  12.035  0.6742 -1.3159  0.5440
  723TIP3    H223661   3.933   4.926  12.115 -1.0782 -0.4030 -0.9124
  724TIP3   OH223662   3.628   3.504  10.925  0.0493  0.4574  0.0007
  724TIP3    H123663   3.552   3.561  10.931 -1.8249 -2.0280  2.3472
  724TIP3    H223664   3.672   3.514  11.010  0.8967 -0.0412 -0.3682
  725TIP3   OH223665   5.629   6.041  11.285 -0.5551  0.5193 -0.0045
  725TIP3    H123666   5.677   6.017  11.365  1.1819  0.0191 -1.1197
  725TIP3    H223667   5.617   6.135  11.292 -1.0836  0.3853  1.1742
  726TIP3   OH223668   1.291   1.899   3.038 -0.0645  0.3823 -0.5662
  726TIP3    H123669   1.249   1.850   2.967 -0.8744 -0.1349  0.2492
  726TIP3    H223670   1.264   1.853   3.118  0.1710  1.4294  0.1361
  727TIP3   OH223671   1.819   3.058  15.509  0.1019  0.0155 -0.4530
  727TIP3    H123672   1.831   2.990  15.442  0.9808  1.1304 -1.4776
  727TIP3    H223673   1.883   3.125  15.487  0.1286  0.6128  1.2999
  728TIP3   OH223674   4.647   4.756  12.761  0.2089  0.0758  0.4424
  728TIP3    H123675   4.601   4.830  12.799  2.9750  1.1473  2.0251
  728TIP3    H223676   4.712   4.732  12.827  2.0921 -1.1006 -1.7111
  729TIP3   OH223677   6.053   2.660   1.472  0.4716 -0.0986 -0.1815
  729TIP3    H123678   6.048   2.750   1.506  0.2455 -0.3492  0.4571
  729TIP3    H223679   6.115   2.616   1.531 -0.0106 -0.5672 -0.0268
  730TIP3   OH223680   0.795   0.063   3.828 -0.0193 -0.0003 -0.1513
  730TIP3    H123681   0.727  -0.005   3.833  2.1152 -2.2793 -0.4252
  730TIP3    H223682   0.847   0.039   3.752  1.7866  0.9824  0.7247
  731TIP3   OH223683   2.320   6.783   6.837  0.1627  0.6086 -0.0302
  731TIP3    H123684   2.396   6.811   6.786 -0.3524  1.5346 -0.3019
  731TIP3    H223685   2.333   6.689   6.849 -0.8011 -0.1193 -3.7121
  732TIP3   OH223686   1.334   0.660   1.076 -0.7777  0.1334 -0.0365
  732TIP3    H123687   1.390   0.686   1.003 -2.0188  0.7633 -0.8066
  732TIP3    H223688   1.352   0.567   1.089  0.5509  0.3544 -0.1316
  733TIP3   OH223689   4.650   1.215   5.748  0.3227 -0.2109  0.5605
  733TIP3    H123690   4.596   1.169   5.684  0.1643  0.0875  0.4751
  733TIP3    H223691   4.724   1.157   5.763  0.2368 -0.3947  0.2930
  734TIP3   OH223692   6.144   5.625   5.717 -0.0124 -0.8140 -0.4448
  734TIP3    H123693   6.233   5.636   5.684  1.1494 -0.5584  2.4701
  734TIP3    H223694   6.152   5.558   5.785 -1.0914  1.9728  2.7468
  735TIP3   OH223695   3.767   5.771  15.031 -0.7728 -0.6142  0.3238
  735TIP3    H123696   3.762   5.781  14.936  0.8070 -0.4206  0.2409
  735TIP3    H223697   3.688   5.815  15.063  0.0831  1.9661 -0.7634
  736TIP3   OH223698   0.821   4.761   3.778  0.1755 -0.6157 -0.9212
  736TIP3    H123699   0.910   4.775   3.811  0.3224  1.1377 -1.9253
  736TIP3    H223700   0.771   4.734   3.855  1.7416 -2.6081 -0.5211
  737TIP3   OH223701   5.452   1.041   0.201 -0.6622 -0.1905  0.7223
  737TIP3    H123702   5.508   0.964   0.191 -0.4916 -0.0508  0.5989
  737TIP3    H223703   5.483   1.083   0.281  0.3601  0.6729 -0.1101
  738TIP3   OH223704   5.262   1.297  14.489 -0.0190  0.3344 -0.0799
  738TIP3    H123705   5.346   1.269  14.524 -0.6242  1.5684  2.5564
  738TIP3    H223706   5.201   1.227  14.514 -0.1224  0.2983 -0.4198
  739TIP3   OH223707   0.036   2.392   3.104 -0.2593  0.1036  0.1930
  739TIP3    H123708   0.127   2.419   3.117 -0.6849  0.7722  1.9957
  739TIP3    H223709   0.041   2.328   3.033  1.5911  0.2402  0.1347
  740TIP3   OH223710   3.651   6.820  12.049  0.2142  0.1437 -0.1202
  740TIP3    H123711   3.738   6.816  12.009 -0.3188 -1.2495 -1.2597
  740TIP3    H223712   3.624   6.728  12.056 -0.8265  0.5083  1.0092
  741TIP3   OH223713   0.542   5.639   3.491  0.3803 -0.4059  0.2114
  741TIP3    H123714   0.552   5.632   3.586  0.0470 -1.9357  0.1506
  741TIP3    H223715   0.616   5.591   3.455  0.2617 -0.2087 -0.3061
  742TIP3   OH223716   3.349   3.932   2.143 -0.4891 -0.0045  0.3735
  742TIP3    H123717   3.362   4.026   2.134  0.0621  0.0124  1.2913
  742TIP3    H223718   3.262   3.923   2.181 -0.9702  0.0798 -0.6597
  743TIP3   OH223719   0.864   4.741  14.074 -0.2292 -0.4189 -0.1539
  743TIP3    H123720   0.958   4.736  14.057  0.2096  2.2923  0.9238
  743TIP3    H223721   0.854   4.706  14.162 -0.4272 -1.5961 -0.6191
  744TIP3   OH223722   2.768   2.340   5.687 -0.1167  0.0826 -0.0331
  744TIP3    H123723   2.756   2.254   5.726  0.3396 -1.3624 -2.7728
  744TIP3    H223724   2.856   2.336   5.648 -0.3937  1.5057 -0.8827
  745TIP3   OH223725   2.745   5.457   5.556  0.2660 -0.2809  0.1922
  745TIP3    H123726   2.751   5.509   5.636  0.3653  0.4569 -0.2849
  745TIP3    H223727   2.695   5.379   5.581  0.5576 -0.2043  1.0385
  746TIP3   OH223728   3.101   0.444  12.120 -0.0950  0.9751 -0.2071
  746TIP3    H123729   3.141   0.374  12.069  0.0951  0.2334  0.9247
  746TIP3    H223730   3.099   0.411  12.210 -1.8923  1.5896  0.0228
  747TIP3   OH223731   3.219   2.500  16.544  0.0904 -0.3101  0.3664
  747TIP3    H123732   3.223   2.529  16.453  0.8552 -1.2568  0.0860
  747TIP3    H223733   3.125   2.490  16.561 -0.1300  0.9966  0.0654
  748TIP3   OH223734   1.161   1.511   1.348 -0.4181  0.3498 -0.6933
  748TIP3    H123735   1.212   1.591   1.357 -1.2045  0.8639 -0.7194
  748TIP3    H223736   1.210   1.446   1.398 -0.3268  1.1036  0.2336
  749TIP3   OH223737   2.076   2.951  11.328  0.1596  0.2590  0.1098
  749TIP3    H123738   2.008   2.883  11.320 -1.5126  2.0105 -1.8171
  749TIP3    H223739   2.154   2.903  11.356 -1.9944 -1.7425  3.3132
  750TIP3   OH223740   3.634   3.510  17.171 -0.6186  1.0475  0.2338
  750TIP3    H123741   3.578   3.511  17.248 -1.7123  0.8235 -0.5409
  750TIP3    H223742   3.603   3.584  17.118 -1.1897  0.0469 -0.8826
  751TIP3   OH223743   1.600   0.575  10.895  0.1435 -0.0700  0.3261
  751TIP3    H123744   1.686   0.608  10.869  0.6725 -1.1429  0.6403
  751TIP3    H223745   1.548   0.574  10.815  0.6668 -0.1191 -0.0132
  752TIP3   OH223746   2.322   0.750   4.220  0.3884 -0.1584  0.0449
  752TIP3    H123747   2.371   0.669   4.238 -1.1719 -1.5106 -1.4680
  752TIP3    H223748   2.328   0.760   4.125 -0.6867  0.6703  0.0513
  753TIP3   OH223749   4.792   1.225   0.034  0.3386 -0.6447 -0.0374
  753TIP3    H123750   4.876   1.269   0.048  1.2371 -2.1403 -0.5240
  753TIP3    H223751   4.727   1.294   0.047  1.6474  0.6407 -0.0074
  754TIP3   OH223752   1.995   5.384  10.823 -0.8043  0.4020  0.1977
  754TIP3    H123753   2.014   5.429  10.741  2.5280  1.5967  1.4751
  754TIP3    H223754   1.972   5.295  10.796  0.2543  0.7235 -2.0352
  755TIP3   OH223755   5.831   2.077   0.345 -0.2363 -0.4877  0.3007
  755TIP3    H123756   5.796   2.127   0.271  0.3733 -2.7130 -1.5938
  755TIP3    H223757   5.757   2.026   0.376  0.0162 -1.1640 -0.1956
  756TIP3   OH223758   6.475   6.674  16.298  0.0923 -0.1726  0.8705
  756TIP3    H123759   6.482   6.708  16.387  0.5739 -2.6268  1.8706
  756TIP3    H223760   6.416   6.598  16.306  0.1220 -0.4286 -0.9066
  757TIP3   OH223761   4.475   2.431   2.198  0.5772  0.3561 -0.0562
  757TIP3    H123762   4.443   2.364   2.258  1.5222  1.2397  1.4864
  757TIP3    H223763   4.397   2.480   2.172  0.1685  0.0252  0.5375
  758TIP3   OH223764   3.669   0.092  14.028  0.2354 -0.0032 -0.5657
  758TIP3    H123765   3.609   0.157  14.064 -1.5638 -1.2135 -1.2339
  758TIP3    H223766   3.613   0.032  13.979  2.0812 -0.8714 -1.7318
  759TIP3   OH223767   5.298   4.002  13.977 -0.1662  0.0908  0.4691
  759TIP3    H123768   5.258   4.060  13.913  0.9503 -0.2035 -0.5185
  759TIP3    H223769   5.228   3.984  14.040 -1.2050  0.5906 -0.5137
  760TIP3   OH223770   0.106   4.581  12.179 -0.3524 -0.3696  0.1507
  760TIP3    H123771   0.121   4.662  12.228  0.4441 -0.5626  0.2354
  760TIP3    H223772   0.013   4.584  12.157 -1.0042 -0.7627  2.5721
  761TIP3   OH223773   0.012   6.761  14.075 -0.0424 -0.2838  0.2320
  761TIP3    H123774  -0.063   6.737  14.021  1.1385  0.3037 -1.7474
  761TIP3    H223775  -0.022   6.827  14.136 -1.2261 -0.3946 -0.2848
  762TIP3   OH223776   0.717   0.355   1.597 -0.3579  0.1548  0.0960
  762TIP3    H123777   0.773   0.433   1.593 -2.7039  2.0776  1.8240
  762TIP3    H223778   0.698   0.335   1.506  1.6104  0.5448 -0.4567
  763TIP3   OH223779   3.623   5.584   5.285 -0.1932 -0.5576  0.1122
  763TIP3    H123780   3.713   5.607   5.263 -0.9387  1.5797 -0.9739
  763TIP3    H223781   3.586   5.665   5.321 -2.4556 -0.5065 -2.0648
  764TIP3   OH223782   3.632   5.460   4.325  0.7477  0.9080 -0.5661
  764TIP3    H123783   3.587   5.415   4.397 -1.4570  3.5775 -0.0912
  764TIP3    H223784   3.704   5.402   4.302  0.6201 -0.8192  2.7437
  765TIP3   OH223785   6.116   3.660   2.457 -0.0261 -0.9716 -0.5855
  765TIP3    H123786   6.029   3.679   2.423  0.0807  0.0406 -0.3412
  765TIP3    H223787   6.174   3.721   2.410  0.3199 -0.5501  0.3565
  766TIP3   OH223788   4.271   3.818   3.816 -0.1136 -0.4337  0.6240
  766TIP3    H123789   4.251   3.753   3.749  0.1477  0.3683 -0.2544
  766TIP3    H223790   4.205   3.887   3.803  2.2570  1.6495 -1.5022
  767TIP3   OH223791   0.267   5.326   0.317  0.5109 -0.1048  0.1859
  767TIP3    H123792   0.188   5.341   0.264 -0.4315 -1.1391  1.2417
  767TIP3    H223793   0.295   5.414   0.343 -0.0208  0.3043 -0.5811
  768TIP3   OH223794   2.646   1.979   0.663 -0.8128 -0.4229  0.2451
  768TIP3    H123795   2.638   2.038   0.588 -0.3667 -0.0920  0.4506
  768TIP3    H223796   2.556   1.967   0.694 -0.9091  0.1843  0.2199
  769TIP3   OH223797   0.870   4.892  11.348 -0.0368  0.5517 -0.2851
  769TIP3    H123798   0.918   4.855  11.275 -0.0245  0.4468 -0.2235
  769TIP3    H223799   0.780   4.898  11.318 -0.9174 -3.3085  1.0589
  770TIP3   OH223800   0.339   2.098  13.628  0.2134 -0.0030  0.2349
  770TIP3    H123801   0.355   2.111  13.721 -1.0854  0.1165  0.4644
  770TIP3    H223802   0.403   2.153  13.583 -0.2477  1.2458  1.0812
  771TIP3   OH223803   0.182   4.748  11.851  0.3251  0.7123 -0.7302
  771TIP3    H123804   0.258   4.806  11.851  0.4016  0.6266  0.1969
  771TIP3    H223805   0.196   4.690  11.926  0.5067 -0.8483 -1.9047
  772TIP3   OH223806   2.303   5.459   2.025 -0.4175  0.4847  0.0610
  772TIP3    H123807   2.386   5.458   1.977 -0.5067 -2.4425 -0.2222
  772TIP3    H223808   2.329   5.448   2.117 -0.4222 -2.5262 -0.1937
  773TIP3   OH223809   2.312   4.804  12.319  0.2997  0.1611 -0.3435
  773TIP3    H123810   2.225   4.817  12.356  0.5699 -2.8326  1.6532
  773TIP3    H223811   2.316   4.711  12.297  2.7060  0.3881 -1.2403
  774TIP3   OH223812   0.800   6.108   0.119  0.3286  0.0368 -0.4298
  774TIP3    H123813   0.822   6.065   0.201  1.6765 -0.8834 -1.2409
  774TIP3    H223814   0.705   6.121   0.124  0.5702  1.6393  2.0054
  775TIP3   OH223815   4.213   5.432   0.289  0.2994 -0.3064  0.3738
  775TIP3    H123816   4.303   5.409   0.269  0.4142 -0.4275  1.0240
  775TIP3    H223817   4.185   5.487   0.215  1.2417  0.6206  0.6828
  776TIP3   OH223818   6.242   4.744  15.282  0.1414 -0.2900  0.2479
  776TIP3    H123819   6.179   4.811  15.306  0.7264  0.1302  0.6480
  776TIP3    H223820   6.283   4.719  15.366  2.0951  1.0595 -0.2448
  777TIP3   OH223821   4.205   3.445  12.356  1.1675 -0.0832  0.0252
  777TIP3    H123822   4.189   3.390  12.433 -2.1964  2.5513  1.4461
  777TIP3    H223823   4.293   3.480  12.369  1.8069 -1.9417  1.0858
  778TIP3   OH223824   5.875   3.480   1.463 -0.4552 -0.7745 -0.5232
  778TIP3    H123825   5.960   3.453   1.426 -0.5044 -0.7312 -0.6687
  778TIP3    H223826   5.816   3.409   1.440 -0.3804 -0.9726 -0.1168
  779TIP3   OH223827   2.444   5.910   3.675  0.2885 -0.4330 -0.2526
  779TIP3    H123828   2.528   5.867   3.691  0.7861  1.2352  2.0126
  779TIP3    H223829   2.465   6.003   3.667 -1.0795 -0.2415 -2.3917
  780TIP3   OH223830   3.505   0.135   4.792 -0.5761 -0.6159 -0.3117
  780TIP3    H123831   3.586   0.095   4.762  0.0049  0.2169  0.1142
  780TIP3    H223832   3.462   0.066   4.844  0.3491 -0.7293  0.3229
  781TIP3   OH223833   2.404   2.670  11.965 -0.4825  0.4046 -0.8556
  781TIP3    H123834   2.472   2.609  11.995 -1.9935 -0.7157  0.4424
  781TIP3    H223835   2.375   2.634  11.881 -0.0323  0.4314 -1.0232
  782TIP3   OH223836   2.369   6.157  13.696  0.5029  0.0036  0.1774
  782TIP3    H123837   2.333   6.075  13.730  1.2575  0.8138  3.3114
  782TIP3    H223838   2.460   6.135  13.674  0.1728 -0.4107 -0.7940
  783TIP3   OH223839   1.513   6.155   4.364  0.1426  0.8356  0.2296
  783TIP3    H123840   1.489   6.104   4.442 -0.5055  1.1852  0.2673
  783TIP3    H223841   1.568   6.226   4.397 -1.4004  1.8973  0.6068
  784TIP3   OH223842   4.013   6.488  13.145  0.9182 -0.2870  0.1152
  784TIP3    H123843   4.038   6.486  13.237 -1.4231 -2.3352  0.8012
  784TIP3    H223844   4.096   6.495  13.098  2.1078  2.5355  2.3159
  785TIP3   OH223845   2.163   0.466   5.886 -0.8079 -0.0354  0.4693
  785TIP3    H123846   2.104   0.398   5.854  0.2362 -0.8461  0.2151
  785TIP3    H223847   2.249   0.424   5.889 -0.2154  1.1490  0.7284
  786TIP3   OH223848   6.806   5.150   3.945  0.0708 -0.5288  0.5908
  786TIP3    H123849   6.761   5.112   4.021 -1.4810 -0.0154 -0.0357
  786TIP3    H223850   6.777   5.241   3.944  3.1459  0.6116  1.6460
  787TIP3   OH223851   3.716   5.645  11.832 -0.2057  0.8427  0.0486
  787TIP3    H123852   3.697   5.665  11.741  0.0501  0.6231 -0.0529
  787TIP3    H223853   3.643   5.591  11.861  0.6171 -0.6539 -0.5620
  788TIP3   OH223854   6.148   4.576  14.578  0.1428 -0.0498  0.0737
  788TIP3    H123855   6.164   4.630  14.656  3.2204 -0.0270 -0.4673
  788TIP3    H223856   6.153   4.486  14.609  1.8770 -0.0479 -0.1318
  789TIP3   OH223857   0.957   1.934  11.848  0.6390 -0.0992 -0.0903
  789TIP3    H123858   0.931   1.929  11.756 -0.8497  1.4437  0.1936
  789TIP3    H223859   1.020   1.863  11.859 -2.5002 -3.3859 -1.2180
  790TIP3   OH223860   3.493   1.890  15.046  0.3377  0.2194  0.2759
  790TIP3    H123861   3.495   1.799  15.075 -3.4588 -0.7427 -1.8955
  790TIP3    H223862   3.556   1.894  14.974 -1.0283 -1.3866 -1.0907
  791TIP3   OH223863   5.088   6.138  16.486 -0.3044 -0.3092  0.1406
  791TIP3    H123864   5.063   6.126  16.578  1.0099 -2.2508  0.2994
  791TIP3    H223865   5.086   6.233  16.473 -1.2815 -0.0344  1.9327
  792TIP3   OH223866   2.216   0.336   1.617  0.1998  0.3628  0.4341
  792TIP3    H123867   2.158   0.280   1.669  0.1528  2.1409  2.4107
  792TIP3    H223868   2.282   0.366   1.679  0.4881  2.1347 -0.6629
  793TIP3   OH223869   0.055   4.825  15.111 -0.4247 -0.2545  0.3755
  793TIP3    H123870   0.069   4.782  15.195  0.3849 -0.8784 -0.0663
  793TIP3    H223871   0.126   4.794  15.056 -1.3018 -0.3627 -0.7400
  794TIP3   OH223872   1.254   0.144  14.349  0.0624  0.1620  0.3048
  794TIP3    H123873   1.190   0.116  14.284  1.1893  0.0210 -0.7975
  794TIP3    H223874   1.314   0.201  14.300  0.9077  0.0986  1.2337
  795TIP3   OH223875   5.806   2.774   5.561 -0.3255  0.2040  0.1678
  795TIP3    H123876   5.723   2.809   5.528 -0.0974 -1.2028 -2.1072
  795TIP3    H223877   5.783   2.687   5.595 -0.3714  1.2321  3.0608
  796TIP3   OH223878   3.362   5.167  16.657 -0.0683 -0.4582 -0.0320
  796TIP3    H123879   3.324   5.223  16.589  1.2719  1.9954  1.1119
  796TIP3    H223880   3.294   5.103  16.676 -1.5370  0.5064 -1.7307
  797TIP3   OH223881   3.924   0.532  14.641  0.6707 -0.1381 -0.0830
  797TIP3    H123882   3.884   0.593  14.579 -2.4724 -0.4901  1.3893
  797TIP3    H223883   3.931   0.450  14.594  0.9363  0.2773 -0.7840
  798TIP3   OH223884   4.290   4.749  14.580  0.0041 -0.8870 -0.3838
  798TIP3    H123885   4.244   4.725  14.660  1.1430  0.9713  0.8910
  798TIP3    H223886   4.260   4.838  14.560  0.7138 -0.8302 -1.2834
  799TIP3   OH223887   2.522   5.142  13.010 -0.3294 -0.2290  0.0824
  799TIP3    H123888   2.472   5.072  12.967  0.5577 -0.4377 -0.6506
  799TIP3    H223889   2.592   5.096  13.056  1.9605  0.2107 -2.6340
  800TIP3   OH223890   1.449   2.880   3.663 -0.3722  1.0297 -0.4928
  800TIP3    H123891   1.415   2.969   3.654  2.2928  2.1065 -0.9161
  800TIP3    H223892   1.483   2.876   3.752 -0.2803  0.5072 -0.5456
  801TIP3   OH223893   1.428   5.384  11.462 -0.6984 -0.3803 -0.5832
  801TIP3    H123894   1.499   5.448  11.453 -1.1816  0.1095 -0.9061
  801TIP3    H223895   1.368   5.423  11.525 -1.3898 -0.1611 -1.3738
  802TIP3   OH223896   2.152   3.338   5.624 -0.6142 -0.4627 -0.0288
  802TIP3    H123897   2.183   3.412   5.677 -2.7966  0.9673 -0.6192
  802TIP3    H223898   2.210   3.338   5.547 -0.5137  0.5610  0.0353
  803TIP3   OH223899   1.712   2.437   2.305 -0.8696 -0.0325  0.0049
  803TIP3    H123900   1.623   2.450   2.337 -0.5976  1.2643  0.2644
  803TIP3    H223901   1.735   2.520   2.262  0.2359 -0.3275 -0.0092
  804TIP3   OH223902   1.302   3.037  12.420  1.0280  0.1978 -1.3311
  804TIP3    H123903   1.221   3.013  12.465  0.9628  0.2287 -1.4320
  804TIP3    H223904   1.298   2.992  12.336  1.6347 -0.7063 -0.8986
  805TIP3   OH223905   0.540   3.643  11.645 -0.5456  0.6578  0.5290
  805TIP3    H123906   0.580   3.707  11.705  0.8369  0.2741  0.0660
  805TIP3    H223907   0.485   3.589  11.700  1.5126 -0.3622  1.7040
  806TIP3   OH223908   4.310   5.810   2.749 -0.2604 -0.4310 -0.3684
  806TIP3    H123909   4.402   5.788   2.737 -0.0286 -0.7727  1.6984
  806TIP3    H223910   4.309   5.905   2.760 -0.2995 -0.2975 -1.4686
  807TIP3   OH223911   6.618   6.314  16.390 -0.0218 -0.1771  0.3260
  807TIP3    H123912   6.647   6.316  16.481 -0.1771 -2.3073  0.4701
  807TIP3    H223913   6.523   6.299  16.395 -0.1160  0.1926 -0.2017
  808TIP3   OH223914   3.612   2.506   2.332  0.5328  0.0216  0.4091
  808TIP3    H123915   3.643   2.416   2.321 -0.7618 -0.5115  0.8599
  808TIP3    H223916   3.642   2.531   2.420  1.1632  0.1489  0.1599
  809TIP3   OH223917   5.087   3.955   5.791  0.3173  0.0648 -0.1804
  809TIP3    H123918   5.040   4.026   5.834 -1.3159 -0.2148 -1.4365
  809TIP3    H223919   5.028   3.880   5.794  0.1882 -0.0298 -2.6758
  810TIP3   OH223920   0.743   1.891  13.688 -0.0000  0.6531 -0.0416
  810TIP3    H123921   0.815   1.870  13.748 -0.1208 -0.7895 -0.3772
  810TIP3    H223922   0.680   1.820  13.700 -1.3526  1.8511  0.1865
  811TIP3   OH223923   1.909   6.065  12.549 -0.2516 -0.4038 -0.0403
  811TIP3    H123924   1.987   6.013  12.529 -0.2781 -0.3780 -0.2145
  811TIP3    H223925   1.866   6.076  12.464  0.1255  0.5006 -0.1176
  812TIP3   OH223926   1.121   1.876  12.739 -0.0710 -0.7337  0.0736
  812TIP3    H123927   1.134   1.792  12.695  1.7321 -0.2765 -0.3465
  812TIP3    H223928   1.087   1.854  12.825 -0.8551 -1.8131 -0.4978
  813TIP3   OH223929   4.691   0.346   5.319 -0.2852 -0.2802 -0.2580
  813TIP3    H123930   4.635   0.402   5.265 -0.3588  0.1096  0.2191
  813TIP3    H223931   4.726   0.281   5.258 -2.0026 -1.1247 -0.4018
  814TIP3   OH223932   3.785   4.221   0.907 -0.1054  0.0470  0.3750
  814TIP3    H123933   3.758   4.218   0.815 -0.0317 -0.6292  0.3683
  814TIP3    H223934   3.713   4.179   0.954 -0.2386  0.5820  0.6520
  815TIP3   OH223935   5.742   4.529   4.790  0.4435 -0.2516 -0.0035
  815TIP3    H123936   5.720   4.469   4.719 -0.2936 -0.5667  0.4763
  815TIP3    H223937   5.735   4.616   4.752 -1.7947 -0.3211  0.1435
  816TIP3   OH223938   5.041   4.865  17.066 -0.1074  0.3150  0.5098
  816TIP3    H123939   5.068   4.773  17.056 -1.0407  0.1416 -0.6129
  816TIP3    H223940   5.103   4.901  17.129  2.1607 -0.3057 -1.2079
  817TIP3   OH223941   4.927   2.047  11.522  0.2587  0.5629  0.0202
  817TIP3    H123942   4.910   2.075  11.432  0.1821  0.0226 -0.1413
  817TIP3    H223943   4.996   1.981  11.514  0.3017  0.5620  0.3644
  818TIP3   OH223944   0.017   4.304  13.113  0.0057  0.0855  0.3788
  818TIP3    H123945  -0.052   4.354  13.157  1.6194 -0.7043  4.1104
  818TIP3    H223946  -0.031   4.242  13.057 -2.1371  1.7759  0.1774
  819TIP3   OH223947   2.225   3.083  17.004  0.4286 -0.0845 -0.1474
  819TIP3    H123948   2.308   3.088  16.956  2.3147  1.8410  2.9492
  819TIP3    H223949   2.246   3.030  17.081 -0.2494  2.7817  2.1845
  820TIP3   OH223950   6.789   3.675  17.126 -0.0039  0.0902  0.3242
  820TIP3    H123951   6.818   3.620  17.053  0.5790 -0.5437  1.0285
  820TIP3    H223952   6.695   3.686  17.112  0.2892  1.0524 -1.2415
  821TIP3   OH223953   0.512   0.004   1.338  0.7178  0.2756 -0.2156
  821TIP3    H123954   0.579   0.022   1.272  2.5164 -0.5978  1.2687
  821TIP3    H223955   0.462  -0.070   1.303  1.1061  0.3584 -0.9562
  822TIP3   OH223956   3.524   5.288  15.207  0.0392  0.0510  0.1781
  822TIP3    H123957   3.533   5.369  15.157  1.7519  0.3605  0.8947
  822TIP3    H223958   3.568   5.308  15.290 -2.9589 -0.3186  1.9899
  823TIP3   OH223959   3.839   0.348  16.974 -0.0523  0.5912 -0.4141
  823TIP3    H123960   3.813   0.431  16.935  0.0595  0.8373  0.0356
  823TIP3    H223961   3.784   0.283  16.930 -1.1987  1.0621  0.2897
  824TIP3   OH223962   0.517   0.411   1.796 -0.2547 -0.2739 -0.2864
  824TIP3    H123963   0.509   0.316   1.798 -0.3413 -0.2936 -1.0242
  824TIP3    H223964   0.588   0.427   1.734  0.3681  0.1184  0.5197
  825TIP3   OH223965   3.653   2.616  16.739  0.1826  0.0872 -0.2311
  825TIP3    H123966   3.681   2.565  16.662  2.3388  1.8398 -0.7153
  825TIP3    H223967   3.599   2.555  16.789  1.4745 -2.2239 -1.4453
  826TIP3   OH223968   5.859   1.651   4.629  0.0947  0.1211  0.3119
  826TIP3    H123969   5.773   1.610   4.623 -0.0401  0.4960 -0.5160
  826TIP3    H223970   5.903   1.603   4.699 -0.5417 -0.5244  0.2933
  827TIP3   OH223971   3.606   2.242   3.010  0.3557  0.1049  0.3322
  827TIP3    H123972   3.519   2.203   3.005 -0.8612  2.7577 -2.0971
  827TIP3    H223973   3.593   2.323   3.059  1.3721  0.7241 -0.3966
  828TIP3   OH223974   3.096   0.953   5.251  0.1768 -0.1525  0.1889
  828TIP3    H123975   3.057   0.867   5.268  1.1849 -1.1564 -2.1548
  828TIP3    H223976   3.051   0.984   5.172  1.3928  0.4392 -0.2874
  829TIP3   OH223977   1.248   3.594   1.116  0.1389  1.1205  0.1615
  829TIP3    H123978   1.267   3.540   1.039 -1.1767 -0.5360  0.9144
  829TIP3    H223979   1.301   3.556   1.186  1.6629  2.8872  0.0402
  830TIP3   OH223980   0.686   1.065  11.919 -0.3437 -0.4356 -0.0583
  830TIP3    H123981   0.628   1.088  11.992 -1.1602 -2.3665 -0.0493
  830TIP3    H223982   0.631   1.017  11.858  0.7313 -0.3333 -1.1459
  831TIP3   OH223983   0.279   4.857  15.810 -0.2664 -0.5682 -0.2442
  831TIP3    H123984   0.314   4.929  15.863 -0.4691 -1.1454  0.7093
  831TIP3    H223985   0.357   4.808  15.783  0.1310  1.4613 -3.1938
  832TIP3   OH223986   3.644   5.079   1.799 -0.3531  0.2132 -0.1714
  832TIP3    H123987   3.588   5.139   1.751  1.0724  2.2715  0.5688
  832TIP3    H223988   3.723   5.131   1.819  0.5073 -1.5802  1.4455
  833TIP3   OH223989   2.781   3.360  12.437 -0.2128 -0.1703 -0.7245
  833TIP3    H123990   2.850   3.295  12.456 -0.5717 -0.4639 -0.4177
  833TIP3    H223991   2.824   3.445  12.450 -0.2105 -0.3526  0.5855
  834TIP3   OH223992   2.673   4.940  13.220 -0.1636  0.1970  0.0680
  834TIP3    H123993   2.765   4.959  13.238  0.1769 -1.2935 -0.0017
  834TIP3    H223994   2.625   5.005  13.271  0.9166  1.7903 -0.8574
  835TIP3   OH223995   0.670   6.472   3.604  0.8271  0.5312  0.0867
  835TIP3    H123996   0.608   6.543   3.586  2.5312  2.0693  0.0549
  835TIP3    H223997   0.747   6.493   3.551  1.7461 -0.8254  0.8279
  836TIP3   OH223998   0.985   4.393   1.820 -0.2723 -1.1207 -0.2702
  836TIP3    H123999   0.985   4.489   1.815  1.0265 -1.0888  0.1082
  836TIP3    H224000   0.918   4.373   1.885  0.3528 -0.3865  0.6294
  837TIP3   OH224001   2.910   3.152  13.334 -0.1000  0.4877  0.6543
  837TIP3    H124002   2.830   3.189  13.370  0.3304  1.3232  0.7796
  837TIP3    H224003   2.906   3.170  13.241 -0.8471 -0.9887  0.3686
  838TIP3   OH224004   3.859   3.134   5.224 -0.4969 -0.1914  0.1333
  838TIP3    H124005   3.806   3.211   5.201  0.2476  0.3786  0.2919
  838TIP3    H224006   3.915   3.164   5.295 -1.6382 -1.4772  1.6613
  839TIP3   OH224007   0.761   1.250  16.704  0.2229 -0.0917 -0.2468
  839TIP3    H124008   0.827   1.272  16.770 -1.1011 -0.3094  1.2231
  839TIP3    H224009   0.751   1.155  16.712 -1.1031  0.0703  0.4457
  840TIP3   OH224010   3.291   6.397  11.389 -0.3117  0.2755 -0.1368
  840TIP3    H124011   3.289   6.302  11.397  1.1468  0.1223 -1.2545
  840TIP3    H224012   3.347   6.414  11.313 -1.6240  1.9984 -0.7849
  841TIP3   OH224013   2.677   4.449   4.857 -0.2671 -0.3569  0.7962
  841TIP3    H124014   2.686   4.494   4.941 -1.2788 -0.0743  0.7622
  841TIP3    H224015   2.765   4.455   4.818 -0.4729  2.0851  0.5623
  842TIP3   OH224016   5.710   5.105  10.835 -0.4080  0.0409  0.2897
  842TIP3    H124017   5.725   5.011  10.847 -0.0282 -0.4489 -3.1394
  842TIP3    H224018   5.614   5.113  10.834 -0.4448 -0.3219  0.5064
  843TIP3   OH224019   6.586   0.419  10.922 -0.3081 -0.1974 -0.1246
  843TIP3    H124020   6.602   0.455  11.009  1.6716 -0.7774 -0.2021
  843TIP3    H224021   6.535   0.486  10.877 -0.4794  0.5571  1.1525
  844TIP3   OH224022   0.335   2.881   5.447  0.8643 -0.0914  0.0582
  844TIP3    H124023   0.290   2.965   5.453  2.9212  0.9953  1.0899
  844TIP3    H224024   0.317   2.838   5.530  0.0379 -0.6111 -0.3646
  845TIP3   OH224025   3.877   2.285   3.605 -0.0921  0.0886  0.5888
  845TIP3    H124026   3.850   2.195   3.623  0.1649  0.0438  0.7546
  845TIP3    H224027   3.826   2.310   3.528  1.5324 -1.0089 -0.9359
  846TIP3   OH224028   3.795   2.738   0.139 -0.2477 -0.2810  0.3301
  846TIP3    H124029   3.823   2.752   0.048 -1.2583 -1.8648 -0.2520
  846TIP3    H224030   3.778   2.826   0.172 -1.5017  0.2468 -1.5619
  847TIP3   OH224031   4.088   5.186  15.974 -0.3647 -0.1750 -0.2318
  847TIP3    H124032   4.013   5.245  15.978 -0.4300 -0.1263 -1.5496
  847TIP3    H224033   4.088   5.140  16.057 -1.2154  0.6017  0.2097
  848TIP3   OH224034   5.442   3.081   2.190 -0.1995  0.5219 -0.4222
  848TIP3    H124035   5.401   3.143   2.130 -2.2474 -1.1526 -0.8891
  848TIP3    H224036   5.380   3.074   2.262 -0.2533 -1.2730 -0.6079
  849TIP3   OH224037   5.120   4.945   4.288  0.5498 -0.1310  0.0993
  849TIP3    H124038   5.160   4.917   4.371  1.1719 -0.6717 -0.3708
  849TIP3    H224039   5.121   4.866   4.234 -3.2489 -0.8344  0.7989
  850TIP3   OH224040   4.846   3.179   6.131  0.0312  0.0034  0.0150
  850TIP3    H124041   4.777   3.161   6.195 -0.8882  0.1895 -0.9141
  850TIP3    H224042   4.837   3.110   6.066  1.3275 -0.5191  0.3390
  851TIP3   OH224043   2.069   4.800  15.389  0.2606 -0.1098  0.3121
  851TIP3    H124044   2.085   4.770  15.299  4.8090 -0.4753  1.0255
  851TIP3    H224045   2.029   4.724  15.432  0.5953 -0.9206 -0.7447
  852TIP3   OH224046   0.007   3.686   2.809  0.3734  0.0198 -0.2226
  852TIP3    H124047  -0.043   3.641   2.877  2.1177 -3.2674 -0.9476
  852TIP3    H224048  -0.041   3.668   2.728  0.5490  0.3857 -0.4128
  853TIP3   OH224049   3.915   4.587  13.945  0.2350  0.9897  0.5572
  853TIP3    H124050   3.825   4.583  13.911 -0.1117  1.8727  1.3515
  853TIP3    H224051   3.941   4.495  13.952 -0.1898  0.7427 -0.7226
  854TIP3   OH224052   0.188   0.218  15.628 -0.8098  0.7624  0.3534
  854TIP3    H124053   0.159   0.283  15.563  2.1813  0.9163 -0.9798
  854TIP3    H224054   0.240   0.268  15.690  2.4561 -0.3170 -1.2826
  855TIP3   OH224055   2.076   4.799   1.705 -0.4712  0.4752  0.2720
  855TIP3    H124056   2.102   4.728   1.763 -0.5554  0.8836  0.8212
  855TIP3    H224057   1.985   4.817   1.728  0.1755  2.2412  1.7402
  856TIP3   OH224058   5.845   1.333  13.806 -0.3069  0.9184 -0.5825
  856TIP3    H124059   5.894   1.334  13.724  2.7318 -2.1065  0.9391
  856TIP3    H224060   5.913   1.330  13.874 -2.6749  1.0036  1.9519
  857TIP3   OH224061   4.869   3.462   4.865  0.4876  0.3067 -0.0816
  857TIP3    H124062   4.895   3.371   4.849  0.2658  0.3245 -0.5538
  857TIP3    H224063   4.888   3.507   4.782  0.1558  0.5915 -0.0034
  858TIP3   OH224064   1.361   3.959   0.696 -0.0497  0.1489 -0.4085
  858TIP3    H124065   1.452   3.989   0.703  0.2964  0.4591 -4.1708
  858TIP3    H224066   1.309   4.030   0.732  1.1535  0.6638  0.3703
  859TIP3   OH224067   6.191   6.399   5.284 -0.1779  0.9688 -0.3295
  859TIP3    H124068   6.111   6.451   5.282  1.2451  3.3522  0.7620
  859TIP3    H224069   6.174   6.333   5.351 -1.1025  1.6801  0.1696
  860TIP3   OH224070   6.114   3.211  15.942  0.1642  0.4993  0.2201
  860TIP3    H124071   6.147   3.264  15.869 -0.9210 -1.0292 -1.4462
  860TIP3    H224072   6.160   3.246  16.019  0.4695  2.9557 -0.9745
  861TIP3   OH224073   6.145   0.513   5.277 -0.0820 -0.6657  0.0981
  861TIP3    H124074   6.183   0.600   5.268 -0.2980 -0.4964  0.7474
  861TIP3    H224075   6.114   0.490   5.190  0.4641 -0.3207 -0.1905
  862TIP3   OH224076   0.966   4.317   6.895  0.1179 -0.5268  0.0697
  862TIP3    H124077   1.017   4.245   6.859  0.9134 -1.0611  2.1246
  862TIP3    H224078   0.997   4.394   6.847  0.6947 -1.2686 -0.7828
  863TIP3   OH224079   0.752   5.117   1.956 -0.0012 -0.5316 -0.5788
  863TIP3    H124080   0.778   5.043   2.011 -2.2327 -0.9614 -0.0053
  863TIP3    H224081   0.794   5.193   1.996  0.6433 -1.2002  0.0480
  864TIP3   OH224082   5.536   6.394  17.117  0.6424 -0.1140 -0.2336
  864TIP3    H124083   5.512   6.307  17.149 -0.9429 -0.7271 -2.8399
  864TIP3    H224084   5.540   6.385  17.022 -3.0250  3.3884 -0.9646
  865TIP3   OH224085   1.003   4.897  15.503 -0.0198  0.7496  0.0769
  865TIP3    H124086   1.088   4.941  15.506 -0.5647  1.8508  0.1211
  865TIP3    H224087   0.992   4.873  15.411 -0.1631  1.6819 -0.1668
  866TIP3   OH224088   0.959   0.930  16.206 -0.6723  0.1574 -0.1563
  866TIP3    H124089   0.992   0.875  16.276 -0.4230  1.1211  0.5031
  866TIP3    H224090   0.928   1.009  16.250  0.5933  1.2937 -1.2168
  867TIP3   OH224091   4.322   4.033   5.765 -0.6711 -0.1475  0.6528
  867TIP3    H124092   4.301   4.013   5.857 -3.4668 -0.2259  0.0946
  867TIP3    H224093   4.318   4.128   5.760 -1.2453 -0.1747  0.4909
  868TIP3   OH224094   4.530   0.759   3.982  0.0814  0.0997 -0.5667
  868TIP3    H124095   4.561   0.715   4.061 -0.9586  1.0352  0.4105
  868TIP3    H224096   4.597   0.741   3.916  1.1522 -0.4179  0.6181
  869TIP3   OH224097   0.649   0.860  17.251  0.2613  0.4624 -0.0474
  869TIP3    H124098   0.673   0.854  17.343  0.0462 -0.3594 -0.0310
  869TIP3    H224099   0.558   0.888  17.252 -0.0080 -0.3935  0.0253
  870TIP3   OH224100   5.045   3.360  14.458 -0.4876  0.1325  0.0554
  870TIP3    H124101   5.078   3.374  14.547 -1.0973 -1.1934  0.5105
  870TIP3    H224102   5.013   3.446  14.431  2.0823  1.1946  0.0806
  871TIP3   OH224103   1.060   6.373   4.605  0.4630  0.5128 -0.1918
  871TIP3    H124104   1.060   6.278   4.614 -2.7760  0.3480 -0.7443
  871TIP3    H224105   0.996   6.390   4.536 -1.0628  3.2153  1.7488
  872TIP3   OH224106   1.938   1.465   0.469 -0.3135  0.2705  0.2860
  872TIP3    H124107   1.996   1.440   0.397 -2.6631 -1.1184 -1.2655
  872TIP3    H224108   1.977   1.545   0.505  1.9391 -0.0230 -1.3325
  873TIP3   OH224109   5.851   0.968  15.994 -0.0021 -0.0549  0.4183
  873TIP3    H124110   5.788   0.973  15.922  0.1250  0.8749  0.3546
  873TIP3    H224111   5.908   0.894  15.971 -0.2017 -0.0124 -0.2362
  874TIP3   OH224112   1.861   0.120   1.368  0.1699  0.9126  0.6321
  874TIP3    H124113   1.829   0.030   1.364  0.2725  0.8935 -2.6853
  874TIP3    H224114   1.782   0.172   1.383 -0.0613  0.3596  1.4122
  875TIP3   OH224115   5.932   2.571   3.339 -0.6594  0.4580 -0.1986
  875TIP3    H124116   5.986   2.503   3.379 -0.8462  0.4585  0.0595
  875TIP3    H224117   5.960   2.573   3.247  0.4120  1.0794  0.1229
  876TIP3   OH224118   1.745   5.050  14.449  0.5184  0.4109 -0.3500
  876TIP3    H124119   1.740   5.079  14.540 -0.8181 -0.3806 -0.1324
  876TIP3    H224120   1.658   5.014  14.431  1.4291 -1.4955 -1.2405
  877TIP3   OH224121   0.588   0.222  14.334 -0.4661 -0.0347 -0.2015
  877TIP3    H124122   0.677   0.192  14.317 -0.4059 -0.0282  0.1055
  877TIP3    H224123   0.581   0.224  14.429 -0.2212  1.6193 -0.1749
  878TIP3   OH224124   6.823   2.357   0.186  0.7027  0.2973 -0.1087
  878TIP3    H124125   6.893   2.291   0.191 -0.2982 -0.8227 -0.3633
  878TIP3    H224126   6.742   2.306   0.187 -0.1149  1.5495 -0.1630
  879TIP3   OH224127   1.581   4.399  13.239 -0.4358  0.3088 -0.0316
  879TIP3    H124128   1.558   4.488  13.211 -1.2636  0.4628  1.0735
  879TIP3    H224129   1.507   4.345  13.212  0.1452 -0.0918 -0.8585
  880TIP3   OH224130   5.954   1.055  12.091 -0.5657 -0.5631 -0.4842
  880TIP3    H124131   5.973   0.985  12.028 -1.3012 -1.9859  0.7913
  880TIP3    H224132   5.941   1.133  12.037  2.0806 -0.9456 -1.8581
  881TIP3   OH224133   2.214   4.565  14.608  0.1531 -0.7084 -0.1397
  881TIP3    H124134   2.220   4.525  14.521  1.2870 -2.2775  0.6336
  881TIP3    H224135   2.130   4.534  14.643  0.4328 -1.3697 -0.0515
  882TIP3   OH224136   0.811   3.258  15.403  0.1945 -0.3031 -0.2274
  882TIP3    H124137   0.720   3.285  15.415  0.1883 -0.0943 -0.7006
  882TIP3    H224138   0.839   3.228  15.489 -0.5926 -1.1951 -0.2675
  883TIP3   OH224139   2.288   1.028   1.605 -0.0420  1.3315  0.3963
  883TIP3    H124140   2.370   1.041   1.558  0.1081  1.8320  0.7975
  883TIP3    H224141   2.302   0.949   1.657 -0.6733 -0.0622 -1.4120
  884TIP3   OH224142   3.428   2.736  11.202  0.4610  0.3459 -0.3427
  884TIP3    H124143   3.381   2.699  11.277  2.6466 -0.1392  0.8711
  884TIP3    H224144   3.385   2.699  11.125  0.4063 -2.0320  0.7679
  885TIP3   OH224145   3.120   4.161   2.287  0.2918  0.1241  0.6207
  885TIP3    H124146   3.166   4.237   2.323 -0.0956 -0.0668  1.5451
  885TIP3    H224147   3.027   4.182   2.298  0.1403  0.2307 -0.6530
  886TIP3   OH224148   6.026   6.370   4.336 -0.1603 -0.4060 -0.2964
  886TIP3    H124149   6.022   6.433   4.263 -2.5943  1.1434  1.0155
  886TIP3    H224150   6.113   6.332   4.330  1.1116  2.3923 -1.7859
  887TIP3   OH224151   3.500   3.298  10.782  0.0120 -0.2000 -0.4495
  887TIP3    H124152   3.503   3.216  10.830  0.8957 -0.1611 -0.4161
  887TIP3    H224153   3.532   3.364  10.844 -1.4078  0.3103 -0.2264
  888TIP3   OH224154   4.793   6.101  15.971  0.7037 -0.0537 -0.2683
  888TIP3    H124155   4.829   6.184  16.002  0.6730 -0.8101  1.9778
  888TIP3    H224156   4.869   6.055  15.935  1.2374 -0.0470  0.8048
  889TIP3   OH224157   1.743   5.963   5.153 -0.9866  0.0765 -0.0024
  889TIP3    H124158   1.828   5.931   5.183 -0.7196 -0.8141 -1.5776
  889TIP3    H224159   1.721   6.034   5.214  1.9647  1.8755 -0.8155
  890TIP3   OH224160   4.659   3.788   4.030 -0.0916  0.0313  0.3245
  890TIP3    H124161   4.614   3.765   4.111  0.2957 -0.6010  0.3717
  890TIP3    H224162   4.738   3.734   4.030  1.6442  2.3924  1.1310
  891TIP3   OH224163   3.629   3.864   2.267 -0.1481 -0.1200 -0.6482
  891TIP3    H124164   3.541   3.879   2.302  0.5883  1.8811  0.4967
  891TIP3    H224165   3.619   3.790   2.208 -2.0284 -1.8103  1.6274
  892TIP3   OH224166   1.802   3.098  16.937  0.0426  0.1989  0.2701
  892TIP3    H124167   1.806   3.171  16.999  0.4937  0.4697 -0.0705
  892TIP3    H224168   1.801   3.020  16.991 -0.6478  0.4670  0.6462
  893TIP3   OH224169   2.907   2.915  13.464  0.6110 -0.6673  0.1857
  893TIP3    H124170   2.928   2.994  13.414 -1.7590 -0.5966 -0.8183
  893TIP3    H224171   2.946   2.930  13.550  2.2511  0.5084 -0.6881
  894TIP3   OH224172   5.551   6.109  15.031 -0.5415 -0.4040 -0.1201
  894TIP3    H124173   5.543   6.018  15.002 -2.2633 -0.2906 -0.0733
  894TIP3    H224174   5.491   6.116  15.105 -0.6481  0.8436 -0.3030
  895TIP3   OH224175   3.633   4.017   3.892  0.0989 -0.6739  0.5934
  895TIP3    H124176   3.698   3.947   3.896  0.1958 -0.6380 -0.2028
  895TIP3    H224177   3.685   4.097   3.882  0.0629 -0.3120  2.7463
  896TIP3   OH224178   5.142   2.576  16.693 -0.4216  0.5548 -0.0618
  896TIP3    H124179   5.154   2.483  16.710 -1.3573  0.3219 -0.5678
  896TIP3    H224180   5.077   2.604  16.758  1.0284  1.2417  1.1467
  897TIP3   OH224181   5.611   4.709   5.161  0.5586  0.2355  0.9410
  897TIP3    H124182   5.588   4.745   5.247  0.4244  0.1680  0.9345
  897TIP3    H224183   5.668   4.774   5.121  0.0579  0.5926  0.7990
  898TIP3   OH224184   0.227   6.807   3.218 -0.3360  0.5115 -0.8690
  898TIP3    H124185   0.288   6.806   3.144 -1.0353  1.3895 -1.4802
  898TIP3    H224186   0.283   6.821   3.295  0.4376 -0.7303 -1.1765
  899TIP3   OH224187   6.492   4.694   3.660  0.3341 -0.1101  0.2027
  899TIP3    H124188   6.426   4.677   3.728 -0.0511 -1.0562 -0.4012
  899TIP3    H224189   6.441   4.721   3.584  0.6879 -0.3081 -0.1034
  900TIP3   OH224190   3.993   0.558   6.209 -0.2159  0.3864 -0.1584
  900TIP3    H124191   4.052   0.489   6.239 -0.3843 -0.1579 -1.0640
  900TIP3    H224192   4.052   0.627   6.177 -0.0574  0.3709  0.0970
  901TIP3   OH224193   5.571   0.894  12.429  0.0660 -0.1064  0.2594
  901TIP3    H124194   5.482   0.909  12.461  0.1522  0.9868  0.0179
  901TIP3    H224195   5.627   0.925  12.499  0.2589  0.1294  0.0017
  902TIP3   OH224196   2.001   4.460   0.739 -0.2891  0.1787 -0.6234
  902TIP3    H124197   2.018   4.551   0.763  1.3871 -0.4274  0.7002
  902TIP3    H224198   2.042   4.450   0.654  5.3294 -0.7838  1.7488
  903TIP3   OH224199   3.327   0.390  14.374  0.4438  0.4866 -0.3293
  903TIP3    H124200   3.309   0.416  14.283  0.6426 -0.8780 -0.7801
  903TIP3    H224201   3.380   0.311  14.366  0.9153  0.6564  0.9859
  904TIP3   OH224202   0.230   1.494   3.156  0.2279  0.6289 -0.4786
  904TIP3    H124203   0.136   1.478   3.166 -0.5655  3.7597 -1.6625
  904TIP3    H224204   0.254   1.548   3.232  1.6509 -1.8369  0.9415
  905TIP3   OH224205   2.168   4.558  13.984  0.2683 -0.1083  0.3369
  905TIP3    H124206   2.112   4.589  14.055  1.0460 -0.6716  1.2109
  905TIP3    H224207   2.109   4.505  13.929  0.2779 -2.2456  2.2473
  906TIP3   OH224208   2.251   6.679   5.574  0.0145  0.1885 -0.4518
  906TIP3    H124209   2.308   6.755   5.563  0.1868  0.3248  1.0792
  906TIP3    H224210   2.309   6.604   5.562  0.6022  0.3262  1.2409
  907TIP3   OH224211   5.711   5.537  14.102 -0.0839 -0.3266 -0.1233
  907TIP3    H124212   5.769   5.462  14.112  0.4813  0.2200  0.8934
  907TIP3    H224213   5.764   5.603  14.059 -0.0269  0.0770  0.5529
  908TIP3   OH224214   2.967   6.498   3.744  0.0879  0.0272 -0.4216
  908TIP3    H124215   2.887   6.455   3.775 -0.2425 -0.4017 -1.7885
  908TIP3    H224216   2.956   6.502   3.649  1.4641  0.4434 -0.5770
  909TIP3   OH224217   5.537   2.615  15.336 -0.0061 -0.2514 -0.3300
  909TIP3    H124218   5.462   2.664  15.303 -1.7483 -2.1082  0.6697
  909TIP3    H224219   5.580   2.581  15.258 -0.4031  0.5341 -0.9010
  910TIP3   OH224220   2.748   6.661  14.626  0.6252  0.1710 -0.4857
  910TIP3    H124221   2.671   6.664  14.683  0.5569 -0.5399 -0.5222
  910TIP3    H224222   2.722   6.710  14.548  1.2749  2.5446  0.6926
  911TIP3   OH224223   1.980   1.300   3.063 -0.1997 -0.3263 -0.0663
  911TIP3    H124224   2.004   1.255   2.982  0.1805 -0.2030 -0.0219
  911TIP3    H224225   1.927   1.375   3.034 -0.9939 -0.8959 -0.1285
  912TIP3   OH224226   3.116   6.199  15.699 -0.6308 -0.5332 -0.1302
  912TIP3    H124227   3.160   6.277  15.666  0.2301 -1.2274 -0.6698
  912TIP3    H224228   3.108   6.142  15.622  0.0745 -1.5703  0.5420
  913TIP3   OH224229   4.458   1.387  11.392 -0.3257 -0.1655  0.1118
  913TIP3    H124230   4.453   1.462  11.453 -1.3551  0.7469 -1.0414
  913TIP3    H224231   4.517   1.325  11.435 -1.4149  0.2171  2.2814
  914TIP3   OH224232   1.217   2.375  11.283  0.0715 -0.0578 -0.1563
  914TIP3    H124233   1.249   2.459  11.317 -1.2862  0.6321 -0.5279
  914TIP3    H224234   1.150   2.349  11.346  0.4753 -0.8757 -0.0537
  915TIP3   OH224235   3.352   6.660  15.372 -0.0395  0.0313 -0.8626
  915TIP3    H124236   3.279   6.666  15.311 -0.6273 -1.0689 -0.3061
  915TIP3    H224237   3.421   6.614  15.324  1.1996  2.9503 -2.1492
  916TIP3   OH224238   3.802   0.661  14.441 -0.1592 -0.2590  0.3688
  916TIP3    H124239   3.725   0.704  14.478  0.1546  0.7222 -0.0741
  916TIP3    H224240   3.784   0.656  14.347  0.3216  0.0144  0.2561
  917TIP3   OH224241   0.653   5.701  16.069  0.1021  0.0613 -0.6975
  917TIP3    H124242   0.591   5.658  16.127 -0.7046  0.0924 -1.5122
  917TIP3    H224243   0.738   5.689  16.111 -0.0381 -2.4885 -0.9598
  918TIP3   OH224244   6.781   4.045   0.055 -0.1002 -0.6171 -0.0406
  918TIP3    H124245   6.739   4.003  -0.020  0.9055 -1.5817 -0.0882
  918TIP3    H224246   6.856   4.092   0.018 -2.1224  2.7447 -0.2307
  919TIP3   OH224247   1.418   5.098  10.824  0.2971  0.1672 -0.2326
  919TIP3    H124248   1.333   5.142  10.826  0.1680 -0.0780  1.2724
  919TIP3    H224249   1.401   5.013  10.784 -0.0118  0.4132 -0.6201
  920TIP3   OH224250   3.743   5.128   4.841 -0.1605 -0.6795 -0.0193
  920TIP3    H124251   3.805   5.077   4.788  1.2377 -0.3393  1.2102
  920TIP3    H224252   3.788   5.141   4.924 -1.1610  1.1216  0.3059
  921TIP3   OH224253   4.962   0.693  15.960 -0.2068 -0.2207  0.1221
  921TIP3    H124254   5.012   0.770  15.936 -1.3660  0.6305  0.3601
  921TIP3    H224255   4.962   0.638  15.882  0.1585  0.2772 -0.2266
  922TIP3   OH224256   3.392   6.741  13.250 -0.0835 -0.0357 -0.4241
  922TIP3    H124257   3.323   6.797  13.286  0.5577  0.8063 -0.4772
  922TIP3    H224258   3.440   6.797  13.190  1.0577 -0.4133  0.1118
  923TIP3   OH224259   6.545   5.961  11.264  0.0651 -0.1315  0.0536
  923TIP3    H124260   6.508   5.875  11.243 -0.1994  0.4039 -1.8932
  923TIP3    H224261   6.639   5.944  11.275 -0.1610 -0.8584  1.0047
  924TIP3   OH224262   1.437   3.131   0.242  0.7777 -0.3964  0.8756
  924TIP3    H124263   1.428   3.043   0.206  0.3497  0.1336 -0.3363
  924TIP3    H224264   1.348   3.156   0.266  0.8133 -0.0561  0.6472
  925TIP3   OH224265   6.206   4.303   3.144  0.0414  0.2684 -0.3177
  925TIP3    H124266   6.217   4.241   3.216 -4.5296 -1.2505 -0.5990
  925TIP3    H224267   6.174   4.383   3.186  0.6659  0.5773 -0.4190
  926TIP3   OH224268   6.287   0.387  17.234 -0.4649 -0.1664  0.5924
  926TIP3    H124269   6.323   0.456  17.289  1.0600 -1.2673  1.0502
  926TIP3    H224270   6.305   0.306  17.282 -1.4669 -0.9555 -0.3073
  927TIP3   OH224271   2.718   0.968   3.485  0.2572  0.2071  0.2937
  927TIP3    H124272   2.703   0.913   3.562  1.2240  0.1243  0.4353
  927TIP3    H224273   2.647   1.032   3.487 -0.4482 -0.5613  0.5490
  928TIP3   OH224274   0.971   4.965   3.060  0.3589 -0.2101 -0.5231
  928TIP3    H124275   0.907   4.983   2.991 -1.6104 -0.2771  1.1841
  928TIP3    H224276   0.984   5.049   3.104  0.8783 -0.3614 -0.3748
  929TIP3   OH224277   3.955   0.256   6.591  0.1606  0.0015  0.4304
  929TIP3    H124278   4.012   0.180   6.577  0.3980  0.4231 -1.0650
  929TIP3    H224279   3.912   0.269   6.507 -2.3105 -0.3955  1.5358
  930TIP3   OH224280   2.143   3.704   1.410 -0.0959  0.4302 -1.0399
  930TIP3    H124281   2.217   3.763   1.396 -0.0280  0.8696  0.9740
  930TIP3    H224282   2.066   3.758   1.397 -0.0544  0.4876 -1.0449
  931TIP3   OH224283   6.701   1.608  14.123  0.0846 -0.5522  0.2737
  931TIP3    H124284   6.637   1.679  14.114  0.3804 -0.0109  2.0338
  931TIP3    H224285   6.712   1.598  14.217  1.2533 -1.8768  0.0265
  932TIP3   OH224286   5.463   4.672  17.047  0.7669  0.3021  0.1794
  932TIP3    H124287   5.527   4.742  17.061  1.0366  0.1074 -0.0706
  932TIP3    H224288   5.510   4.591  17.065  0.7390  0.1283 -0.4932
  933TIP3   OH224289   4.482   3.630  14.805  0.4116  0.2085 -0.1889
  933TIP3    H124290   4.547   3.679  14.754  1.0836  1.6766  1.8947
  933TIP3    H224291   4.405   3.687  14.806  0.0460 -0.2828 -0.4188
  934TIP3   OH224292   4.686   3.215  14.943 -0.0129  0.2423 -0.0034
  934TIP3    H124293   4.721   3.303  14.926  0.5608 -0.0495 -0.3508
  934TIP3    H224294   4.645   3.223  15.029 -1.7885  1.3768 -0.9062
  935TIP3   OH224295   2.790   6.411   0.507  0.1064  0.5076  0.1687
  935TIP3    H124296   2.850   6.473   0.549  0.2342  0.5608 -0.0897
  935TIP3    H224297   2.717   6.403   0.568  0.4900  0.2519  0.6058
  936TIP3   OH224298   0.212   3.851   3.389  0.0375  0.6728 -0.0423
  936TIP3    H124299   0.256   3.793   3.327  0.5090 -0.1743  1.0567
  936TIP3    H224300   0.120   3.847   3.363  0.1181 -0.2742 -0.2212
  937TIP3   OH224301   5.077   2.101   0.122 -0.0088 -0.8305 -0.2954
  937TIP3    H124302   5.071   2.196   0.132  1.5588 -0.5769 -1.2931
  937TIP3    H224303   5.020   2.081   0.048 -0.6369 -0.7281  0.1560
  938TIP3   OH224304   5.722   2.391  13.055  0.2680  0.2370 -0.7624
  938TIP3    H124305   5.771   2.429  12.983 -0.8451  1.9521 -0.6639
  938TIP3    H224306   5.676   2.316  13.015  0.9036  0.2018 -1.4457
  939TIP3   OH224307   3.263   2.023  16.008 -0.4735 -0.4479  0.4644
  939TIP3    H124308   3.211   2.073  16.070 -1.6537 -0.8649 -0.1559
  939TIP3    H224309   3.293   2.087  15.944 -1.5592 -0.4321 -0.0467
  940TIP3   OH224310   1.092   1.186   1.330  0.0124 -0.5213  0.1226
  940TIP3    H124311   1.152   1.230   1.391 -0.4036 -0.4840  0.5151
  940TIP3    H224312   1.007   1.230   1.345  0.2190  0.5493 -1.5791
  941TIP3   OH224313   4.803   5.084   3.114 -0.4728 -0.0929  0.3415
  941TIP3    H124314   4.795   5.172   3.078  0.7039 -1.0669 -2.5986
  941TIP3    H224315   4.716   5.046   3.104 -0.5945  0.2244  0.1936
  942TIP3   OH224316   5.101   1.505  13.139 -0.1009  0.0758  0.0414
  942TIP3    H124317   5.180   1.555  13.122  0.0637 -0.2276 -0.1040
  942TIP3    H224318   5.039   1.568  13.174 -0.4524  0.7359 -1.6829
  943TIP3   OH224319   1.003   0.512   1.266  0.3068 -0.0910 -1.1418
  943TIP3    H124320   0.929   0.465   1.229  0.7585 -1.4603 -0.3541
  943TIP3    H224321   1.080   0.465   1.235  0.7309 -0.6399  0.6142
  944TIP3   OH224322   3.468   6.385  16.164 -0.3331  0.2883  0.1301
  944TIP3    H124323   3.384   6.432  16.163 -0.9156 -0.7039  0.8900
  944TIP3    H224324   3.477   6.350  16.075  0.5626  2.5445 -0.7493
  945TIP3   OH224325   2.726   6.283  16.185 -0.2854 -0.0619  0.1098
  945TIP3    H124326   2.692   6.324  16.264 -0.6884 -0.6408  0.2436
  945TIP3    H224327   2.778   6.209  16.215 -0.1384 -0.0698 -0.1540
  946TIP3   OH224328   4.467   2.493  14.205  0.1901  0.8006 -0.5737
  946TIP3    H124329   4.545   2.469  14.155 -0.2142 -2.0345 -0.0457
  946TIP3    H224330   4.397   2.496  14.140  0.0316 -0.9042 -0.5429
  947TIP3   OH224331   4.986   2.357  13.723 -0.0321 -0.4062 -0.6689
  947TIP3    H124332   5.077   2.329  13.734 -0.3173 -1.1200 -0.0155
  947TIP3    H224333   4.938   2.276  13.707 -0.6826 -0.1471 -0.1122
  948TIP3   OH224334   3.020   0.639  15.435  0.5435 -0.0224 -0.2194
  948TIP3    H124335   2.943   0.647  15.378 -0.3763 -1.7644  0.7079
  948TIP3    H224336   3.052   0.550  15.419  1.0513 -0.0724  1.0131
  949TIP3   OH224337   0.539   5.209   3.142  0.4142  0.0070  0.1204
  949TIP3    H124338   0.588   5.205   3.224 -0.7411 -0.8020  0.8019
  949TIP3    H224339   0.540   5.119   3.108  2.0117  0.5651 -1.4793
  950TIP3   OH224340   3.633   6.687  11.686  0.0162  0.3125 -0.0978
  950TIP3    H124341   3.574   6.728  11.623 -0.2064  1.4099  0.7953
  950TIP3    H224342   3.652   6.756  11.750  0.1704 -0.7955  1.0828
  951TIP3   OH224343   2.474   2.400  12.232  0.6431  0.0200  0.2366
  951TIP3    H124344   2.560   2.366  12.258  1.3907  1.5153 -0.1724
  951TIP3    H224345   2.412   2.354  12.289  1.8205 -0.1361  1.4383
  952TIP3   OH224346   2.452   1.343  15.690  0.0394  0.0268  0.2379
  952TIP3    H124347   2.358   1.354  15.675  0.1978 -0.2604 -1.0370
  952TIP3    H224348   2.479   1.423  15.734 -0.8227  0.0399  0.7810
  953TIP3   OH224349   3.168   5.032  12.759  0.1345 -0.5061  0.0157
  953TIP3    H124350   3.251   4.995  12.790 -0.3102 -0.8614  0.8015
  953TIP3    H224351   3.112   4.955  12.745 -0.3691 -0.2112  0.3979
  954TIP3   OH224352   3.053   3.831  15.273  0.7948  0.1430  0.1046
  954TIP3    H124353   2.987   3.812  15.339 -1.7098  1.7810 -1.7584
  954TIP3    H224354   3.132   3.851  15.323 -0.6286  0.1050  2.5053
  955TIP3   OH224355   3.433   0.956   4.838  0.7985  0.1304  0.0185
  955TIP3    H124356   3.493   0.973   4.766  0.4514 -1.6225 -0.7365
  955TIP3    H224357   3.355   1.007   4.817  0.6589 -0.4460 -0.9119
  956TIP3   OH224358   0.259   2.462  14.531 -0.1804 -0.5441  0.2320
  956TIP3    H124359   0.270   2.367  14.528  0.4503 -0.5172  1.2375
  956TIP3    H224360   0.202   2.478  14.606 -0.1853 -0.1218  0.1428
  957TIP3   OH224361   2.945   1.775   2.010  0.3720  0.0149  0.1239
  957TIP3    H124362   2.952   1.866   2.038  2.7470 -0.4154  1.1136
  957TIP3    H224363   2.909   1.729   2.086  0.2323 -0.0591  0.0137
  958TIP3   OH224364   5.713   2.565  15.102 -0.0597 -0.2622  0.0148
  958TIP3    H124365   5.776   2.542  15.034 -1.0693  0.5855 -1.2351
  958TIP3    H224366   5.758   2.632  15.154 -0.8952  2.4821 -2.5951
  959TIP3   OH224367   3.832   2.134  13.610 -0.1443 -0.2831  0.0124
  959TIP3    H124368   3.885   2.121  13.532 -1.5145 -4.2854 -0.4602
  959TIP3    H224369   3.889   2.109  13.683  0.0973  0.2260  0.0033
  960TIP3   OH224370   6.814   0.108  10.811  0.2993 -0.0491  0.3370
  960TIP3    H124371   6.798   0.131  10.719 -0.0968 -0.4916  0.2872
  960TIP3    H224372   6.731   0.128  10.855  0.3635 -0.1877  0.5228
  961TIP3   OH224373   1.933   0.111   3.312  0.3670 -0.0467 -0.2093
  961TIP3    H124374   1.960   0.200   3.332  0.0052  0.0474 -0.1403
  961TIP3    H224375   1.837   0.113   3.316  0.3869 -0.9958  2.2740
  962TIP3   OH224376   4.700   5.120   3.513 -0.4998 -0.1112 -0.0458
  962TIP3    H124377   4.606   5.134   3.527 -0.6349  0.2734 -1.1824
  962TIP3    H224378   4.733   5.207   3.489 -0.2680 -0.6083 -1.6671
  963TIP3   OH224379   1.832   1.574  11.088  0.9265 -0.0332 -0.0235
  963TIP3    H124380   1.747   1.529  11.086  1.4351 -1.0200 -1.0623
  963TIP3    H224381   1.866   1.559  11.176  1.1898 -1.9525 -0.4134
  964TIP3   OH224382   2.692   2.639  15.741 -0.4424 -0.3313  0.1024
  964TIP3    H124383   2.623   2.574  15.758 -0.4247 -1.0374 -2.1462
  964TIP3    H224384   2.652   2.700  15.679  0.5167  0.0638 -0.1433
  965TIP3   OH224385   2.485   3.305  13.362  0.2216 -0.0988  0.2452
  965TIP3    H124386   2.404   3.328  13.408  0.1386 -2.3066  1.3152
  965TIP3    H224387   2.457   3.276  13.275 -0.1573 -0.7911  0.5882
  966TIP3   OH224388   6.533   0.519  15.695  0.3047 -0.8749 -0.4133
  966TIP3    H124389   6.491   0.540  15.611 -2.1728  1.4062  1.2156
  966TIP3    H224390   6.468   0.466  15.741  1.4039 -1.6349  0.2931
  967TIP3   OH224391   3.778   0.104  13.690  0.6163 -0.1104  0.4521
  967TIP3    H124392   3.800   0.068  13.604 -0.7453 -1.5381  0.6543
  967TIP3    H224393   3.863   0.115  13.734  1.1878 -1.4249 -0.2778
  968TIP3   OH224394   4.130   5.749   2.312  0.4743  0.3301  1.0553
  968TIP3    H124395   4.045   5.770   2.350  0.4701  0.0474  1.2041
  968TIP3    H224396   4.175   5.699   2.380  0.4542 -0.2113  0.6743
  969TIP3   OH224397   0.596   1.812  16.889 -0.0950  0.9448  0.3111
  969TIP3    H124398   0.676   1.856  16.917  0.3996  1.2166 -1.3957
  969TIP3    H224399   0.625   1.726  16.859 -0.7564  0.2442  1.6003
  970TIP3   OH224400   3.221   6.297   3.049  0.0048  0.2524  0.0115
  970TIP3    H124401   3.265   6.367   3.002  2.0021  0.0048  1.4238
  970TIP3    H224402   3.163   6.342   3.111  0.5130  0.6404  0.2067
  971TIP3   OH224403   4.123   5.102   2.748  0.3951 -0.0130 -0.5122
  971TIP3    H124404   4.215   5.094   2.775  0.3862  0.3794 -0.3502
  971TIP3    H224405   4.074   5.066   2.822  0.4364 -0.7863 -0.8556
  972TIP3   OH224406   3.198   6.504  12.889 -0.7253  0.4511 -0.7621
  972TIP3    H124407   3.249   6.474  12.814 -0.7633 -0.2313 -0.5184
  972TIP3    H224408   3.134   6.435  12.904 -0.8462  0.6756 -0.2269
  973TIP3   OH224409   2.184   6.504  11.271 -0.1666 -0.0728 -0.3286
  973TIP3    H124410   2.114   6.471  11.216  0.6342 -0.6753 -1.0158
  973TIP3    H224411   2.140   6.555  11.340 -1.1147  2.8334 -2.8646
  974TIP3   OH224412   6.494   2.615   6.601 -0.7324  0.2552  0.2950
  974TIP3    H124413   6.439   2.674   6.652 -1.1406 -0.0244  0.1886
  974TIP3    H224414   6.542   2.672   6.541 -1.9158  0.4073 -0.5531
  975TIP3   OH224415   3.964   1.603   1.935 -0.0156  0.5885  0.1170
  975TIP3    H124416   4.006   1.550   2.003 -1.1602 -1.5452 -0.7384
  975TIP3    H224417   3.990   1.562   1.852 -1.0923  1.2302 -0.5682
  976TIP3   OH224418   6.076   6.090   5.210  0.1057  0.4516 -0.1200
  976TIP3    H124419   6.012   6.161   5.209 -0.4128  0.2608  3.7261
  976TIP3    H224420   6.044   6.030   5.277  1.6687 -2.3517 -1.7092
  977TIP3   OH224421   6.543   4.946  12.952  0.1834  0.4966 -0.1362
  977TIP3    H124422   6.449   4.935  12.936  0.4133  1.7673 -2.9615
  977TIP3    H224423   6.577   4.856  12.958 -0.7386 -0.1355 -2.8130
  978TIP3   OH224424   0.739   2.049   4.407 -0.4310 -0.3234  0.2245
  978TIP3    H124425   0.814   2.087   4.361  0.0396 -1.2422  0.2019
  978TIP3    H224426   0.703   2.121   4.457 -0.4424  0.5046 -0.9269
  979TIP3   OH224427   0.785   1.532  13.725  0.4139 -0.6191 -0.6336
  979TIP3    H124428   0.850   1.592  13.761 -1.1778  0.5323  0.4598
  979TIP3    H224429   0.818   1.510  13.638  1.8104  0.6159 -0.4609
  980TIP3   OH224430   1.482   3.443   1.190  0.3481  0.5633 -0.0569
  980TIP3    H124431   1.485   3.354   1.225  0.1752 -0.7518 -3.0691
  980TIP3    H224432   1.573   3.469   1.184  0.4493  0.2267 -0.0227
  981TIP3   OH224433   0.407   3.318   3.424  0.1449  0.4188 -0.0835
  981TIP3    H124434   0.461   3.365   3.361  1.2996  0.1385  0.6797
  981TIP3    H224435   0.456   3.321   3.505 -0.0286 -1.5819  0.1455
  982TIP3   OH224436   4.711   2.279  15.401 -0.0058 -0.0042 -0.0766
  982TIP3    H124437   4.768   2.351  15.428  1.2642  0.1482 -2.8072
  982TIP3    H224438   4.767   2.224  15.346 -1.0012 -2.9929  1.6664
  983TIP3   OH224439   0.604   1.691   3.528  0.0738 -0.0085  0.7448
  983TIP3    H124440   0.513   1.674   3.505 -0.1832  0.4124  1.4290
  983TIP3    H224441   0.654   1.653   3.456 -0.6596  0.3388  0.0324
  984TIP3   OH224442   0.773   1.406  15.975 -0.3379  0.5131 -0.0378
  984TIP3    H124443   0.798   1.441  16.060 -0.7765  2.0447 -0.5088
  984TIP3    H224444   0.679   1.420  15.969 -0.3937 -0.0341 -0.5808
  985TIP3   OH224445   3.206   3.580  14.720  0.0962 -0.6576 -0.2677
  985TIP3    H124446   3.264   3.627  14.660  1.2289 -1.6028  0.0432
  985TIP3    H224447   3.253   3.499  14.741 -0.3692 -0.4856  1.6880
  986TIP3   OH224448   6.767   0.380  13.288 -0.2972 -0.2648  0.0118
  986TIP3    H124449   6.838   0.380  13.224  0.4428 -2.0739  0.7574
  986TIP3    H224450   6.802   0.427  13.363 -0.6172  0.5232 -0.3161
  987TIP3   OH224451   0.824   5.133  11.821 -0.2328 -0.3801 -0.4546
  987TIP3    H124452   0.842   5.132  11.727 -1.1725 -1.6262 -0.6510
  987TIP3    H224453   0.837   5.043  11.849 -2.3157 -0.5823  0.0869
  988TIP3   OH224454   5.292   3.556   3.253  0.4190  0.9130 -0.0388
  988TIP3    H124455   5.374   3.561   3.302  0.3455 -0.5714  0.2836
  988TIP3    H224456   5.236   3.621   3.295  1.1505  1.3673  0.2637
  989TIP3   OH224457   0.314   5.001  11.853 -0.0568 -0.2374 -0.1795
  989TIP3    H124458   0.301   5.060  11.779  1.4760  1.0378  0.5072
  989TIP3    H224459   0.242   5.020  11.912 -1.4498 -1.4548 -1.4008
  990TIP3   OH224460   4.634   5.126  12.098 -0.2756  0.4592 -0.5912
  990TIP3    H124461   4.581   5.182  12.041 -2.6923 -0.0747  0.9812
  990TIP3    H224462   4.657   5.051  12.043 -2.5648 -0.0553 -0.9503
  991TIP3   OH224463   0.322   3.051  17.246  0.2351  0.3466 -0.5179
  991TIP3    H124464   0.407   3.010  17.231  0.5168 -0.7832  3.0779
  991TIP3    H224465   0.259   2.984  17.220  0.5037  0.3426 -1.1654
  992TIP3   OH224466   4.010   4.387   4.826 -0.3280 -0.0445  0.1469
  992TIP3    H124467   4.023   4.356   4.736  0.4872 -1.0221  0.5866
  992TIP3    H224468   4.091   4.433   4.848  0.5999 -2.0725  1.2616
  993TIP3   OH224469   4.258   3.435   1.632  0.1855  0.3081 -0.2857
  993TIP3    H124470   4.289   3.488   1.558  2.4533 -2.0422 -1.1690
  993TIP3    H224471   4.230   3.353   1.592 -1.7838  0.1999  1.1903
  994TIP3   OH224472   1.097   3.248  14.927  0.1177 -0.5309 -0.1589
  994TIP3    H124473   1.164   3.270  14.992 -0.1497  0.3739 -0.1830
  994TIP3    H224474   1.021   3.300  14.952  0.0625 -0.0357 -1.2952
  995TIP3   OH224475   5.205   1.290  15.735 -0.3112 -0.0242 -0.0751
  995TIP3    H124476   5.189   1.250  15.820 -0.2407 -0.6793 -0.3627
  995TIP3    H224477   5.300   1.305  15.733 -0.2387 -0.4849 -0.2374
  996TIP3   OH224478   2.308   3.711   4.395 -0.4538 -0.0679 -0.1719
  996TIP3    H124479   2.356   3.730   4.314 -2.0056 -0.7556 -1.2975
  996TIP3    H224480   2.231   3.768   4.390 -0.7354 -0.3723  0.6536
  997TIP3   OH224481   2.737   5.457  16.910  1.0358 -0.3505  0.0928
  997TIP3    H124482   2.682   5.489  16.981 -1.2271 -1.8913 -0.8052
  997TIP3    H224483   2.723   5.520  16.839 -0.1353 -1.0271 -0.3203
  998TIP3   OH224484   4.507   1.184  12.613 -0.0008  0.2437  0.0245
  998TIP3    H124485   4.574   1.124  12.582 -0.2289  0.5711 -1.1328
  998TIP3    H224486   4.443   1.189  12.542 -1.0467  0.2673  0.9236
  999TIP3   OH224487   3.286   1.075  14.110  0.2735  0.8010  0.2705
  999TIP3    H124488   3.346   1.013  14.067  1.2606  0.3185  2.2048
  999TIP3    H224489   3.223   1.019  14.156 -0.0535  1.2597  0.3875
 1000TIP3   OH224490   3.011   2.497   1.330  0.3041 -0.3404  0.4883
 1000TIP3    H124491   2.968   2.521   1.248  1.0457  1.3055  0.5551
 1000TIP3    H224492   3.067   2.423   1.306  2.1932  1.4809 -1.0433
 1001TIP3   OH224493   0.755   6.243   2.809  0.4139  0.9913  0.1904
 1001TIP3    H124494   0.754   6.253   2.904  2.1335  1.3531  0.2053
 1001TIP3    H224495   0.726   6.328   2.776  3.3097  2.1917  0.4255
 1002TIP3   OH224496   1.293   2.068   4.550 -0.3255  0.9570 -0.3607
 1002TIP3    H124497   1.291   2.128   4.624  1.8338 -0.5638  1.0350
 1002TIP3    H224498   1.373   2.089   4.503  1.0551 -1.3606  0.7582
 1003TIP3   OH224499   4.717   2.074   2.421 -0.0382  0.2991  0.2791
 1003TIP3    H124500   4.772   2.037   2.352 -0.9176  1.6430 -1.1966
 1003TIP3    H224501   4.757   2.158   2.442 -0.8656  0.7713  0.0104
 1004TIP3   OH224502   3.076   0.280   1.986  0.4556  0.0600  0.1648
 1004TIP3    H124503   3.069   0.363   2.034  0.9438 -0.6341  1.4742
 1004TIP3    H224504   3.141   0.297   1.919 -1.3311  1.5113 -1.3141
 1005TIP3   OH224505   5.531   3.738  15.598  0.1196  0.6165  0.3520
 1005TIP3    H124506   5.456   3.683  15.621  1.3077 -1.5451 -0.7356
 1005TIP3    H224507   5.512   3.769  15.510 -0.3581  1.6982  0.8104
 1006TIP3   OH224508   1.023   4.700  12.718 -0.0550 -0.1679  0.2813
 1006TIP3    H124509   1.015   4.715  12.624  0.3790 -1.2355  0.0557
 1006TIP3    H224510   0.936   4.673  12.746 -1.1923  3.6654  0.9315
 1007TIP3   OH224511   2.477   4.452   3.489 -0.0999  0.0304 -0.0251
 1007TIP3    H124512   2.558   4.464   3.539  1.0898  0.3083 -1.9341
 1007TIP3    H224513   2.419   4.404   3.548  0.5505  1.8861  2.2844
 1008TIP3   OH224514   5.061   1.553  13.819  1.0332 -0.8831 -0.6526
 1008TIP3    H124515   5.100   1.635  13.790  0.8484 -1.0723 -1.4732
 1008TIP3    H224516   5.134   1.500  13.848  1.0252  0.1264  1.3981
 1009TIP3   OH224517   0.777   2.289  15.073 -0.4724 -0.0458  0.0462
 1009TIP3    H124518   0.823   2.212  15.106 -2.3250 -0.4821  1.8541
 1009TIP3    H224519   0.690   2.283  15.113 -1.9317  1.0087 -2.7418
 1010TIP3   OH224520   3.059   5.736   0.928  0.2039 -0.0516 -0.2244
 1010TIP3    H124521   3.136   5.713   0.875 -0.2845  1.8402 -1.8988
 1010TIP3    H224522   2.985   5.704   0.876 -0.2744  1.6223 -0.6369
 1011TIP3   OH224523   0.382   4.540  15.697  0.4034 -0.5261 -0.1775
 1011TIP3    H124524   0.449   4.584  15.749 -0.1667 -0.4433  0.4965
 1011TIP3    H224525   0.379   4.450  15.730  0.6053 -0.7011 -0.6224
 1012TIP3   OH224526   5.895   5.779  11.213  0.0727 -0.0646 -0.4215
 1012TIP3    H124527   5.882   5.845  11.281 -1.5635  0.3845 -1.1289
 1012TIP3    H224528   5.811   5.734  11.206  1.1449 -2.3236  0.0883
 1013TIP3   OH224529   1.125   4.375  16.579 -0.4134 -0.1378  0.3021
 1013TIP3    H124530   1.042   4.359  16.623 -0.6201  0.1505  0.0225
 1013TIP3    H224531   1.179   4.299  16.601 -0.4272  0.1096  1.2460
 1014TIP3   OH224532   3.283   3.531   1.510 -0.3825 -0.1053 -0.5171
 1014TIP3    H124533   3.275   3.527   1.415 -1.0980 -1.2387 -0.4154
 1014TIP3    H224534   3.261   3.444   1.541  4.0977 -1.2015  0.4076
 1015TIP3   OH224535   3.416   1.632  11.549  0.6207 -0.0573 -0.1115
 1015TIP3    H124536   3.370   1.715  11.560  1.5112  0.4831 -0.3317
 1015TIP3    H224537   3.432   1.601  11.638 -2.6127 -1.7069  0.0409
 1016TIP3   OH224538   1.492   3.979  10.426 -0.2486 -0.7299 -0.3686
 1016TIP3    H124539   1.539   4.054  10.461 -1.6407 -0.2417  0.5916
 1016TIP3    H224540   1.541   3.952  10.349  1.3889 -0.0823  0.3976
 1017TIP3   OH224541   3.194   1.903  13.686 -0.3968  0.2681  0.2132
 1017TIP3    H124542   3.216   1.902  13.780 -0.2052  2.3852  0.2345
 1017TIP3    H224543   3.100   1.920  13.684 -0.5713 -0.6670  0.0087
 1018TIP3   OH224544   5.447   4.285  11.631  0.2122  0.5993 -0.4724
 1018TIP3    H124545   5.402   4.211  11.590 -0.4694  0.0370  1.1958
 1018TIP3    H224546   5.468   4.344  11.558 -0.8776 -0.3658 -1.6173
 1019TIP3   OH224547   1.860   6.733   1.874  0.3419  0.4707  0.5098
 1019TIP3    H124548   1.868   6.677   1.952 -0.8192  0.5470  0.7031
 1019TIP3    H224549   1.766   6.736   1.856  0.5622  0.7212 -0.7116
 1020TIP3   OH224550   5.935   0.367  14.971 -0.5378  0.4418 -0.1894
 1020TIP3    H124551   5.950   0.403  15.058  0.4846  2.3505 -1.0907
 1020TIP3    H224552   5.840   0.355  14.966 -0.4525 -2.5544  2.1640
 1021TIP3   OH224553   2.416   3.595  15.937  0.4975  0.1955 -0.4854
 1021TIP3    H124554   2.464   3.665  15.980  1.2187 -0.2712 -0.4988
 1021TIP3    H224555   2.363   3.555  16.006  2.1522 -0.9816  0.1770
 1022TIP3   OH224556   4.542   2.784   3.560 -0.8200 -0.4156 -0.5301
 1022TIP3    H124557   4.476   2.820   3.619 -0.5830 -1.5633  0.4758
 1022TIP3    H224558   4.586   2.716   3.611  0.2857 -0.5492 -1.6033
 1023TIP3   OH224559   1.340   0.847  15.552  0.3036 -0.2381  0.0817
 1023TIP3    H124560   1.267   0.902  15.582  1.2777  1.1912 -0.0428
 1023TIP3    H224561   1.321   0.760  15.587 -1.6568 -0.0046 -0.2898
 1024TIP3   OH224562   0.561   2.485  11.463 -0.7376  1.1320  0.2624
 1024TIP3    H124563   0.584   2.554  11.402  1.3845 -1.0382 -1.5936
 1024TIP3    H224564   0.635   2.480  11.523  0.0463 -0.6114 -0.7538
 1025TIP3   OH224565   2.177   2.516   0.360  0.0213  0.0300 -0.8545
 1025TIP3    H124566   2.271   2.510   0.378  0.3287 -0.5544 -2.4391
 1025TIP3    H224567   2.166   2.470   0.277 -1.3493  1.8881 -1.7781
 1026TIP3   OH224568   3.361   1.574   5.912 -0.1993 -0.2432 -0.5877
 1026TIP3    H124569   3.399   1.502   5.962  0.0432  1.3568  1.6287
 1026TIP3    H224570   3.271   1.545   5.894  0.3664 -1.7487 -1.1628
 1027TIP3   OH224571   4.977   5.567   0.217  0.1629 -0.4185 -1.0995
 1027TIP3    H124572   4.962   5.622   0.295  0.1700 -0.6002 -0.9697
 1027TIP3    H224573   5.070   5.548   0.219  0.0035 -1.1887 -0.6400
 1028TIP3   OH224574   3.768   5.730  15.498 -0.5479  0.4503  0.0016
 1028TIP3    H124575   3.778   5.725  15.593 -1.5661 -1.1474  0.0490
 1028TIP3    H224576   3.838   5.790  15.471  0.2663  0.3303  1.6624
 1029TIP3   OH224577   4.847   0.974   3.881 -0.3499  0.2258  0.0740
 1029TIP3    H124578   4.832   0.882   3.861  0.0019 -0.0240  0.9222
 1029TIP3    H224579   4.918   1.000   3.822 -3.5157  1.3212 -3.7353
 1030TIP3   OH224580   5.925   0.667  11.678 -0.1683  0.4400  0.1966
 1030TIP3    H124581   5.864   0.675  11.751 -2.5501  0.0357 -1.6215
 1030TIP3    H224582   5.871   0.636  11.605  2.6074 -1.8336 -1.0687
 1031TIP3   OH224583   1.045   0.918   0.302 -0.0073  0.4749 -0.2434
 1031TIP3    H124584   1.025   0.904   0.395 -1.5009 -1.0962 -0.7570
 1031TIP3    H224585   1.099   0.844   0.278  0.0965  0.7036 -0.7183
 1032TIP3   OH224586   4.244   5.764  14.809  0.0197  0.2131  0.4905
 1032TIP3    H124587   4.211   5.820  14.880  0.5519  0.1903  0.7571
 1032TIP3    H224588   4.311   5.817  14.766 -1.0250  0.6439 -0.6745
 1033TIP3   OH224589   2.061   2.437   5.641  0.2906 -0.2003  0.1585
 1033TIP3    H124590   2.007   2.363   5.669  1.1481 -0.8785  0.0519
 1033TIP3    H224591   2.042   2.506   5.705  1.0036 -1.1877  1.4810
 1034TIP3   OH224592   2.065   5.701   3.783 -0.4813 -0.6611  0.0158
 1034TIP3    H124593   2.115   5.775   3.818 -2.4224 -0.0347  1.6571
 1034TIP3    H224594   2.000   5.741   3.725 -0.7496 -1.1948 -0.0558
 1035TIP3   OH224595   2.122   1.983   4.361 -0.0702  0.0711 -0.2618
 1035TIP3    H124596   2.108   1.898   4.402 -0.8910  0.1461 -0.3797
 1035TIP3    H224597   2.124   1.964   4.267 -0.1217  0.1685 -0.2821
 1036TIP3   OH224598   0.916   4.105  14.555  0.7388 -0.1185  0.1872
 1036TIP3    H124599   0.943   4.160  14.481 -0.5031  0.7775  0.3770
 1036TIP3    H224600   0.874   4.166  14.616  1.2346 -0.9426  1.3798
 1037TIP3   OH224601   1.337   2.833  11.074 -0.2149 -0.6757  0.0553
 1037TIP3    H124602   1.315   2.756  11.022 -1.7574  1.6101 -2.9629
 1037TIP3    H224603   1.425   2.857  11.045 -0.2022 -0.6351  0.1282
 1038TIP3   OH224604   2.311   2.980   2.794  0.6987 -0.2100  0.0444
 1038TIP3    H124605   2.237   3.028   2.757  1.8088  1.3994 -0.2115
 1038TIP3    H224606   2.302   2.991   2.889  0.4465 -0.2672  0.0268
 1039TIP3   OH224607   3.484   5.324  16.828  0.0006  0.3891  0.3239
 1039TIP3    H124608   3.437   5.261  16.774 -0.4181  1.2276 -0.3062
 1039TIP3    H224609   3.432   5.330  16.909 -0.1898  0.2479  0.2125
 1040TIP3   OH224610   3.862   2.987  14.716  0.4016  0.2826 -0.2209
 1040TIP3    H124611   3.887   3.009  14.806  0.2125 -0.2639 -0.0300
 1040TIP3    H224612   3.862   2.891  14.714 -0.0671  0.2856 -0.6684
 1041TIP3   OH224613   4.087   2.393   3.755  0.3295  0.3676 -0.2906
 1041TIP3    H124614   4.091   2.333   3.830 -0.5435  0.6659 -0.0061
 1041TIP3    H224615   4.010   2.366   3.706  0.2784  0.8764 -0.4986
 1042TIP3   OH224616   0.414   3.582   4.628 -0.1761 -0.0597 -0.5950
 1042TIP3    H124617   0.507   3.566   4.607 -0.1354 -1.1554  0.3196
 1042TIP3    H224618   0.368   3.506   4.592 -0.8251  0.8114 -1.6469
 1043TIP3   OH224619   1.993   6.695  16.538 -0.2957  0.2030  0.3722
 1043TIP3    H124620   2.016   6.706  16.446 -0.5872 -0.2639  0.2405
 1043TIP3    H224621   2.019   6.606  16.559  1.8506  0.9806  1.3668
 1044TIP3   OH224622   0.505   6.666  12.829  0.5170  0.1897  0.5663
 1044TIP3    H124623   0.415   6.654  12.799  0.7165 -1.8327  0.6449
 1044TIP3    H224624   0.516   6.761  12.836 -1.1038  0.5301 -0.9460
 1045TIP3   OH224625   3.331   3.430   3.943 -0.1198  0.1196  0.3741
 1045TIP3    H124626   3.425   3.447   3.943 -0.0887 -0.0509 -0.0519
 1045TIP3    H224627   3.304   3.441   3.852 -0.7553  1.4721  0.6843
 1046TIP3   OH224628   3.538   2.518   4.024 -0.1842 -0.2286  0.2228
 1046TIP3    H124629   3.475   2.589   4.036 -0.4700 -0.3433 -0.5418
 1046TIP3    H224630   3.505   2.447   4.079 -0.4818 -0.1300  0.1743
 1047TIP3   OH224631   3.790   1.765  11.531  0.4963  0.0608 -0.1648
 1047TIP3    H124632   3.854   1.698  11.509  0.8324  0.5610 -0.7362
 1047TIP3    H224633   3.756   1.795  11.446  0.8130  1.0547  0.0451
 1048TIP3   OH224634   0.351   3.595  12.512  0.2269 -0.4789 -0.5192
 1048TIP3    H124635   0.419   3.660  12.529 -1.2619  1.0752 -0.2301
 1048TIP3    H224636   0.293   3.638  12.449 -1.7785 -0.8006  1.0300
 1049TIP3   OH224637   4.242   2.879   5.444  0.2204 -0.2957 -0.6486
 1049TIP3    H124638   4.263   2.855   5.535  0.5158 -0.8199 -0.8511
 1049TIP3    H224639   4.186   2.809   5.413  0.5143 -0.3665 -1.0260
 1050TIP3   OH224640   1.477   3.809  12.360 -0.4608 -0.2426 -0.1314
 1050TIP3    H124641   1.520   3.844  12.438 -0.8567  0.5917 -0.2717
 1050TIP3    H224642   1.479   3.881  12.297 -1.7976 -0.2529 -0.2297
 1051TIP3   OH224643   1.911   5.773  12.908 -0.3704 -0.2734  0.5601
 1051TIP3    H124644   1.875   5.851  12.865 -0.3072 -0.0491  0.9127
 1051TIP3    H224645   2.000   5.798  12.932 -0.1713 -0.6334  0.2122
 1052TIP3   OH224646   3.435   0.678   4.882 -0.5122 -0.3785  0.3555
 1052TIP3    H124647   3.428   0.761   4.837 -0.6536 -1.4340 -1.6820
 1052TIP3    H224648   3.511   0.687   4.940  0.1625  0.7677 -0.6888
 1053TIP3   OH224649   5.329   5.763  12.240 -0.2109 -0.3285  0.3534
 1053TIP3    H124650   5.251   5.721  12.204 -0.0903  0.3924 -0.7835
 1053TIP3    H224651   5.394   5.758  12.170  0.3869  0.1603  0.8557
 1054TIP3   OH224652   2.958   0.029   3.649 -0.4796  0.9336 -0.1335
 1054TIP3    H124653   2.967   0.004   3.557  1.0857  2.9055 -0.5731
 1054TIP3    H224654   2.920   0.116   3.648 -0.8728  0.8087  1.1302
 1055TIP3   OH224655   2.253   3.956   6.342 -0.3640  0.0995 -0.0706
 1055TIP3    H124656   2.253   3.927   6.251 -0.3130 -0.2134  0.0286
 1055TIP3    H224657   2.162   3.947   6.370 -0.2156 -0.6602  0.1800
 1056TIP3   OH224658   5.847   4.470   2.590 -0.7130  0.2333  0.6396
 1056TIP3    H124659   5.880   4.382   2.607  0.8284  0.3660 -1.1913
 1056TIP3    H224660   5.915   4.510   2.535 -0.9090  2.9066  2.1931
 1057TIP3   OH224661   5.749   4.032  11.184 -0.4906 -0.1725  0.1672
 1057TIP3    H124662   5.749   4.005  11.092  0.1858 -0.7357  0.3311
 1057TIP3    H224663   5.748   3.950  11.233 -0.6845  0.1270  0.6710
 1058TIP3   OH224664   4.619   6.530  16.450 -0.3986 -0.1670 -0.1940
 1058TIP3    H124665   4.661   6.565  16.529 -0.6057  1.5632 -0.8050
 1058TIP3    H224666   4.551   6.595  16.430  0.1814 -0.1516 -2.2573
 1059TIP3   OH224667   3.751   1.941  15.676  0.4151 -0.1196  0.0137
 1059TIP3    H124668   3.756   1.998  15.599  1.4877  0.5344  0.5600
 1059TIP3    H224669   3.694   1.869  15.648  1.9021 -0.6255 -1.8738
 1060TIP3   OH224670   5.683   4.366  14.774  0.1313 -0.2045  0.3086
 1060TIP3    H124671   5.734   4.434  14.729 -1.6083  1.6408  0.9650
 1060TIP3    H224672   5.709   4.284  14.732 -0.1406  1.2123 -2.8631
 1061TIP3   OH224673   6.187   5.287   3.440 -0.5809 -0.4132  0.5365
 1061TIP3    H124674   6.121   5.354   3.422  0.0660  0.0777 -0.1086
 1061TIP3    H224675   6.231   5.317   3.519 -0.7220 -0.4259  0.6214
 1062TIP3   OH224676   6.519   3.894   4.478 -0.7161  0.9145  0.3818
 1062TIP3    H124677   6.612   3.914   4.483 -0.5636  0.4461 -0.3938
 1062TIP3    H224678   6.477   3.977   4.456 -0.3631  0.9135 -0.3095
 1063TIP3   OH224679   2.482   6.308  16.036 -0.0110 -0.4043 -0.4408
 1063TIP3    H124680   2.545   6.316  16.108 -1.4918  1.6941  0.7187
 1063TIP3    H224681   2.397   6.299  16.079 -0.9229  0.8564 -1.8764
 1064TIP3   OH224682   3.726   1.115  12.962 -0.4111  0.0703  0.4581
 1064TIP3    H124683   3.804   1.113  12.906 -1.1931 -0.7274 -0.6325
 1064TIP3    H224684   3.657   1.151  12.907 -1.1338 -0.4703  0.9884
 1065TIP3   OH224685   2.741   3.210   2.974 -0.6811  0.1994 -0.0386
 1065TIP3    H124686   2.693   3.196   2.893 -1.4342 -0.4069  0.5024
 1065TIP3    H224687   2.786   3.294   2.961 -2.9503  1.4983 -0.0746
 1066TIP3   OH224688   4.289   4.883  17.082 -0.4365  0.3144 -0.0930
 1066TIP3    H124689   4.315   4.891  16.991 -0.1680 -1.0027 -0.1495
 1066TIP3    H224690   4.322   4.798  17.110 -1.9938 -0.0613  0.7395
 1067TIP3   OH224691   2.162   4.970  12.909  0.0917  0.0891 -0.1092
 1067TIP3    H124692   2.191   4.925  12.988 -1.7622 -0.0071  0.5614
 1067TIP3    H224693   2.166   5.063  12.933  1.0534  0.1585 -0.4777
 1068TIP3   OH224694   3.049   1.350  16.041 -0.3271 -0.0935  0.1289
 1068TIP3    H124695   3.070   1.344  15.948 -2.5272 -1.9076 -0.3480
 1068TIP3    H224696   3.075   1.265  16.077  0.5578  0.6076  1.2355
 1069TIP3   OH224697   0.802   2.407   1.673 -0.1158  0.0505  0.3885
 1069TIP3    H124698   0.759   2.415   1.587  0.5213  1.1940  0.1605
 1069TIP3    H224699   0.828   2.315   1.678 -0.6504 -0.1574 -0.4077
 1070TIP3   OH224700   0.280   2.482  16.289  0.5295 -0.7574 -0.1302
 1070TIP3    H124701   0.253   2.508  16.377  1.0258  0.3615 -0.2913
 1070TIP3    H224702   0.217   2.415  16.263  0.2269 -0.9105  0.9749
 1071TIP3   OH224703   2.498   3.705  17.033  0.4812  0.0140 -0.5514
 1071TIP3    H124704   2.448   3.769  17.084  0.3281 -0.8172  0.3880
 1071TIP3    H224705   2.518   3.636  17.096 -1.9705 -2.3582 -2.1764
 1072TIP3   OH224706   1.993   5.616   2.851 -0.3160  0.0606 -0.1328
 1072TIP3    H124707   2.042   5.675   2.908 -0.5501 -0.7671  0.9751
 1072TIP3    H224708   1.908   5.658   2.839 -0.3039  0.1924  0.2338
 1073TIP3   OH224709   2.303   0.538   5.133  0.0031 -0.3466  0.1927
 1073TIP3    H124710   2.330   0.557   5.043 -0.3344  0.2173  0.2057
 1073TIP3    H224711   2.208   0.555   5.134 -0.4090 -2.3668  0.1234
 1074TIP3   OH224712   0.348   2.793  16.074  0.4554 -0.1401 -0.1923
 1074TIP3    H124713   0.417   2.740  16.035  2.9010  2.6803 -0.1135
 1074TIP3    H224714   0.345   2.872  16.020  1.1909  2.1702  2.8298
 1075TIP3   OH224715   4.541   4.062  12.196 -0.6894 -0.1629 -0.3051
 1075TIP3    H124716   4.619   4.106  12.232 -1.1454  0.2003  0.2662
 1075TIP3    H224717   4.576   3.998  12.134  0.0074  0.8123 -0.9510
 1076TIP3   OH224718   2.343   5.109   3.062  0.5041  0.1268 -0.0147
 1076TIP3    H124719   2.425   5.085   3.017  0.8062  1.0598  0.0323
 1076TIP3    H224720   2.367   5.183   3.117 -0.8702  1.9351 -1.7421
 1077TIP3   OH224721   1.926   0.689   3.000  0.1779  0.2739 -0.1231
 1077TIP3    H124722   1.888   0.774   3.025  4.1150  2.0550  0.6170
 1077TIP3    H224723   1.957   0.652   3.082  2.3668  0.2992 -0.8719
 1078TIP3   OH224724   4.988   2.077   0.810 -0.3752  0.4314 -0.2658
 1078TIP3    H124725   4.998   1.990   0.772 -2.1978 -0.4849  1.1931
 1078TIP3    H224726   5.040   2.074   0.890 -0.4377  0.6949 -0.2148
 1079TIP3   OH224727   1.893   1.612   3.759 -0.5589 -0.6715 -0.0384
 1079TIP3    H124728   1.949   1.540   3.730  0.9136 -0.2046  1.4999
 1079TIP3    H224729   1.806   1.574   3.766  0.0767 -2.1402  0.1683
 1080TIP3   OH224730   1.789   4.817  16.272 -0.1270 -0.0904 -0.3173
 1080TIP3    H124731   1.806   4.810  16.366 -1.0395  1.7508  0.0409
 1080TIP3    H224732   1.867   4.781  16.230 -0.0859 -1.7832  1.1261
 1081TIP3   OH224733   4.654   1.408   1.355 -0.1497  0.5554  0.2593
 1081TIP3    H124734   4.570   1.363   1.362 -0.1786  0.1599 -1.9928
 1081TIP3    H224735   4.631   1.500   1.345 -0.2659  0.5696  0.6441
 1082TIP3   OH224736   3.561   3.604   4.315  0.2010 -0.3469 -0.6225
 1082TIP3    H124737   3.583   3.609   4.408 -0.1732  2.1505 -0.5844
 1082TIP3    H224738   3.560   3.510   4.295  1.4774 -0.9041  1.5799
 1083TIP3   OH224739   1.895   5.890   5.977  0.3311 -0.5185 -0.2836
 1083TIP3    H124740   1.928   5.812   6.022 -0.2847 -0.5570  0.1239
 1083TIP3    H224741   1.970   5.923   5.927  1.2469 -0.0741  1.3229
 1084TIP3   OH224742   2.582   5.028   5.004  0.2967  0.0654 -0.0684
 1084TIP3    H124743   2.574   4.941   4.967  1.2385  0.1021 -0.3830
 1084TIP3    H224744   2.658   5.066   4.961 -0.9118  1.5842 -1.0040
 1085TIP3   OH224745   0.619   0.565  14.613 -0.0594 -0.0158 -0.4284
 1085TIP3    H124746   0.709   0.531  14.608 -0.3805 -1.0312  0.4509
 1085TIP3    H224747   0.565   0.496  14.575 -0.5685  0.1200  0.0366
 1086TIP3   OH224748   6.005   0.475   4.089 -0.0335 -0.1632 -0.3177
 1086TIP3    H124749   6.096   0.465   4.060  0.1275  1.0548 -0.2606
 1086TIP3    H224750   5.954   0.468   4.008 -0.0512 -2.4281 -0.1759
 1087TIP3   OH224751   5.395   1.116  12.273 -0.3367 -0.0520  0.1469
 1087TIP3    H124752   5.397   1.211  12.271  0.9193 -0.0833 -0.4094
 1087TIP3    H224753   5.326   1.095  12.337 -0.8335  1.2105  0.0462
 1088TIP3   OH224754   3.043   3.271  12.410 -0.1429 -0.0532 -0.4516
 1088TIP3    H124755   3.129   3.282  12.452  0.7078 -2.6218 -1.3545
 1088TIP3    H224756   3.064   3.241  12.322 -1.9758 -1.7691 -0.3464
 1089TIP3   OH224757   0.642   3.544   6.515 -0.6349 -0.1839  0.1358
 1089TIP3    H124758   0.629   3.638   6.506 -0.2510 -0.2342 -1.1272
 1089TIP3    H224759   0.725   3.527   6.469 -0.3631 -1.0455  0.9196
 1090TIP3   OH224760   4.048   4.446   0.871 -0.0454  0.1167 -0.0342
 1090TIP3    H124761   4.016   4.450   0.781  1.6195  2.4002 -0.6386
 1090TIP3    H224762   3.981   4.399   0.919 -1.6519  0.0547 -2.2136
 1091TIP3   OH224763   5.584   4.250  13.680  0.0565  0.0775  0.0020
 1091TIP3    H124764   5.597   4.340  13.708  0.9433  0.3384 -1.1913
 1091TIP3    H224765   5.659   4.202  13.715 -0.4076 -0.2063  0.6261
 1092TIP3   OH224766   5.013   0.879   0.916  0.7035  0.4303 -0.5825
 1092TIP3    H124767   5.003   0.784   0.928  2.1822  0.2544 -0.5889
 1092TIP3    H224768   5.059   0.908   0.994  2.2288  0.7694 -1.5703
 1093TIP3   OH224769   1.793   4.333   0.496  0.4492 -0.0057 -0.5123
 1093TIP3    H124770   1.809   4.403   0.433  0.4512  0.7985  0.3607
 1093TIP3    H224771   1.879   4.295   0.512  0.7272  0.9033  0.2600
 1094TIP3   OH224772   0.514   0.007   4.682  0.1854 -0.2737 -0.0540
 1094TIP3    H124773   0.509   0.037   4.591 -0.0359  1.3717  0.4590
 1094TIP3    H224774   0.561  -0.076   4.677  1.1261  0.2894 -1.5807
 1095TIP3   OH224775   5.956   4.676   0.657 -0.1687 -0.1590 -0.1536
 1095TIP3    H124776   5.998   4.674   0.571  1.0386  0.1300  0.4104
 1095TIP3    H224777   5.908   4.593   0.661 -2.4953  0.9424 -2.1479
 1096TIP3   OH224778   5.606   0.058   0.836  0.1019  0.1682 -0.5382
 1096TIP3    H124779   5.526   0.015   0.867  1.0908 -2.2236 -1.0634
 1096TIP3    H224780   5.665   0.055   0.911  0.7345 -0.9446 -1.0564
 1097TIP3   OH224781   5.727   1.800  11.318 -0.0704  0.1936 -0.2925
 1097TIP3    H124782   5.668   1.811  11.244 -1.9853  0.5052  1.2080
 1097TIP3    H224783   5.744   1.705  11.321 -1.5764 -0.0924  0.0145
 1098TIP3   OH224784   4.623   2.304   5.326 -0.0316 -0.5768  0.0562
 1098TIP3    H124785   4.663   2.380   5.285  0.5163 -0.3735  0.9464
 1098TIP3    H224786   4.697   2.253   5.359 -0.4329 -1.0702  0.1996
 1099TIP3   OH224787   0.270   3.099   1.178 -0.1504 -0.4035 -0.2341
 1099TIP3    H124788   0.329   3.064   1.112 -1.9484 -1.5331 -1.3370
 1099TIP3    H224789   0.301   3.062   1.261 -0.1574 -2.1871 -0.9854
 1100TIP3   OH224790   3.020   4.320  14.513 -0.1402 -0.6228 -0.2221
 1100TIP3    H124791   2.928   4.319  14.487 -0.4156 -1.0555  0.6905
 1100TIP3    H224792   3.017   4.320  14.609  0.8129  0.4770 -0.1811
 1101TIP3   OH224793   3.729   5.535   4.780 -0.6868 -0.2182  0.6101
 1101TIP3    H124794   3.773   5.548   4.696 -0.6205  2.8581  0.9935
 1101TIP3    H224795   3.675   5.457   4.768  0.1913 -0.5072 -1.9002
 1102TIP3   OH224796   0.026   2.947   4.094 -0.1718 -0.0720 -0.3923
 1102TIP3    H124797   0.000   2.899   4.015 -1.2908  0.4053 -0.3404
 1102TIP3    H224798  -0.035   3.021   4.098  2.0400  1.8623 -0.9266
 1103TIP3   OH224799   0.232   3.311  15.568 -0.3750  0.0748  0.4142
 1103TIP3    H124800   0.220   3.243  15.501  0.0959 -0.1788  0.5799
 1103TIP3    H224801   0.145   3.322  15.607 -0.4808 -0.3554  0.3087
 1104TIP3   OH224802   0.743   0.935   1.592 -0.0565 -0.0741  0.0822
 1104TIP3    H124803   0.767   0.844   1.611 -1.4959 -0.6334 -0.6810
 1104TIP3    H224804   0.667   0.952   1.648  0.9129  1.0831  1.1170
 1105TIP3   OH224805   2.855   3.545   5.470 -0.3072 -0.2503  0.0505
 1105TIP3    H124806   2.850   3.635   5.501  0.3998 -0.3580  0.4998
 1105TIP3    H224807   2.794   3.496   5.525  1.1529 -0.4990  1.5291
 1106TIP3   OH224808   5.965   6.757  16.085 -0.4534  0.1125 -0.4274
 1106TIP3    H124809   5.977   6.794  16.173  0.8778  0.2896 -0.6549
 1106TIP3    H224810   6.033   6.691  16.078 -0.1353  0.5440 -1.5511
 1107TIP3   OH224811   4.371   0.057   4.912 -0.2334  0.1383 -0.0419
 1107TIP3    H124812   4.399   0.098   4.994  0.2264 -1.5858  0.7284
 1107TIP3    H224813   4.448   0.008   4.883 -0.4348  0.6229 -1.4629
 1108TIP3   OH224814   5.541   4.198  16.194 -0.2237  0.2850  0.3142
 1108TIP3    H124815   5.475   4.150  16.244 -0.0381 -1.0770 -0.7104
 1108TIP3    H224816   5.564   4.141  16.121  2.1460  0.6739  0.6541
 1109TIP3   OH224817   0.587   1.098   2.926 -0.5823  0.3167 -0.0995
 1109TIP3    H124818   0.525   1.148   2.979 -1.1034 -0.3763 -0.0325
 1109TIP3    H224819   0.534   1.026   2.890  0.1532 -0.2147 -0.1386
 1110TIP3   OH224820   0.942   2.241  15.662  0.2461 -0.5250  0.0547
 1110TIP3    H124821   0.963   2.247  15.569  0.0166  0.7597  0.0640
 1110TIP3    H224822   0.937   2.147  15.680 -0.4431 -0.7945 -1.3991
 1111TIP3   OH224823   0.931   6.516   2.876 -0.2374 -0.3070 -0.2108
 1111TIP3    H124824   0.931   6.609   2.898  0.6996 -0.4795  0.5429
 1111TIP3    H224825   1.015   6.502   2.831 -0.5175 -0.7295 -0.6136
 1112TIP3   OH224826   0.783   4.987   2.864  0.3942  0.3585  0.2057
 1112TIP3    H124827   0.811   4.972   2.773 -0.1102  0.3004  0.0591
 1112TIP3    H224828   0.774   4.899   2.901 -0.5439  0.3361 -0.0422
 1113TIP3   OH224829   1.657   5.672  16.828  0.1475 -0.1820 -0.3995
 1113TIP3    H124830   1.652   5.583  16.793  0.1001 -0.6576  0.7778
 1113TIP3    H224831   1.697   5.724  16.757  0.6266 -1.2325 -0.9158
 1114TIP3   OH224832   2.352   1.410   4.861 -0.1254  0.4986  0.1366
 1114TIP3    H124833   2.390   1.459   4.789 -0.2564  1.6301  0.8130
 1114TIP3    H224834   2.410   1.335   4.872  1.3651  1.6517  0.4981
 1115TIP3   OH224835   1.242   5.626  12.313  0.2786 -0.0099  0.4275
 1115TIP3    H124836   1.260   5.535  12.336  2.6901  0.2573 -0.1182
 1115TIP3    H224837   1.245   5.628  12.218  2.1049  0.9074  0.4557
 1116TIP3   OH224838   2.639   6.107   6.511 -0.1025  0.5403  0.0833
 1116TIP3    H124839   2.649   6.196   6.544  0.5113  0.5547 -0.1407
 1116TIP3    H224840   2.719   6.090   6.463 -0.4150  0.0282 -0.2615
 1117TIP3   OH224841   5.481   3.784   5.785 -0.7955  0.3264  0.4107
 1117TIP3    H124842   5.438   3.864   5.753 -1.5989  0.0781  0.8420
 1117TIP3    H224843   5.505   3.804   5.875  1.4040  0.9990 -0.2583
 1118TIP3   OH224844   2.002   0.897   5.494  0.2230 -0.9078 -0.1199
 1118TIP3    H124845   2.084   0.930   5.456  0.9010 -0.0633  1.9499
 1118TIP3    H224846   1.998   0.937   5.581 -0.4903 -3.8584  1.3263
 1119TIP3   OH224847   1.451   0.742   1.564 -0.3604 -0.4930 -0.4829
 1119TIP3    H124848   1.465   0.772   1.653  1.7021 -0.7931 -0.6528
 1119TIP3    H224849   1.370   0.784   1.537 -1.2277 -0.6885  1.6346
 1120TIP3   OH224850   1.563   1.545   4.818  0.2915 -0.6133  0.6798
 1120TIP3    H124851   1.577   1.621   4.761  1.5194 -0.6006  0.9836
 1120TIP3    H224852   1.471   1.523   4.805 -0.3525  1.4815  1.2505
 1121TIP3   OH224853   4.711   1.732  15.533  0.1550  0.0989 -0.7317
 1121TIP3    H124854   4.721   1.711  15.626  1.0596  0.8604 -0.6402
 1121TIP3    H224855   4.678   1.652  15.494 -1.0076  0.0010  0.3716
 1122TIP3   OH224856   5.672   3.261  10.944 -0.0695 -0.0694  0.4491
 1122TIP3    H124857   5.727   3.232  11.017 -1.3040 -0.7227  1.1602
 1122TIP3    H224858   5.633   3.180  10.910 -4.0598  0.6099  2.8430
 1123TIP3   OH224859   1.595   0.184  11.655 -0.2803  0.3928  0.0513
 1123TIP3    H124860   1.642   0.200  11.737  1.4700  1.3384 -1.0814
 1123TIP3    H224861   1.657   0.208  11.587 -0.9161 -2.3871 -1.6500
 1124TIP3   OH224862   5.640   3.541  13.603  0.4859 -0.3146 -0.0850
 1124TIP3    H124863   5.585   3.525  13.679  2.4497 -1.9478  1.0894
 1124TIP3    H224864   5.617   3.471  13.542 -1.1478  1.0422 -1.1187
 1125TIP3   OH224865   1.915   2.804  15.447  0.0529 -0.6732  0.8609
 1125TIP3    H124866   1.840   2.756  15.481 -0.0424 -1.0661  0.1180
 1125TIP3    H224867   1.973   2.736  15.411 -0.7757 -0.1791 -1.5816
 1126TIP3   OH224868   1.753   1.480  16.487  0.4472 -0.2321  0.1443
 1126TIP3    H124869   1.694   1.419  16.443 -0.5438  1.4764 -1.0174
 1126TIP3    H224870   1.771   1.440  16.572 -2.2991 -0.8873  0.4871
 1127TIP3   OH224871   5.835   2.383   4.863  0.0141  0.7946  0.3481
 1127TIP3    H124872   5.912   2.440   4.868  0.3532  0.4879 -0.8713
 1127TIP3    H224873   5.775   2.428   4.804 -2.0086  2.3781  3.3695
 1128TIP3   OH224874   2.351   5.076   1.235 -0.1521 -0.1378 -0.6165
 1128TIP3    H124875   2.293   5.083   1.159  1.2211 -0.0744 -1.6950
 1128TIP3    H224876   2.346   4.983   1.260 -3.3286  0.4309  1.5178
 1129TIP3   OH224877   4.380   5.131   2.549  0.2853  0.2060 -0.2699
 1129TIP3    H124878   4.332   5.159   2.627  1.9081  1.1884  0.4327
 1129TIP3    H224879   4.317   5.139   2.477 -0.4195  2.1251  0.5017
 1130TIP3   OH224880   5.462   0.256   3.269  0.1675  0.2967  0.2135
 1130TIP3    H124881   5.458   0.315   3.344  2.7820  0.5732  0.2260
 1130TIP3    H224882   5.429   0.309   3.196 -0.7128  0.6107  0.8193
 1131TIP3   OH224883   5.580   0.269  15.448  0.3940 -0.3090  0.4697
 1131TIP3    H124884   5.650   0.328  15.476 -0.2563  0.3474  0.7017
 1131TIP3    H224885   5.585   0.270  15.352 -0.5769  1.2855  0.4201
 1132TIP3   OH224886   1.589   1.807  11.760 -0.0137 -0.0997 -0.2231
 1132TIP3    H124887   1.576   1.713  11.763  0.3558 -0.1419  0.2738
 1132TIP3    H224888   1.633   1.823  11.676  0.1028 -0.3943 -0.2202
 1133TIP3   OH224889   0.674   3.585   2.440 -0.7087  0.1473  0.0562
 1133TIP3    H124890   0.582   3.562   2.430 -0.8281  0.0201  1.3301
 1133TIP3    H224891   0.685   3.602   2.533  0.2295  1.6098 -0.2880
 1134TIP3   OH224892   0.621   5.821   1.281 -0.1139 -0.0565 -0.4598
 1134TIP3    H124893   0.673   5.869   1.217  0.4958  1.3527  1.0296
 1134TIP3    H224894   0.539   5.869   1.287 -0.4383 -0.5764 -0.6682
 1135TIP3   OH224895   6.396   0.912  15.742  0.5107  0.2187 -0.1221
 1135TIP3    H124896   6.444   0.859  15.806 -3.6657 -2.3864  1.2620
 1135TIP3    H224897   6.408   1.002  15.771  0.3175 -0.7132  3.3326
 1136TIP3   OH224898   2.086   1.701   3.947  0.0571 -0.0875 -0.0791
 1136TIP3    H124899   2.071   1.700   4.042 -0.5828  0.2134 -0.1709
 1136TIP3    H224900   1.998   1.702   3.909  0.3096  0.2947 -0.6693
 1137TIP3   OH224901   0.026   5.312   0.714 -0.2414  0.0969 -0.1628
 1137TIP3    H124902  -0.065   5.287   0.697  0.5432 -2.5944 -0.8238
 1137TIP3    H224903   0.022   5.361   0.796 -2.1870 -0.7406  0.3099
 1138TIP3   OH224904   4.707   2.850   2.681 -0.0109 -0.0369  0.4658
 1138TIP3    H124905   4.748   2.793   2.615 -2.1934 -1.3195  0.1396
 1138TIP3    H224906   4.763   2.841   2.758  0.7454 -1.1417 -0.1826
 1139TIP3   OH224907   5.110   2.831   0.370  0.2677 -0.3427 -0.4775
 1139TIP3    H124908   5.037   2.892   0.360  0.5315 -0.1044 -0.9913
 1139TIP3    H224909   5.159   2.839   0.289  0.1018 -1.5165 -0.7194
 1140TIP3   OH224910   5.197   2.061  13.749  0.7113  0.3487  0.1556
 1140TIP3    H124911   5.290   2.083  13.750  0.7237  0.3080  0.0029
 1140TIP3    H224912   5.162   2.109  13.674  0.5908  0.4370  0.2686
 1141TIP3   OH224913   4.492   5.517   5.516 -0.4421  0.8848  0.1086
 1141TIP3    H124914   4.540   5.487   5.594  0.6636 -2.1712 -1.5664
 1141TIP3    H224915   4.439   5.442   5.491 -0.0814  1.4347 -2.5736
 1142TIP3   OH224916   3.299   5.279   3.455  0.0137  0.2733 -0.2005
 1142TIP3    H124917   3.208   5.250   3.453  0.0314  0.0492  1.0666
 1142TIP3    H224918   3.296   5.365   3.498  0.4751 -0.1512  0.7247
 1143TIP3   OH224919   5.640   6.754  12.993  0.2941 -0.0415 -0.2289
 1143TIP3    H124920   5.654   6.663  12.966  0.8709  0.1532 -0.5871
 1143TIP3    H224921   5.724   6.781  13.030  0.3707  0.6036 -0.8620
 1144TIP3   OH224922   5.744   6.414   2.839 -0.3250  0.3357  0.4851
 1144TIP3    H124923   5.671   6.471   2.813  0.0490  0.5045 -0.2286
 1144TIP3    H224924   5.809   6.474   2.875 -1.0732  0.0445  2.4140
 1145TIP3   OH224925   5.230   1.950  16.042  0.0584 -0.1696  0.1508
 1145TIP3    H124926   5.172   1.952  16.118 -0.6539  1.4798 -0.3646
 1145TIP3    H224927   5.220   2.037  16.003 -0.5538 -1.3254 -2.5211
 1146TIP3   OH224928   6.196   3.631  11.853  0.4306  0.1473 -0.7495
 1146TIP3    H124929   6.102   3.613  11.860  0.0616  1.4027 -1.9835
 1146TIP3    H224930   6.220   3.597  11.767  1.5319 -1.6944  0.2115
 1147TIP3   OH224931   5.051   2.039  15.780 -0.6092  0.2492 -0.2309
 1147TIP3    H124932   5.002   2.106  15.828 -1.3899 -0.6007  0.1902
 1147TIP3    H224933   5.105   2.089  15.718  0.2703  1.3584  1.3626
 1148TIP3   OH224934   2.007   6.290  13.158 -0.1943 -0.2542  0.1509
 1148TIP3    H124935   1.991   6.346  13.233  0.2203  1.1406 -0.7706
 1148TIP3    H224936   2.096   6.311  13.131  0.0168 -1.4497 -0.1652
 1149TIP3   OH224937   1.544   6.476   5.940  0.5563 -0.5779 -0.8890
 1149TIP3    H124938   1.511   6.514   5.859 -0.1019 -0.9136 -0.7865
 1149TIP3    H224939   1.540   6.548   6.003 -0.6084 -0.7647 -0.7185
 1150TIP3   OH224940   1.256   4.453  16.113  0.2945  0.3320  0.5382
 1150TIP3    H124941   1.342   4.489  16.136  0.6709 -0.4236  0.3465
 1150TIP3    H224942   1.222   4.512  16.047  2.4229 -1.4831 -2.4535
 1151TIP3   OH224943   6.776   4.409  17.051  0.4302  0.0309  0.1307
 1151TIP3    H124944   6.852   4.464  17.029  1.7694 -1.2653  1.3213
 1151TIP3    H224945   6.777   4.404  17.146  0.5001 -2.2307  0.0499
 1152TIP3   OH224946   6.036   1.424   3.998 -0.1697  0.1131 -0.0822
 1152TIP3    H124947   6.064   1.515   4.007  1.9170 -0.5062  0.2446
 1152TIP3    H224948   6.112   1.372   4.027 -1.8341 -1.7356  1.3207
 1153TIP3   OH224949   5.476   4.494   3.435  0.2351 -0.2176  0.5708
 1153TIP3    H124950   5.487   4.576   3.483  0.4250  0.3585 -0.4384
 1153TIP3    H224951   5.494   4.426   3.500 -0.2777  0.5207  1.5128
 1154TIP3   OH224952   4.895   2.148  15.246  0.5724 -0.3062 -0.7180
 1154TIP3    H124953   4.955   2.118  15.315  0.8695 -2.9662 -1.9961
 1154TIP3    H224954   4.859   2.067  15.209 -0.3731  1.0663 -2.9838
 1155TIP3   OH224955   6.356   1.541   2.775  0.1688 -0.1897  0.1476
 1155TIP3    H124956   6.367   1.484   2.851  1.0347  1.2329  1.1369
 1155TIP3    H224957   6.435   1.528   2.723  0.0072 -0.4585 -0.0348
 1156TIP3   OH224958   4.732   2.584  12.805  0.3200 -0.4535  0.4529
 1156TIP3    H124959   4.810   2.563  12.754  0.5316  3.1541 -0.9882
 1156TIP3    H224960   4.764   2.635  12.879 -0.6064  0.6391  0.1169
 1157TIP3   OH224961   5.324   1.873  15.249  0.3282  0.0087 -0.3173
 1157TIP3    H124962   5.340   1.951  15.302  0.3718  0.4391 -0.9510
 1157TIP3    H224963   5.241   1.890  15.204 -1.1703 -1.5119  1.6826
 1158TIP3   OH224964   3.147   0.865  15.467 -0.3463 -0.2598  0.3795
 1158TIP3    H124965   3.125   0.911  15.386  2.0077 -0.2578 -0.3302
 1158TIP3    H224966   3.123   0.774  15.450 -0.2466 -0.1883 -0.1609
 1159TIP3   OH224967   5.786   5.867   5.172 -0.5027  0.0637  0.0024
 1159TIP3    H124968   5.742   5.788   5.139  0.1681  0.0995 -0.9996
 1159TIP3    H224969   5.875   5.839   5.192 -0.3321  0.5143 -0.1206
 1160TIP3   OH224970   3.490   2.353  15.144 -0.6383  0.5202  0.0260
 1160TIP3    H124971   3.548   2.295  15.193  0.1158  0.4553 -0.8970
 1160TIP3    H224972   3.496   2.438  15.188 -0.1168  0.4186  0.1559
 1161TIP3   OH224973   4.414   3.067  16.488  1.0019 -0.0103 -0.6959
 1161TIP3    H124974   4.466   3.034  16.561  0.1512 -0.1254 -0.1233
 1161TIP3    H224975   4.477   3.078  16.417  1.9847  0.8241  0.2631
 1162TIP3   OH224976   3.886   5.420  12.467  0.5841  0.3603  0.0680
 1162TIP3    H124977   3.821   5.458  12.409  0.9528 -1.5143 -1.7179
 1162TIP3    H224978   3.963   5.476  12.457 -0.5399  2.3908  1.9351
 1163TIP3   OH224979   5.425   3.552  15.286  0.1304 -0.4284  0.2271
 1163TIP3    H124980   5.367   3.563  15.361  0.2802 -1.1005  0.4497
 1163TIP3    H224981   5.371   3.509  15.220  0.5052 -1.5638  0.6318
 1164TIP3   OH224982   1.563   3.167  10.742 -0.2046  0.4827 -0.1402
 1164TIP3    H124983   1.630   3.191  10.678 -0.1710  0.4137 -0.1307
 1164TIP3    H224984   1.483   3.159  10.690 -0.5870  2.2618  0.0934
 1165TIP3   OH224985   5.290   5.520  13.874  0.0566 -1.0609 -0.2424
 1165TIP3    H124986   5.304   5.479  13.789 -1.3830 -2.4097  0.1324
 1165TIP3    H224987   5.211   5.572  13.864  1.3887  1.0793 -0.4623
 1166TIP3   OH224988   0.722   2.469  16.488 -0.1332 -0.1480 -0.7135
 1166TIP3    H124989   0.755   2.519  16.412  1.5443  1.0322  0.6965
 1166TIP3    H224990   0.797   2.415  16.514  0.0393  0.9560  1.2638
 1167TIP3   OH224991   6.505   0.084   5.960  0.0034 -0.6421  0.6368
 1167TIP3    H124992   6.413   0.109   5.965 -0.0294 -0.8952  1.5091
 1167TIP3    H224993   6.509   0.020   5.889 -0.2005  0.5506 -0.4911
 1168TIP3   OH224994   2.426   1.305  12.172 -0.0273  0.1029  0.5066
 1168TIP3    H124995   2.399   1.382  12.222 -2.5002 -1.0103  1.0780
 1168TIP3    H224996   2.403   1.326  12.082  0.5130  0.5267  0.4671
 1169TIP3   OH224997   4.378   1.085  13.650  0.4819 -0.2783 -0.3497
 1169TIP3    H124998   4.347   1.006  13.693 -1.4886  1.1367  0.9927
 1169TIP3    H224999   4.437   1.125  13.713 -2.3212  1.7395  1.2061
 1170TIP3   OH225000   4.508   3.991  10.762  0.6598  0.5514 -0.6523
 1170TIP3    H125001   4.431   4.045  10.782  0.2943  0.4728 -1.7818
 1170TIP3    H225002   4.575   4.053  10.733  1.4643  0.7553  1.4649
 1171TIP3   OH225003   4.852   2.633   0.268 -0.1578  0.0683  0.2374
 1171TIP3    H125004   4.824   2.692   0.338  2.8874  2.4719 -0.3562
 1171TIP3    H225005   4.924   2.583   0.305  0.1361 -0.1038 -0.5353
 1172TIP3   OH225006   1.785   1.671  13.424 -0.8859  0.5596 -0.5842
 1172TIP3    H125007   1.779   1.583  13.386  0.1234  0.0345  0.4191
 1172TIP3    H225008   1.782   1.656  13.519  2.3408  1.2497 -0.2392
 1173TIP3   OH225009   5.101   4.813  14.659 -0.2312  0.6676 -0.1181
 1173TIP3    H125010   5.123   4.740  14.602  0.7757 -0.1573  1.2779
 1173TIP3    H225011   5.007   4.804  14.675 -0.7387  1.4748 -2.3610
 1174TIP3   OH225012   3.375   1.479   4.150  0.4380  0.2007  0.5350
 1174TIP3    H125013   3.331   1.444   4.072  1.3748 -0.1514  0.1556
 1174TIP3    H225014   3.375   1.406   4.212 -0.8358  0.6587  1.1074
 1175TIP3   OH225015   5.835   5.675   6.182 -0.1207  0.3123 -0.1884
 1175TIP3    H125016   5.928   5.699   6.191  0.2524 -0.5877 -1.4060
 1175TIP3    H225017   5.801   5.680   6.272  0.9428  1.2370  0.2053
 1176TIP3   OH225018   4.085   5.955   3.001  0.0081 -0.4397  0.0923
 1176TIP3    H125019   4.035   6.027   2.962  0.9691  0.2130  0.0243
 1176TIP3    H225020   4.033   5.877   2.983 -0.9417  0.2047 -0.0372
 1177TIP3   OH225021   5.216   5.019   3.415 -0.2090 -0.4345  0.3220
 1177TIP3    H125022   5.238   4.954   3.482  1.9742  2.1218  2.2623
 1177TIP3    H225023   5.283   5.008   3.348 -0.0896 -0.4355  0.4421
 1178TIP3   OH225024   5.670   3.630  10.682 -0.6214 -0.0796 -0.5988
 1178TIP3    H125025   5.615   3.623  10.603 -0.6421 -1.3980 -0.5004
 1178TIP3    H225026   5.757   3.651  10.649 -1.0545  1.5142 -0.7962
 1179TIP3   OH225027   2.412   4.813   5.233 -0.4290 -0.0337 -0.0881
 1179TIP3    H125028   2.382   4.873   5.301 -1.6043  0.1463 -0.7290
 1179TIP3    H225029   2.375   4.728   5.257 -0.7975  0.0174 -0.4564
 1180TIP3   OH225030   4.425   0.266   0.602  0.1110 -0.1568 -0.1367
 1180TIP3    H125031   4.356   0.278   0.536  1.8001  2.5413 -1.6100
 1180TIP3    H225032   4.420   0.173   0.625 -4.1729 -0.0617  0.1589
 1181TIP3   OH225033   2.698   4.759   1.498  0.4677  0.8084 -0.4480
 1181TIP3    H125034   2.709   4.775   1.591  2.5379  1.7973 -0.8004
 1181TIP3    H225035   2.722   4.667   1.486 -2.0734 -0.0187  0.2556
 1182TIP3   OH225036   3.437   2.345  16.542  0.2343  0.0686 -0.3966
 1182TIP3    H125037   3.442   2.313  16.451  1.8703 -1.0666  0.0423
 1182TIP3    H225038   3.360   2.402  16.543 -0.4061 -0.6723 -2.2511
 1183TIP3   OH225039   1.419   2.365   1.459 -0.0171 -0.3579 -0.1976
 1183TIP3    H125040   1.351   2.392   1.397  1.0931  3.1224 -0.1210
 1183TIP3    H225041   1.372   2.355   1.542 -0.7459  0.0131 -0.5513
 1184TIP3   OH225042   6.611   5.115   2.933  0.0612 -0.3258  0.1353
 1184TIP3    H125043   6.674   5.174   2.976  1.5984 -1.0949 -0.9588
 1184TIP3    H225044   6.654   5.030   2.934 -0.8101 -0.7975 -0.9814
 1185TIP3   OH225045   2.906   2.263   6.110 -0.2071  0.2498 -0.2096
 1185TIP3    H125046   2.964   2.317   6.056  2.7420 -2.8698 -0.4829
 1185TIP3    H225047   2.927   2.288   6.200  1.4898 -0.6453 -0.3151
 1186TIP3   OH225048   3.591   1.493   0.495  0.5420  0.2375  0.1463
 1186TIP3    H125049   3.545   1.516   0.575 -0.3872 -1.0678  0.0246
 1186TIP3    H225050   3.632   1.408   0.514 -0.0964 -0.3239 -0.8952
 1187TIP3   OH225051   1.781   2.174  10.604 -0.3976 -0.0318 -0.1695
 1187TIP3    H125052   1.854   2.168  10.666  0.5298  1.9655 -1.0009
 1187TIP3    H225053   1.797   2.104  10.541  1.4101  0.9548 -0.9004
 1188TIP3   OH225054   4.869   3.967   5.144  0.2418 -0.8938  0.1744
 1188TIP3    H125055   4.958   3.999   5.130  0.4387 -0.2536  2.3692
 1188TIP3    H225056   4.866   3.883   5.100  1.3496 -0.1252 -1.4645
 1189TIP3   OH225057   6.141   2.273  15.272 -0.0033 -0.1139  0.3143
 1189TIP3    H125058   6.230   2.282  15.305 -0.2671  1.1477  0.7570
 1189TIP3    H225059   6.087   2.323  15.334 -1.2545 -2.0974  0.9250
 1190TIP3   OH225060   5.575   6.471   3.135 -0.4819  0.2450  0.1838
 1190TIP3    H125061   5.555   6.407   3.066  0.8810 -1.3614  1.2093
 1190TIP3    H225062   5.607   6.548   3.087  0.3591 -0.8012 -0.9993
 1191TIP3   OH225063   6.193   1.398  11.699  0.2276 -0.0927 -0.3272
 1191TIP3    H125064   6.263   1.357  11.648 -0.0759  0.1659 -0.9755
 1191TIP3    H225065   6.116   1.394  11.641 -0.3102 -0.4300  0.3980
 1192TIP3   OH225066   5.833   3.887  10.640 -0.6053 -0.3853  0.2189
 1192TIP3    H125067   5.897   3.955  10.621 -2.1418  0.6752 -1.5541
 1192TIP3    H225068   5.858   3.814  10.583  1.1881 -1.5155  2.2971
 1193TIP3   OH225069   1.001   0.621   2.942 -0.1395 -1.3093 -0.4306
 1193TIP3    H125070   1.050   0.700   2.922  1.7267 -1.9860  1.0609
 1193TIP3    H225071   0.918   0.652   2.977  1.0733  0.0993  1.4114
 1194TIP3   OH225072   1.104   5.728  14.905  0.1558  0.6601 -0.2284
 1194TIP3    H125073   1.146   5.746  14.989  0.4050  0.8160 -0.3861
 1194TIP3    H225074   1.073   5.813  14.873 -1.5300  0.3771  0.5330
 1195TIP3   OH225075   1.419   2.306  14.670 -0.3876 -0.5350  0.4672
 1195TIP3    H125076   1.363   2.229  14.669  0.6747 -1.3176 -0.0764
 1195TIP3    H225077   1.472   2.296  14.749  1.7538 -1.8863 -1.0276
 1196TIP3   OH225078   0.333   3.125   0.462 -0.1855  0.2994 -0.7888
 1196TIP3    H125079   0.374   3.160   0.541 -0.7142 -0.6535 -0.0786
 1196TIP3    H225080   0.258   3.075   0.493  0.0852 -0.7954 -1.8227
 1197TIP3   OH225081   3.648   3.965  14.864 -0.7215 -0.1970 -0.2695
 1197TIP3    H125082   3.632   3.977  14.771 -0.0130  0.5418 -0.3124
 1197TIP3    H225083   3.600   3.885  14.887  1.1804 -1.9136 -1.8317
 1198TIP3   OH225084   1.642   4.280   5.574 -0.2210 -0.5533 -0.6678
 1198TIP3    H125085   1.737   4.283   5.569 -0.3116  0.6416 -4.2059
 1198TIP3    H225086   1.622   4.187   5.587  1.3571 -0.7042  1.1735
 1199TIP3   OH225087   0.583   3.267  17.196 -0.1711  0.2703  0.6071
 1199TIP3    H125088   0.621   3.347  17.231 -0.7770 -0.3893  2.9544
 1199TIP3    H225089   0.494   3.291  17.172  0.1862  0.6853 -0.3324
 1200TIP3   OH225090   6.275   4.308  16.640  0.3910 -0.4138  0.5642
 1200TIP3    H125091   6.325   4.359  16.704  0.2063  2.0596 -1.1052
 1200TIP3    H225092   6.242   4.233  16.689  1.6793  0.4498  2.9083
 1201TIP3   OH225093   6.433   3.642   4.495 -0.5553 -0.6039  0.0517
 1201TIP3    H125094   6.459   3.732   4.477  0.3211 -0.9627 -0.5210
 1201TIP3    H225095   6.515   3.594   4.500 -1.0116 -1.3498  0.4864
 1202TIP3   OH225096   1.470   4.906   3.581  0.2531  0.2998 -0.8814
 1202TIP3    H125097   1.542   4.901   3.644 -1.0407  0.8344  0.7012
 1202TIP3    H225098   1.469   4.820   3.539  0.1501 -0.6529  0.9897
 1203TIP3   OH225099   1.860   6.067   4.435  0.0541  0.1894 -0.3012
 1203TIP3    H125100   1.805   6.013   4.379 -0.4004  1.0481 -0.7160
 1203TIP3    H225101   1.818   6.065   4.520  0.1075 -0.2035 -0.2825
 1204TIP3   OH225102   6.817   0.509  14.701 -0.1571  0.6877  0.1428
 1204TIP3    H125103   6.838   0.417  14.684 -1.4063  0.0629  1.7927
 1204TIP3    H225104   6.900   0.547  14.731 -0.0503 -0.3847  1.3061
 1205TIP3   OH225105   4.595   0.376   3.522  0.0035  0.1788 -0.2734
 1205TIP3    H125106   4.576   0.410   3.610  1.3687  1.1148 -0.3013
 1205TIP3    H225107   4.543   0.296   3.515  0.4939 -0.3602  1.6977
 1206TIP3   OH225108   2.861   2.620  10.788  0.4470  0.0781  0.4913
 1206TIP3    H125109   2.856   2.602  10.694 -2.6347  1.0864  0.3445
 1206TIP3    H225110   2.951   2.600  10.812  2.0598  2.0738 -3.1282
 1207TIP3   OH225111   0.603   2.872   0.990 -0.5987 -0.3548 -0.0050
 1207TIP3    H125112   0.541   2.828   1.048  0.1744 -1.1884  0.2266
 1207TIP3    H225113   0.582   2.965   0.997 -0.7383 -0.4704  1.3597
 1208TIP3   OH225114   6.635   1.868  13.076  0.2974 -0.2076 -0.2713
 1208TIP3    H125115   6.656   1.865  12.982 -2.5900  0.6862 -1.0449
 1208TIP3    H225116   6.636   1.961  13.097 -1.5077 -0.1933 -0.1004
 1209TIP3   OH225117   1.667   6.232   5.275  0.0058  0.1131 -0.6576
 1209TIP3    H125118   1.760   6.257   5.275 -0.2237  0.9813 -0.4281
 1209TIP3    H225119   1.635   6.258   5.361 -0.1830 -1.2598 -0.2792
 1210TIP3   OH225120   5.880   2.102  15.377  0.2345  0.4063 -0.0606
 1210TIP3    H125121   5.904   2.059  15.295 -0.6324 -1.1066  0.4374
 1210TIP3    H225122   5.874   2.195  15.355 -1.7100 -0.1245 -2.1610
 1211TIP3   OH225123   0.966   2.835   5.882  0.2232 -0.3784 -0.5374
 1211TIP3    H125124   0.929   2.917   5.849 -1.0462 -0.5715  0.3381
 1211TIP3    H225125   1.048   2.860   5.924  0.0540  0.3844 -0.6558
 1212TIP3   OH225126   5.337   2.798  15.239 -0.2934 -0.5581 -0.5145
 1212TIP3    H125127   5.302   2.867  15.182 -0.0491 -0.1914 -0.2273
 1212TIP3    H225128   5.260   2.758  15.279 -0.3879  0.7757  0.7357
 1213TIP3   OH225129   6.582   3.029   4.059  0.0873  0.1351  0.0253
 1213TIP3    H125130   6.529   3.107   4.040 -3.5343 -1.9568  0.5563
 1213TIP3    H225131   6.562   3.008   4.150 -1.2617 -2.8132 -0.8305
 1214TIP3   OH225132   1.297   1.050   6.272 -0.5297  0.4261  0.1888
 1214TIP3    H125133   1.259   1.029   6.357  1.1007  0.0511  0.8647
 1214TIP3    H225134   1.249   0.994   6.210 -0.0900 -1.1587  1.2128
 1215TIP3   OH225135   6.046   4.676   4.819  0.4514  0.5079  0.2236
 1215TIP3    H125136   6.081   4.587   4.812 -1.6736 -0.6666  2.7052
 1215TIP3    H225137   6.070   4.704   4.907 -3.3172  0.1292  1.5829
 1216TIP3   OH225138   3.576   4.019  13.466  0.3066  0.6530  0.8460
 1216TIP3    H125139   3.541   4.090  13.412 -1.2430  1.4308  2.7614
 1216TIP3    H225140   3.671   4.028  13.459  0.1314  1.7995 -0.3535
 1217TIP3   OH225141   1.143   4.005  14.660  0.5690  0.1077  0.0760
 1217TIP3    H125142   1.124   3.917  14.691  1.1718  0.5340  1.7772
 1217TIP3    H225143   1.060   4.038  14.627  0.2385 -0.9297 -0.1351
 1218TIP3   OH225144   5.607   4.301  15.192  0.3932 -0.1477 -0.5761
 1218TIP3    H125145   5.628   4.355  15.268 -1.3117 -0.4817  0.1739
 1218TIP3    H225146   5.560   4.360  15.133  1.0480 -0.0911 -1.0592
 1219TIP3   OH225147   1.130   4.923   0.980  0.5651  0.6107  0.1063
 1219TIP3    H125148   1.184   4.946   1.055  0.5230  0.6138  0.1356
 1219TIP3    H225149   1.040   4.939   1.009  0.4773 -0.3871  0.4094
 1220TIP3   OH225150   1.615   1.263  14.168 -0.1356  0.1619 -0.0691
 1220TIP3    H125151   1.648   1.199  14.232  0.0277 -0.0153 -0.3281
 1220TIP3    H225152   1.694   1.305  14.134 -0.2524  0.6247  0.2253
 1221TIP3   OH225153   2.834   0.268   3.640 -0.5709  0.0620 -0.5553
 1221TIP3    H125154   2.770   0.259   3.569 -0.1290  0.4559 -1.0099
 1221TIP3    H225155   2.874   0.354   3.626 -2.3278  1.4055  1.7105
 1222TIP3   OH225156   1.018   4.227  15.991  0.1519 -0.5857 -0.4830
 1222TIP3    H125157   0.969   4.187  15.920 -2.6234  0.0546  0.9573
 1222TIP3    H225158   1.033   4.155  16.053 -1.0355 -0.3294  0.1235
 1223TIP3   OH225159   3.504   0.115   1.571 -0.1371  0.2567 -0.7784
 1223TIP3    H125160   3.557   0.048   1.615  0.7455  0.5354 -1.3852
 1223TIP3    H225161   3.500   0.087   1.480 -0.4319  0.6175 -0.8805
 1224TIP3   OH225162   5.174   5.312   0.641 -0.6464 -0.1808 -0.0070
 1224TIP3    H125163   5.182   5.251   0.714 -1.0059  0.2598  0.4087
 1224TIP3    H225164   5.206   5.264   0.565  1.2184 -0.1271  0.6992
 1225TIP3   OH225165   1.954   1.891  15.482  0.2287 -0.8218 -0.3146
 1225TIP3    H125166   1.968   1.957  15.414  1.9129 -0.0661  0.7012
 1225TIP3    H225167   1.907   1.938  15.551  1.0729 -0.7523  0.2368
 1226TIP3   OH225168   0.053   6.608   3.590 -1.1526 -0.5458 -0.0075
 1226TIP3    H125169   0.064   6.572   3.502 -0.2102 -1.1071  0.3271
 1226TIP3    H225170   0.081   6.699   3.582 -0.4905 -0.7582 -0.1660
 1227TIP3   OH225171   4.698   4.426  14.638  0.3345  0.1713 -0.7026
 1227TIP3    H125172   4.609   4.430  14.604 -0.4233  0.8580  1.2308
 1227TIP3    H225173   4.688   4.428  14.733  2.4493  1.2638 -0.4319
 1228TIP3   OH225174   4.817   1.963  10.393 -0.2926  0.1767  0.7287
 1228TIP3    H125175   4.771   2.044  10.371 -0.9863 -0.5220 -0.4983
 1228TIP3    H225176   4.810   1.957  10.489 -0.0219  1.6567  0.8760
 1229TIP3   OH225177   0.262   1.961   4.116  0.3372  0.1121 -0.2266
 1229TIP3    H125178   0.279   2.012   4.036  0.0344 -1.0289 -1.0389
 1229TIP3    H225179   0.349   1.945   4.153  0.6608 -1.0087 -1.3985
 1230TIP3   OH225180   1.850   4.427  14.154  0.3883 -0.1369  0.3954
 1230TIP3    H125181   1.897   4.420  14.071  0.4271  1.8153  0.2036
 1230TIP3    H225182   1.758   4.421  14.129  0.4185 -0.0921  0.2701
 1231TIP3   OH225183   4.886   5.181  12.255  0.0661  0.1975  0.0024
 1231TIP3    H125184   4.844   5.105  12.215 -2.1299  0.5917  1.3992
 1231TIP3    H225185   4.930   5.146  12.332  0.7569  0.0652 -0.4445
 1232TIP3   OH225186   1.478   5.177  14.841  0.0306 -0.0645 -0.0251
 1232TIP3    H125187   1.447   5.214  14.758 -1.1896 -2.0351 -0.5252
 1232TIP3    H225188   1.456   5.243  14.906 -0.3586  0.8900 -1.0887
 1233TIP3   OH225189   1.031   4.926   6.319 -0.0205  0.2465 -0.0323
 1233TIP3    H125190   0.938   4.930   6.296 -0.3887 -2.1292  0.7287
 1233TIP3    H225191   1.037   4.855   6.382  2.4573 -0.2448 -0.6989
 1234TIP3   OH225192   3.300   6.342  12.084  0.0052  0.1782 -0.3098
 1234TIP3    H125193   3.378   6.348  12.028  0.4970 -1.0700  0.2057
 1234TIP3    H225194   3.285   6.431  12.113  0.0809  0.7694 -1.9585
 1235TIP3   OH225195   2.229   3.449  12.908  0.5614  0.0637 -0.3663
 1235TIP3    H125196   2.258   3.403  12.830  0.4530  0.6527 -0.7588
 1235TIP3    H225197   2.235   3.542  12.885 -3.0961  0.2765 -1.0896
 1236TIP3   OH225198   1.275   3.793   6.072 -0.2464 -0.0480  0.0319
 1236TIP3    H125199   1.239   3.799   6.160  2.9569 -0.4919  1.5140
 1236TIP3    H225200   1.321   3.709   6.071  1.9081  1.0668 -1.1270
 1237TIP3   OH225201   4.180   4.583  12.184  0.8047 -0.0192  0.3562
 1237TIP3    H125202   4.138   4.529  12.251 -1.2341 -1.5583 -1.9860
 1237TIP3    H225203   4.198   4.522  12.112  0.4400  1.9763 -1.5380
 1238TIP3   OH225204   4.547   2.340   3.610  0.2820 -0.6576  0.7104
 1238TIP3    H125205   4.468   2.349   3.662  0.0372 -0.6323  0.3394
 1238TIP3    H225206   4.523   2.375   3.524  0.1452 -2.3104  0.0518
 1239TIP3   OH225207   5.654   4.169   5.062  0.1138  1.0084 -0.0813
 1239TIP3    H125208   5.659   4.101   4.995  0.1115 -0.0064  0.9099
 1239TIP3    H225209   5.624   4.247   5.015 -0.6401  0.1297 -1.1241
 1240TIP3   OH225210   1.936   0.478  11.424  0.1713  0.1527 -0.1214
 1240TIP3    H125211   1.995   0.410  11.391  0.8526  1.5010 -1.8360
 1240TIP3    H225212   1.985   0.521  11.493  1.1016  1.0360 -1.2969
 1241TIP3   OH225213   2.837   2.345  11.296  1.1147  0.1951  0.2048
 1241TIP3    H125214   2.843   2.338  11.391 -0.8464 -0.2073  0.3330
 1241TIP3    H225215   2.771   2.412  11.280 -0.1952 -1.2541 -0.8170
 1242TIP3   OH225216   4.667   6.063   0.080  0.4837  0.2598 -0.0919
 1242TIP3    H125217   4.597   6.089   0.020  0.1470 -0.4906 -0.0495
 1242TIP3    H225218   4.709   5.989   0.036  0.2652 -0.2649  0.5616
 1243TIP3   OH225219   2.682   5.522   3.802 -0.2253  0.0509  0.3788
 1243TIP3    H125220   2.727   5.603   3.827 -0.7653  0.8678 -1.1406
 1243TIP3    H225221   2.751   5.457   3.791  0.1807  0.1792  2.0187
 1244TIP3   OH225222   5.687   0.397  16.836 -0.4349 -0.9718 -0.2958
 1244TIP3    H125223   5.672   0.337  16.909 -1.8476 -0.1684  0.1221
 1244TIP3    H225224   5.777   0.427  16.847 -0.8869 -0.1590  1.6869
 1245TIP3   OH225225   2.462   5.777  13.988 -0.3374 -0.0890 -0.0917
 1245TIP3    H125226   2.480   5.693  13.946 -0.3345  0.8042 -1.9421
 1245TIP3    H225227   2.394   5.757  14.052 -0.3876 -1.4775 -0.5323
 1246TIP3   OH225228   4.311   4.957   5.143 -0.4259 -0.0348  0.1888
 1246TIP3    H125229   4.317   4.897   5.069 -1.3406 -0.5419  0.5139
 1246TIP3    H225230   4.400   4.960   5.179 -0.4768 -1.6213  0.5003
 1247TIP3   OH225231   6.586   5.504  11.659 -0.3170  0.2837 -0.7761
 1247TIP3    H125232   6.554   5.415  11.675  0.4638  0.0725 -0.2963
 1247TIP3    H225233   6.640   5.523  11.736  0.1888  0.8547 -1.2640
 1248TIP3   OH225234   1.348   6.117  14.483 -0.7836  0.1856 -0.3893
 1248TIP3    H125235   1.316   6.201  14.451 -0.4096  0.6195  0.3601
 1248TIP3    H225236   1.387   6.136  14.569  1.8763 -0.2259 -1.4090
 1249TIP3   OH225237   0.764   2.261  13.794  0.4124  0.0071  0.7125
 1249TIP3    H125238   0.825   2.232  13.726  0.3144 -2.3060  1.5198
 1249TIP3    H225239   0.704   2.320  13.749  2.4545  1.3702 -0.3836
 1250TIP3   OH225240   2.515   3.459   5.510  0.5829  0.3768 -0.4693
 1250TIP3    H125241   2.489   3.375   5.472 -0.8681  0.0579  1.1411
 1250TIP3    H225242   2.598   3.440   5.554  0.4728 -0.1041 -0.4593
 1251TIP3   OH225243   3.952   4.916   0.960 -0.4516  0.3064 -0.2775
 1251TIP3    H125244   3.947   4.822   0.943  1.6310 -0.4880  2.5703
 1251TIP3    H225245   3.890   4.956   0.899 -0.7604 -2.8048 -2.2001
 1252TIP3   OH225246   2.299   3.627  13.239 -0.5012  0.6112 -0.3015
 1252TIP3    H125247   2.210   3.632  13.273 -0.3989 -1.4398  0.3783
 1252TIP3    H225248   2.292   3.575  13.159  0.0248  0.9533 -0.5808
 1253TIP3   OH225249   5.357   4.885   1.504 -0.0539  0.4343  0.3083
 1253TIP3    H125250   5.403   4.825   1.564  0.4723  0.0490 -0.4682
 1253TIP3    H225251   5.424   4.947   1.476 -0.7903  2.0339  1.8410
 1254TIP3   OH225252   6.400   0.628   4.494  0.1479  0.4495  0.5329
 1254TIP3    H125253   6.344   0.551   4.497  2.4500 -1.4176 -0.9333
 1254TIP3    H225254   6.400   0.662   4.584 -2.0245 -0.3815  0.8859
 1255TIP3   OH225255   2.401   4.414   1.614 -0.4009  0.5552  0.1801
 1255TIP3    H125256   2.434   4.495   1.653  0.9600 -0.6837  1.7409
 1255TIP3    H225257   2.311   4.406   1.648 -0.6520  1.5327 -0.2179
 1256TIP3   OH225258   2.404   4.798   4.598  1.0782  0.2641  0.4134
 1256TIP3    H125259   2.440   4.718   4.636  1.8425  1.1888  1.7110
 1256TIP3    H225260   2.309   4.783   4.594  0.5737  0.9221  4.9871
 1257TIP3   OH225261   1.819   3.666  16.327  0.2389  0.4817 -0.0284
 1257TIP3    H125262   1.748   3.722  16.296 -0.3480 -0.1899  0.0970
 1257TIP3    H225263   1.852   3.711  16.405  0.3449  1.0925 -0.4146
 1258TIP3   OH225264   1.006   1.073  14.454 -0.9294 -0.3842 -0.3530
 1258TIP3    H125265   0.920   1.051  14.419 -0.1906  0.1365 -2.6809
 1258TIP3    H225266   1.067   1.025  14.399  0.3297  0.7130  0.0313
 1259TIP3   OH225267   0.576   6.643  14.508  0.1974  0.2684  0.5062
 1259TIP3    H125268   0.482   6.649  14.523 -0.0539 -0.7423 -0.5129
 1259TIP3    H225269   0.592   6.691  14.427  0.2205 -1.1664 -0.3875
 1260TIP3   OH225270   5.783   4.470   5.144  0.5410 -0.2774  0.5066
 1260TIP3    H125271   5.765   4.392   5.091  0.6263 -0.3841  0.6348
 1260TIP3    H225272   5.710   4.529   5.124  0.1908 -0.6019  0.8207
 1261TIP3   OH225273   3.740   6.116  12.248 -0.1214  0.5834 -0.5490
 1261TIP3    H125274   3.705   6.028  12.234 -1.8153  0.9717  0.9024
 1261TIP3    H225275   3.826   6.101  12.288  1.1417 -0.3811 -3.3803
 1262TIP3   OH225276   5.863   3.745   1.372 -0.2103  0.2176 -0.0917
 1262TIP3    H125277   5.883   3.782   1.286  0.2914 -2.1961 -1.0905
 1262TIP3    H225278   5.865   3.650   1.358 -1.1246 -0.2249  2.3738
 1263TIP3   OH225279   6.673   2.236   4.877  0.6132  0.0661  0.4581
 1263TIP3    H125280   6.665   2.166   4.813 -2.3242 -0.0988  0.8465
 1263TIP3    H225281   6.696   2.192   4.959  1.1544 -0.1298  0.2012
 1264TIP3   OH225282   3.576   1.382  14.109  0.1690  0.2852 -0.3975
 1264TIP3    H125283   3.507   1.319  14.132 -1.5309  1.7529 -1.1565
 1264TIP3    H225284   3.653   1.328  14.094 -0.9462 -1.5204 -0.0899
 1265TIP3   OH225285   4.725   6.007   5.946 -0.5357 -0.5076  0.0278
 1265TIP3    H125286   4.651   6.062   5.924 -0.7292 -0.7387  0.1002
 1265TIP3    H225287   4.693   5.950   6.016  0.4849  1.2034  2.0093
 1266TIP3   OH225288   0.209   2.335   4.400  0.3603  0.2706  0.1061
 1266TIP3    H125289   0.202   2.240   4.405 -1.0831  0.2932 -0.7793
 1266TIP3    H225290   0.296   2.350   4.363  1.5257 -0.5758  2.3210
 1267TIP3   OH225291   5.893   3.325   6.941  0.2875  0.6383 -0.3771
 1267TIP3    H125292   5.873   3.264   6.869 -0.9942 -1.4836  1.6163
 1267TIP3    H225293   5.810   3.334   6.988  1.8976 -1.6700  3.3676
 1268TIP3   OH225294   3.117   1.983  13.089 -0.4304  0.6065 -0.1025
 1268TIP3    H125295   3.113   1.895  13.052 -0.0102  1.2901 -1.8915
 1268TIP3    H225296   3.099   1.971  13.182  0.0341 -1.4095 -0.2313
 1269TIP3   OH225297   5.267   5.582  15.481  0.1290 -0.8635 -0.2076
 1269TIP3    H125298   5.242   5.575  15.573  2.2516 -0.5169  0.4363
 1269TIP3    H225299   5.335   5.516  15.469  2.0126  1.0550 -0.7105
 1270TIP3   OH225300   2.281   2.161  12.075  0.3392  0.3127  0.1035
 1270TIP3    H125301   2.262   2.255  12.077  0.1888  0.3542 -1.7638
 1270TIP3    H225302   2.234   2.128  11.998  1.8107 -0.9572 -0.3113
 1271TIP3   OH225303   5.990   0.763   0.797  0.8615 -0.0633 -0.0130
 1271TIP3    H125304   5.961   0.672   0.801  0.8955 -0.0652  0.2378
 1271TIP3    H225305   5.910   0.815   0.807  0.8115 -0.0636 -0.4000
 1272TIP3   OH225306   0.278   6.458   0.840 -0.5175 -0.4315  0.4596
 1272TIP3    H125307   0.215   6.387   0.836 -0.2011 -0.6630 -0.9270
 1272TIP3    H225308   0.246   6.515   0.911 -2.9986  0.1234 -1.0078
 1273TIP3   OH225309   2.194   2.592   3.496 -0.0025  0.2607 -0.2588
 1273TIP3    H125310   2.135   2.521   3.519  2.0724 -1.2016  0.9634
 1273TIP3    H225311   2.167   2.666   3.551 -0.9737 -0.2120 -0.0918
 1274TIP3   OH225312   1.267   2.123  15.568 -0.2214  0.0357 -0.1991
 1274TIP3    H125313   1.242   2.135  15.660  0.7123 -3.0122  0.5527
 1274TIP3    H225314   1.362   2.126  15.569 -0.1796 -0.8077 -0.9144
 1275TIP3   OH225315   6.677   0.816  16.443 -0.4005  0.0714  0.4796
 1275TIP3    H125316   6.700   0.729  16.475 -0.8321 -1.3353 -2.6248
 1275TIP3    H225317   6.582   0.815  16.436 -0.5150  1.2881  1.5828
 1276TIP3   OH225318   0.936   3.801   5.562  0.8747  0.6827 -0.7424
 1276TIP3    H125319   0.988   3.835   5.489  0.7918  0.4131 -0.9282
 1276TIP3    H225320   0.939   3.706   5.552 -0.0918  0.6755 -1.0667
 1277TIP3   OH225321   6.766   0.760  16.997  0.0601  0.1487  0.3243
 1277TIP3    H125322   6.760   0.697  16.925 -0.9660 -0.2816  0.7564
 1277TIP3    H225323   6.779   0.845  16.954  2.6484 -0.4465 -0.2314
 1278TIP3   OH225324   4.924   2.369   1.919 -0.1562  0.2066  0.6890
 1278TIP3    H125325   4.872   2.394   1.996 -0.2701  0.1737  0.6235
 1278TIP3    H225326   4.952   2.279   1.938  0.0725  0.3082  0.8281
 1279TIP3   OH225327   5.982   1.877   4.565 -0.6886  0.3570  0.1469
 1279TIP3    H125328   5.928   1.812   4.611 -2.0399  1.2775 -0.0636
 1279TIP3    H225329   5.963   1.960   4.609  2.2146  0.4593  1.4361
 1280TIP3   OH225330   3.937   0.388  13.827 -0.5506  0.0640  0.1860
 1280TIP3    H125331   3.948   0.374  13.733 -0.5834  1.3886 -0.0361
 1280TIP3    H225332   3.935   0.300  13.865 -1.5715 -0.5190 -1.1624
 1281TIP3   OH225333   6.146   3.593  14.037  0.1010 -0.2189  0.1921
 1281TIP3    H125334   6.110   3.518  13.990 -2.7396  0.4781  1.0737
 1281TIP3    H225335   6.128   3.668  13.980 -2.3858  0.4800  1.7359
 1282TIP3   OH225336   1.640   3.455   3.791  0.6917  0.1303 -0.3892
 1282TIP3    H125337   1.681   3.381   3.746  0.8493  0.5052 -0.8592
 1282TIP3    H225338   1.640   3.526   3.727  0.5779  0.5544  0.0747
 1283TIP3   OH225339   2.684   2.201  13.618  0.4600  0.0451  0.3280
 1283TIP3    H125340   2.601   2.167  13.584  0.1542 -0.8936  1.8796
 1283TIP3    H225341   2.715   2.261  13.551  0.4419 -2.4249 -2.0756
 1284TIP3   OH225342   6.784   6.439   5.846 -0.3919 -0.0129 -0.1301
 1284TIP3    H125343   6.821   6.356   5.874 -3.0097 -0.3045  2.9900
 1284TIP3    H225344   6.724   6.416   5.774 -0.9000 -0.8164  0.5356
 1285TIP3   OH225345   0.686   4.295   5.724 -0.1485  0.2516 -0.2322
 1285TIP3    H125346   0.743   4.273   5.797 -0.9728 -0.9011  0.0914
 1285TIP3    H225347   0.740   4.350   5.667  1.3479 -0.9508 -0.0434
 1286TIP3   OH225348   0.949   1.320   1.753 -0.0220  0.2344  0.3373
 1286TIP3    H125349   1.018   1.384   1.769  0.1133 -0.2055  1.6422
 1286TIP3    H225350   0.880   1.343   1.815 -0.4747 -0.1724 -0.0048
 1287TIP3   OH225351   1.111   1.008  12.352  0.3510  0.0966  0.1274
 1287TIP3    H125352   1.201   1.014  12.384  0.0260 -0.8258  1.2841
 1287TIP3    H225353   1.059   0.985  12.430 -0.9201  0.8069 -0.4704
 1288TIP3   OH225354   6.521   2.859   2.151  0.2402  0.9171 -0.5560
 1288TIP3    H125355   6.502   2.777   2.106  1.0579 -0.0116  0.7271
 1288TIP3    H225356   6.443   2.876   2.205  1.0611 -0.4232  1.1452
 1289TIP3   OH225357   2.599   3.303   4.804  0.3776 -0.3865 -0.3033
 1289TIP3    H125358   2.609   3.369   4.735 -0.0096  0.4765  0.4321
 1289TIP3    H225359   2.664   3.328   4.870  2.3714 -2.5568 -1.3150
 1290TIP3   OH225360   4.844   0.940  13.501  0.4444  0.1029  0.4033
 1290TIP3    H125361   4.921   0.991  13.528 -0.0809  0.6893  0.8105
 1290TIP3    H225362   4.779   0.956  13.569 -0.5030  0.6800 -0.5945
 1291TIP3   OH225363   4.446   1.029   2.829  0.0174 -0.0828  0.9811
 1291TIP3    H125364   4.455   0.937   2.853 -2.5342 -0.9258 -0.8831
 1291TIP3    H225365   4.502   1.039   2.751  0.5342  0.0472  1.3632
 1292TIP3   OH225366   2.084   3.201  13.664 -0.1208  0.4643 -0.2347
 1292TIP3    H125367   2.033   3.210  13.745 -0.4728 -0.8956 -0.2921
 1292TIP3    H225368   2.148   3.133  13.684  0.7112  1.1063 -0.6588
 1293TIP3   OH225369   0.734   2.924  11.214  0.0953 -0.0427 -0.0836
 1293TIP3    H125370   0.814   2.974  11.198  0.4897 -0.9761 -1.1550
 1293TIP3    H225371   0.674   2.955  11.146 -0.2521  0.2044  0.3317
 1294TIP3   OH225372   5.259   5.566   0.246 -0.2109 -0.4194 -0.2956
 1294TIP3    H125373   5.311   5.532   0.173  0.5902 -2.0638  0.9807
 1294TIP3    H225374   5.303   5.647   0.271  0.8166 -0.9713 -0.2512
 1295TIP3   OH225375   3.700   5.954   2.993  0.1221 -0.4297  0.2864
 1295TIP3    H125376   3.618   5.996   2.967 -0.6356 -2.9550 -1.7795
 1295TIP3    H225377   3.764   5.982   2.927 -0.1405 -1.6629 -0.5152
 1296TIP3   OH225378   0.392   6.351   2.923 -0.4113 -0.3511  0.7458
 1296TIP3    H125379   0.427   6.427   2.971 -1.1773 -0.0168  0.8066
 1296TIP3    H225380   0.430   6.358   2.836 -0.0853 -0.1718  0.9010
 1297TIP3   OH225381   5.359   5.781   4.344 -0.1361 -0.0519 -0.1781
 1297TIP3    H125382   5.339   5.702   4.394 -1.1149  1.4993  2.0383
 1297TIP3    H225383   5.446   5.807   4.374  0.6903 -0.8432 -1.7523
 1298TIP3   OH225384   0.430   6.044   6.039  0.0999  0.1892  0.1719
 1298TIP3    H125385   0.337   6.043   6.064 -0.1560  0.3960 -0.7377
 1298TIP3    H225386   0.465   6.123   6.079 -0.8531  1.7847 -1.9767
 1299TIP3   OH225387   4.576   4.741  12.507 -0.1298 -0.1804  0.0910
 1299TIP3    H125388   4.613   4.774  12.589  0.5412  0.1871 -0.3489
 1299TIP3    H225389   4.485   4.721  12.528 -0.3749  1.2965  0.5508
 1300TIP3   OH225390   3.611   5.846  12.149 -0.2524 -0.3046  0.5379
 1300TIP3    H125391   3.682   5.846  12.085  0.3642 -0.2966  1.2206
 1300TIP3    H225392   3.535   5.816  12.099 -0.0814  0.9329 -0.5275
 1301TIP3   OH225393   2.468   6.753   1.291  0.4127  0.0284 -0.8297
 1301TIP3    H125394   2.414   6.764   1.369  0.0609 -2.8952 -0.5334
 1301TIP3    H225395   2.481   6.842   1.258 -1.2195  1.1762  1.3278
 1302TIP3   OH225396   1.390   6.586  13.523 -0.7348 -0.2256 -1.1198
 1302TIP3    H125397   1.325   6.525  13.558  0.0215 -1.6565 -2.1248
 1302TIP3    H225398   1.439   6.535  13.459  2.7760  0.1324  1.0098
 1303TIP3   OH225399   6.531   3.442  16.280  0.1658  0.2350  0.1554
 1303TIP3    H125400   6.548   3.349  16.294  1.6172  0.5881  0.9656
 1303TIP3    H225401   6.534   3.452  16.184 -0.1828 -0.5690  0.0498
 1304TIP3   OH225402   0.094   6.057   0.254 -0.0135  0.0904 -0.5355
 1304TIP3    H125403   0.097   6.147   0.220 -0.5581 -0.3884 -1.9408
 1304TIP3    H225404   0.006   6.027   0.232 -0.2163 -0.4474  0.9022
 1305TIP3   OH225405   1.991   2.048   3.235 -0.3348  0.0414 -0.0486
 1305TIP3    H125406   1.927   2.074   3.168 -0.7785 -1.3837 -0.2060
 1305TIP3    H225407   2.019   1.960   3.209  0.4764 -0.0056  0.9223
 1306TIP3   OH225408   3.930   5.589  13.924  0.5974  0.5086  0.1480
 1306TIP3    H125409   3.945   5.626  14.011  0.7125 -1.1553  0.8727
 1306TIP3    H225410   3.972   5.651  13.864 -0.3862  2.2342  1.1592
 1307TIP3   OH225411   1.799   4.632   3.206 -0.4118  0.1893 -0.0958
 1307TIP3    H125412   1.728   4.571   3.225 -1.0808  1.0583  0.2347
 1307TIP3    H225413   1.860   4.581   3.151 -0.3177 -1.1600  1.1904
 1308TIP3   OH225414   6.146   4.701   0.851 -0.5135 -0.2280 -0.0516
 1308TIP3    H125415   6.078   4.710   0.785  0.9793  0.3146 -1.5918
 1308TIP3    H225416   6.169   4.791   0.875  2.9459 -0.0595 -3.1928
 1309TIP3   OH225417   0.859   3.811   6.365  0.2371  0.1599  0.4208
 1309TIP3    H125418   0.877   3.719   6.349 -0.4358  0.4606 -2.7937
 1309TIP3    H225419   0.763   3.817   6.368  0.2478  0.8097 -0.1402
 1310TIP3   OH225420   1.920   5.003   0.341 -0.2073 -0.4234  0.5840
 1310TIP3    H125421   1.886   4.913   0.337 -1.1853 -0.0384 -0.0357
 1310TIP3    H225422   1.857   5.055   0.290  1.1403  0.3682 -0.3343
 1311TIP3   OH225423   4.397   3.965  13.978  0.1141 -0.1421  0.0972
 1311TIP3    H125424   4.344   4.018  13.918 -0.5790 -0.7718  0.1479
 1311TIP3    H225425   4.403   3.879  13.936  1.3568 -0.0044 -0.0511
 1312TIP3   OH225426   5.257   5.096  15.132  0.1834 -0.1447  0.3051
 1312TIP3    H125427   5.242   5.054  15.047  0.7499 -0.4960  0.3707
 1312TIP3    H225428   5.291   5.025  15.187  0.5161  0.2515  0.6100
 1313TIP3   OH225429   2.261   1.570  11.202  0.6426  0.3481  0.3033
 1313TIP3    H125430   2.305   1.556  11.118  0.4097  0.2259  0.2001
 1313TIP3    H225431   2.321   1.624  11.252  1.4595 -0.8262  0.6278
 1314TIP3   OH225432   5.735   2.661  13.691  0.2330 -0.2689  0.6319
 1314TIP3    H125433   5.828   2.643  13.691  0.1426 -0.8845 -1.2504
 1314TIP3    H225434   5.693   2.575  13.698 -0.2413  0.0697  2.6647
 1315TIP3   OH225435   0.991   2.699   5.605 -0.0370 -0.2899 -0.0058
 1315TIP3    H125436   0.944   2.686   5.688  0.2220  0.3969  0.2517
 1315TIP3    H225437   1.079   2.725   5.631  0.5889 -1.8079 -0.4782
 1316TIP3   OH225438   4.143   4.832   2.655  0.1438  0.7777  0.0758
 1316TIP3    H125439   4.122   4.910   2.707 -0.4417  0.8841 -0.3108
 1316TIP3    H225440   4.083   4.836   2.581 -0.2311 -0.3065  0.3035
 1317TIP3   OH225441   3.387   3.846  15.594  0.4318  0.0609  0.5571
 1317TIP3    H125442   3.341   3.927  15.572  0.6495 -0.0433 -0.3289
 1317TIP3    H225443   3.376   3.837  15.688  0.8787  1.4196  0.7680
 1318TIP3   OH225444   6.116   0.419   5.029  0.0041  0.1079  0.5120
 1318TIP3    H125445   6.103   0.329   5.057 -0.6967  0.4355  1.2586
 1318TIP3    H225446   6.171   0.411   4.951 -0.7336 -1.0143  0.0766
 1319TIP3   OH225447   0.766   5.368   4.777 -0.1603  0.4464  0.6844
 1319TIP3    H125448   0.809   5.289   4.809 -0.9277 -0.0489  0.5116
 1319TIP3    H225449   0.673   5.350   4.785 -0.3594  0.8425 -0.5503
 1320TIP3   OH225450   0.658   3.310  11.122  0.3012 -0.3657 -0.2858
 1320TIP3    H125451   0.620   3.235  11.076 -1.1180  0.8647 -1.2127
 1320TIP3    H225452   0.588   3.341  11.180 -0.3974  2.1690 -2.2986
 1321TIP3   OH225453   6.249   3.140   2.394  0.2523  0.0277  0.2660
 1321TIP3    H125454   6.180   3.206   2.408  0.1833 -0.1216  0.6499
 1321TIP3    H225455   6.320   3.188   2.352 -0.4923 -0.0356 -1.1371
 1322TIP3   OH225456   4.645   3.176  13.527 -0.0532 -0.1333 -0.4128
 1322TIP3    H125457   4.659   3.193  13.621 -1.0392 -1.2381 -0.0370
 1322TIP3    H225458   4.560   3.216  13.509 -0.1905 -0.5421 -0.6654
 1323TIP3   OH225459   0.592   5.452  14.941 -0.3436  0.0004  0.0874
 1323TIP3    H125460   0.567   5.524  14.999 -3.3734 -1.0708  0.2899
 1323TIP3    H225461   0.684   5.434  14.963  0.2918  3.2006  0.5728
 1324TIP3   OH225462   0.327   0.723   4.957  0.1315 -0.5161 -0.2924
 1324TIP3    H125463   0.300   0.636   4.985 -1.6473 -0.3316 -1.2963
 1324TIP3    H225464   0.307   0.779   5.032  0.9012 -0.8832  0.2039
 1325TIP3   OH225465   1.946   6.473   4.574  0.2780  0.3022  0.3854
 1325TIP3    H125466   1.864   6.523   4.580  1.2469  1.9193  0.6245
 1325TIP3    H225467   1.927   6.391   4.620 -0.4505  1.7062  2.7307
 1326TIP3   OH225468   4.993   2.164  16.301 -0.1410  0.0638  0.0152
 1326TIP3    H125469   5.016   2.072  16.311 -1.0782  0.0771  3.6593
 1326TIP3    H225470   5.012   2.203  16.387 -1.9786  2.7476 -0.6729
 1327TIP3   OH225471   2.328   5.469  16.233  0.1607  0.6730  0.3772
 1327TIP3    H125472   2.287   5.394  16.190  0.4845  0.8813 -0.3046
 1327TIP3    H225473   2.295   5.545  16.185  1.1592  0.8566 -0.0463
 1328TIP3   OH225474   0.232   1.527   5.293  0.6265  0.1331 -0.0477
 1328TIP3    H125475   0.261   1.557   5.380 -1.5653 -0.0694  0.8214
 1328TIP3    H225476   0.157   1.469   5.312  0.8347 -0.8581 -2.0333
 1329TIP3   OH225477   0.799   4.035  11.211 -0.6699 -0.1059 -0.0909
 1329TIP3    H125478   0.819   3.985  11.132 -0.7176  0.4790 -0.4757
 1329TIP3    H225479   0.735   4.100  11.183 -0.0542  0.6558  0.2520
 1330TIP3   OH225480   1.593   6.335   5.573  0.4477 -0.3993 -0.0220
 1330TIP3    H125481   1.558   6.259   5.621 -0.0127 -0.7589 -0.8968
 1330TIP3    H225482   1.539   6.408   5.602 -0.9419 -0.9086 -1.1894
 1331TIP3   OH225483   1.937   1.361  11.774  0.0956  0.0351 -0.4799
 1331TIP3    H125484   1.947   1.448  11.813  3.0949  0.1929 -1.3784
 1331TIP3    H225485   1.952   1.301  11.846  0.8430  0.2866 -0.4248
 1332TIP3   OH225486   2.349   2.754  14.992  0.1688 -0.4788 -0.4120
 1332TIP3    H125487   2.383   2.752  15.081  2.2994 -0.0456 -1.1401
 1332TIP3    H225488   2.284   2.684  14.989  0.6579 -1.0511  1.2421
 1333TIP3   OH225489   0.891   2.365   3.372 -0.8822 -0.9029  0.7105
 1333TIP3    H125490   0.887   2.270   3.386  0.3287 -1.0698  0.0881
 1333TIP3    H225491   0.941   2.375   3.291 -1.4053  0.2609  0.5106
 1334TIP3   OH225492   4.862   1.500   2.159 -0.4981 -0.1980  0.0431
 1334TIP3    H125493   4.954   1.521   2.145 -0.5253 -1.0762 -1.8332
 1334TIP3    H225494   4.825   1.494   2.071 -2.5104  0.7296  0.7576
 1335TIP3   OH225495   2.327   2.002   1.475 -0.2365 -0.4846 -0.0573
 1335TIP3    H125496   2.339   2.097   1.469  2.0264 -0.6584  0.7478
 1335TIP3    H225497   2.360   1.980   1.562  3.6391 -2.5129 -1.8041
 1336TIP3   OH225498   0.578   2.421  14.088  0.7809 -0.0559 -0.9254
 1336TIP3    H125499   0.615   2.494  14.038 -0.1405  0.6395 -0.6223
 1336TIP3    H225500   0.560   2.458  14.174 -2.9179  0.4532 -1.7200
 1337TIP3   OH225501   3.466   5.115   0.325 -0.5467  0.4411 -0.3563
 1337TIP3    H125502   3.381   5.090   0.289 -0.2966  0.1469 -0.7478
 1337TIP3    H225503   3.526   5.047   0.294  0.2076  1.6812 -1.6990
 1338TIP3   OH225504   4.824   1.692  12.282 -0.1032 -0.3777 -0.5813
 1338TIP3    H125505   4.793   1.664  12.196  0.5323 -0.4008 -0.8094
 1338TIP3    H225506   4.919   1.703  12.270  0.1406 -1.3179  0.3611
 1339TIP3   OH225507   5.780   4.352  16.237 -0.0311  0.0449 -0.7559
 1339TIP3    H125508   5.827   4.270  16.247 -0.8279 -0.1953  1.7603
 1339TIP3    H225509   5.692   4.327  16.209  0.1349  0.1840 -1.4296
 1340TIP3   OH225510   1.090   5.037   5.943  0.3935  0.1845 -0.6813
 1340TIP3    H125511   1.183   5.023   5.959  0.5827  0.9291 -1.1038
 1340TIP3    H225512   1.050   4.951   5.959  1.1454 -0.1434 -0.5115
 1341TIP3   OH225513   2.122   0.680  13.027  0.1298 -0.2861 -0.0615
 1341TIP3    H125514   2.172   0.652  13.104 -0.9602  3.3706  2.2932
 1341TIP3    H225515   2.031   0.663  13.051 -0.3708  2.6378  0.4677
 1342TIP3   OH225516   2.518   5.604  16.051 -0.7800  0.2966  0.4922
 1342TIP3    H125517   2.513   5.538  16.120  1.0620  0.1006  0.4791
 1342TIP3    H225518   2.611   5.621  16.040 -0.9624 -0.0578 -2.2905
 1343TIP3   OH225519   5.979   0.400  14.094 -0.1667  0.0885 -0.2989
 1343TIP3    H125520   5.925   0.411  14.016 -0.6639  0.6746  0.1200
 1343TIP3    H225521   5.987   0.306  14.104 -0.7508  0.0007 -0.6131
 1344TIP3   OH225522   6.001   2.072  15.642 -0.2261 -0.5708  0.1268
 1344TIP3    H125523   5.994   2.152  15.694 -1.3370 -0.7645  0.2809
 1344TIP3    H225524   5.961   2.094  15.558  0.6141 -0.5840 -0.2894
 1345TIP3   OH225525   4.403   4.142  14.861 -0.0846 -0.0704 -0.2238
 1345TIP3    H125526   4.379   4.233  14.843 -1.3153 -0.3094  0.0745
 1345TIP3    H225527   4.342   4.091  14.807  0.7188 -0.7148 -0.5306
 1346TIP3   OH225528   2.697   2.255   1.951 -0.4326 -0.5542  0.2432
 1346TIP3    H125529   2.713   2.348   1.934 -0.4781 -0.9233 -2.1879
 1346TIP3    H225530   2.621   2.254   2.009 -1.0955  0.9292 -0.5339
 1347TIP3   OH225531   0.677   4.516  12.109  0.2057  0.1261 -0.0665
 1347TIP3    H125532   0.638   4.480  12.189 -1.0968  0.8906 -0.3283
 1347TIP3    H225533   0.767   4.539  12.134  0.1075 -0.5005  0.9163
 1348TIP3   OH225534   2.515   3.335  14.444  0.4386 -0.5402 -0.1022
 1348TIP3    H125535   2.425   3.362  14.460  0.4341  0.0631 -1.0425
 1348TIP3    H225536   2.562   3.356  14.524  0.4356  2.3338 -0.7564
 1349TIP3   OH225537   4.790   0.956  11.465  0.4678 -0.5465  0.5534
 1349TIP3    H125538   4.707   0.976  11.510  0.8968 -0.0977  1.1545
 1349TIP3    H225539   4.857   0.993  11.521  0.9740  1.0399 -1.0038
 1350TIP3   OH225540   2.253   2.318  16.679  0.3494  0.1155 -0.3238
 1350TIP3    H125541   2.305   2.316  16.599 -0.1040  0.7181 -0.6325
 1350TIP3    H225542   2.216   2.406  16.682 -0.1669 -0.1130  0.2061
 1351TIP3   OH225543   3.420   3.787  11.241 -0.4424  0.2958  0.3829
 1351TIP3    H125544   3.347   3.756  11.295 -0.2444  0.7614  0.9186
 1351TIP3    H225545   3.494   3.733  11.268 -0.3549  0.4973  0.5503
 1352TIP3   OH225546   2.690   4.633  16.396  0.3019 -0.1116 -0.2910
 1352TIP3    H125547   2.758   4.675  16.448 -0.4975 -0.5796  1.1995
 1352TIP3    H225548   2.669   4.697  16.327 -0.1201  1.4997  1.2552
 1353TIP3   OH225549   3.764   0.212   4.713 -0.0260 -0.4577 -0.0747
 1353TIP3    H125550   3.840   0.224   4.656  0.0020  3.8296  0.5077
 1353TIP3    H225551   3.797   0.228   4.801 -1.1339 -1.1376  0.4831
 1354TIP3   OH225552   0.780   5.983  14.943 -0.0276 -0.8025 -0.3557
 1354TIP3    H125553   0.874   5.980  14.960 -0.2557 -1.7077  0.8440
 1354TIP3    H225554   0.742   6.017  15.024 -0.7080  0.0635 -1.0166
 1355TIP3   OH225555   5.185   3.622   4.792  0.3029 -0.2178  0.8147
 1355TIP3    H125556   5.214   3.687   4.856  1.5243 -1.7851  1.9173
 1355TIP3    H225557   5.176   3.541   4.842  1.0003 -1.4364 -0.9420
 1356TIP3   OH225558   0.384   5.006  13.095  0.1669 -0.3950 -0.0465
 1356TIP3    H125559   0.380   4.914  13.122  1.8776 -0.6355 -0.4876
 1356TIP3    H225560   0.363   5.004  13.002  2.0516 -0.6220 -0.5016
 1357TIP3   OH225561   3.416   1.875  13.338  0.4206 -0.1971 -0.6076
 1357TIP3    H125562   3.467   1.903  13.414  0.5348  1.5149 -1.2677
 1357TIP3    H225563   3.419   1.950  13.278 -0.3165 -1.2132 -1.9702
 1358TIP3   OH225564   4.323   0.510   4.674  0.2290 -0.7164 -0.0430
 1358TIP3    H125565   4.395   0.462   4.715  0.5550  1.6725  2.5043
 1358TIP3    H225566   4.244   0.475   4.717  0.0615 -1.6191 -1.0448
 1359TIP3   OH225567   4.011   5.383   1.823  0.0157  0.4566  0.1796
 1359TIP3    H125568   4.062   5.462   1.807 -0.1761  0.3179 -1.2026
 1359TIP3    H225569   4.061   5.337   1.891  0.7791  1.1816  0.1329
 1360TIP3   OH225570   6.720   1.910   1.018  0.1330 -0.3002 -0.1662
 1360TIP3    H125571   6.708   1.834   0.961  0.2410  1.7806 -3.2179
 1360TIP3    H225572   6.641   1.962   1.006 -0.4503 -0.3578  2.7492
 1361TIP3   OH225573   2.078   0.449   2.308 -0.9575 -0.0398 -0.1378
 1361TIP3    H125574   2.111   0.524   2.357  1.0161 -1.7936  1.3783
 1361TIP3    H225575   1.983   0.462   2.307 -0.6421  2.9196 -0.7836
 1362TIP3   OH225576   0.594   6.665   1.685  0.3107  0.3480  0.4584
 1362TIP3    H125577   0.558   6.708   1.608 -1.1762 -0.4030  0.7066
 1362TIP3    H225578   0.552   6.709   1.759 -1.2004 -1.4012  0.7219
 1363TIP3   OH225579   2.806   0.803  15.639  0.4168  0.0981  0.1280
 1363TIP3    H125580   2.751   0.730  15.666  1.1993  0.1339  2.0138
 1363TIP3    H225581   2.889   0.763  15.613 -0.3992  0.0412 -2.7205
 1364TIP3   OH225582   2.439   6.098  11.695  0.3920 -0.1106  0.1680
 1364TIP3    H125583   2.438   6.188  11.663  2.1335  0.1317  0.6809
 1364TIP3    H225584   2.498   6.051  11.636 -0.2194 -0.8577  0.1201
 1365TIP3   OH225585   6.209   2.731  14.746  0.7210 -0.5051 -0.2423
 1365TIP3    H125586   6.194   2.650  14.696  0.6542 -0.3224 -0.5173
 1365TIP3    H225587   6.177   2.801  14.689 -0.2604 -0.3685  0.4373
 1366TIP3   OH225588   0.400   2.625  11.921  0.4726 -0.0608 -0.0605
 1366TIP3    H125589   0.362   2.697  11.970  0.2489 -1.5134  2.0664
 1366TIP3    H225590   0.493   2.645  11.917  0.1572  1.2809 -1.2609
 1367TIP3   OH225591   4.122   4.110   1.517 -0.2047 -0.2798  0.0990
 1367TIP3    H125592   4.134   4.205   1.512  0.2910 -0.3640 -0.3560
 1367TIP3    H225593   4.202   4.073   1.479  0.5305 -0.9102  2.1314
 1368TIP3   OH225594   5.108   6.124   4.953 -0.2423  0.5766 -0.0793
 1368TIP3    H125595   5.150   6.203   4.919 -0.3452  0.8368  0.3922
 1368TIP3    H225596   5.084   6.146   5.043 -0.4013  0.0574  0.0100
 1369TIP3   OH225597   3.171   0.756   6.178  0.4502 -0.0646  0.2123
 1369TIP3    H125598   3.109   0.806   6.126  0.8290  0.3920  0.1887
 1369TIP3    H225599   3.215   0.821   6.233  1.9925 -0.1196 -0.8665
 1370TIP3   OH225600   2.449   2.007   4.010 -0.3161  0.4278 -0.6063
 1370TIP3    H125601   2.533   2.006   4.057 -0.5872  1.6184 -0.0727
 1370TIP3    H225602   2.428   1.914   3.998 -0.2670  0.0515  1.6913
 1371TIP3   OH225603   0.713   1.415  11.131  0.1383 -0.9619  0.4145
 1371TIP3    H125604   0.678   1.478  11.067 -0.1363 -0.8504  0.6727
 1371TIP3    H225605   0.707   1.460  11.215  0.4703 -1.1224  0.5247
 1372TIP3   OH225606   2.474   3.183  12.046  0.4531 -0.3471  0.3249
 1372TIP3    H125607   2.404   3.219  11.993  0.5819  1.4471  1.2877
 1372TIP3    H225608   2.474   3.089  12.026 -0.8796 -0.0681 -1.1820
 1373TIP3   OH225609   5.603   2.481   4.168 -0.5229 -0.1045  0.8147
 1373TIP3    H125610   5.526   2.493   4.112  0.1751  2.5169  0.2675
 1373TIP3    H225611   5.673   2.527   4.123  1.3404 -2.1012  1.4836
 1374TIP3   OH225612   0.820   2.034   5.494  0.6370 -0.3950 -0.3526
 1374TIP3    H125613   0.801   1.978   5.418 -0.7222 -0.3320 -0.0704
 1374TIP3    H225614   0.799   2.123   5.464  1.6460 -0.1666 -0.4126
 1375TIP3   OH225615   6.725   2.452  11.243  0.5041  0.8439 -0.4853
 1375TIP3    H125616   6.705   2.358  11.244 -0.1324  0.9753 -0.6558
 1375TIP3    H225617   6.803   2.459  11.188  0.0780  0.5006 -1.1463
 1376TIP3   OH225618   3.476   3.009  15.602 -0.6650 -0.1571 -0.4401
 1376TIP3    H125619   3.398   2.953  15.597 -1.1843  0.4813  0.2844
 1376TIP3    H225620   3.441   3.098  15.599  0.0394  0.1336 -0.1116
 1377TIP3   OH225621   6.793   6.131  12.385 -0.3710  0.2189  0.0353
 1377TIP3    H125622   6.751   6.092  12.308  1.7959  0.7555 -1.5415
 1377TIP3    H225623   6.737   6.205  12.408 -1.2136 -0.1095 -0.8897
 1378TIP3   OH225624   3.790   0.068  16.817  0.0068 -0.0295  0.2841
 1378TIP3    H125625   3.715   0.050  16.874 -0.2349 -1.1871 -0.3660
 1378TIP3    H225626   3.812  -0.018  16.780  1.8604  0.2355  0.7112
 1379TIP3   OH225627   4.559   2.971  17.081  0.2366  0.3301  0.0304
 1379TIP3    H125628   4.590   2.957  17.170  0.9650  0.6129 -0.1715
 1379TIP3    H225629   4.501   2.897  17.064 -0.5512  0.6871  1.0101
 1380TIP3   OH225630   6.022   1.340  14.588 -0.0357  0.2050 -0.1691
 1380TIP3    H125631   6.062   1.278  14.649  1.1047  0.7178 -0.3722
 1380TIP3    H225632   6.024   1.423  14.634  1.2627  0.6932 -1.0472
 1381TIP3   OH225633   5.293   2.330   4.434 -0.7374  0.5621  0.2506
 1381TIP3    H125634   5.266   2.326   4.526 -0.8269  2.1456  0.3354
 1381TIP3    H225635   5.388   2.342   4.438 -0.5309 -0.8531  0.0711
 1382TIP3   OH225636   2.250   2.720  16.931 -0.0289  0.1160  0.3851
 1382TIP3    H125637   2.299   2.782  16.984  0.2717 -0.6190  0.9897
 1382TIP3    H225638   2.170   2.702  16.982 -0.9301  1.2723 -0.5723
 1383TIP3   OH225639   1.798   4.181   2.830 -0.1804 -0.3964 -0.0113
 1383TIP3    H125640   1.888   4.161   2.804 -0.8171  0.7717 -3.6799
 1383TIP3    H225641   1.791   4.276   2.823 -1.6926 -0.4671  0.2376
 1384TIP3   OH225642   0.586   2.849  11.676 -0.0508 -0.0279  0.0326
 1384TIP3    H125643   0.573   2.837  11.582 -0.8094 -0.3108  0.1662
 1384TIP3    H225644   0.629   2.934  11.683 -0.3262  0.1684 -0.5501
 1385TIP3   OH225645   2.720   0.092   6.574 -0.3970 -0.4423 -0.4715
 1385TIP3    H125646   2.708   0.186   6.559  0.3426 -0.7238 -3.5626
 1385TIP3    H225647   2.807   0.085   6.612 -0.8238  0.1491  0.6673
 1386TIP3   OH225648   1.247   5.143   2.045 -0.0314  0.1545  0.0281
 1386TIP3    H125649   1.267   5.168   1.955  1.2028 -0.7389  0.0247
 1386TIP3    H225650   1.332   5.124   2.084 -0.7224 -5.6941 -0.4902
 1387TIP3   OH225651   2.412   3.898  14.226 -0.7253  0.3040  0.0213
 1387TIP3    H125652   2.486   3.838  14.215 -0.4111  0.7501 -0.3772
 1387TIP3    H225653   2.337   3.852  14.189 -0.4664  0.1935 -0.3676
 1388TIP3   OH225654   4.736   3.385  16.828 -0.2795 -0.4761  0.0446
 1388TIP3    H125655   4.689   3.339  16.898  0.3767  1.4566  1.8796
 1388TIP3    H225656   4.795   3.444  16.874  0.5477  0.5446 -2.1824
 1389TIP3   OH225657   4.068   6.678   3.976 -0.2115  0.5410 -0.3430
 1389TIP3    H125658   4.024   6.638   3.901 -0.1902 -2.2528  1.0172
 1389TIP3    H225659   4.145   6.721   3.938  0.2582 -1.5161 -1.8957
 1390TIP3   OH225660   3.219   0.704  16.645 -0.0886 -0.0033  0.0960
 1390TIP3    H125661   3.205   0.610  16.649 -0.9418  0.0796 -0.5287
 1390TIP3    H225662   3.261   0.719  16.561 -0.2874  0.2001  0.0287
 1391TIP3   OH225663   2.435   6.729   3.836  0.4980  0.1298  0.0067
 1391TIP3    H125664   2.408   6.661   3.774  2.5301  0.1257 -0.9535
 1391TIP3    H225665   2.359   6.740   3.894 -1.3709 -0.0803 -2.2589
 1392TIP3   OH225666   3.302   6.166   3.691 -0.1083  0.0783 -0.2634
 1392TIP3    H125667   3.393   6.161   3.721 -0.2901 -1.0868  0.1819
 1392TIP3    H225668   3.268   6.246   3.731  0.3727 -0.1419  0.6283
 1393TIP3   OH225669   0.918   3.308  13.307  0.2054 -0.1658 -0.2940
 1393TIP3    H125670   0.980   3.318  13.234 -0.3954  0.7012 -0.7009
 1393TIP3    H225671   0.893   3.397  13.330 -0.9382 -0.4948 -0.1833
 1394TIP3   OH225672   5.285   2.852   2.648  0.4512 -0.0736 -0.1555
 1394TIP3    H125673   5.268   2.765   2.611  0.0529 -0.0887  0.0557
 1394TIP3    H225674   5.371   2.844   2.689  0.8390 -0.0982 -0.9421
 1395TIP3   OH225675   1.967   6.167   5.035 -0.5934  0.7182 -0.9213
 1395TIP3    H125676   2.010   6.252   5.025 -1.0291  1.3682  1.9767
 1395TIP3    H225677   1.876   6.183   5.010 -0.7731  1.2412  0.0328
 1396TIP3   OH225678   4.782   1.513   1.106  0.0734 -0.3660  0.0507
 1396TIP3    H125679   4.758   1.432   1.061 -2.8385  0.9675 -1.1153
 1396TIP3    H225680   4.715   1.524   1.173 -1.1994  2.2369 -1.4891
 1397TIP3   OH225681   5.603   3.670   0.922 -0.4133 -0.1484  0.0855
 1397TIP3    H125682   5.633   3.691   1.011  0.5073 -0.4826 -0.1326
 1397TIP3    H225683   5.552   3.590   0.932 -1.1105  0.3375  0.4442
 1398TIP3   OH225684   5.776   0.518   0.985  0.3202 -0.5155  0.0675
 1398TIP3    H125685   5.801   0.490   1.073  0.5134  0.8032  0.4465
 1398TIP3    H225686   5.841   0.478   0.927  0.0658 -1.5715  0.4795
 1399TIP3   OH225687   1.282   5.711   2.808  0.8085  0.3046  0.0939
 1399TIP3    H125688   1.351   5.711   2.874  0.7598  0.0357  0.1453
 1399TIP3    H225689   1.226   5.784   2.832  0.8764  0.3022  0.2612
 1400TIP3   OH225690   5.373   6.254  11.004 -0.4987 -0.2595  0.0267
 1400TIP3    H125691   5.312   6.324  10.979 -2.5061 -1.8948  0.0768
 1400TIP3    H225692   5.391   6.208  10.922 -2.1695 -1.8868  0.5144
 1401TIP3   OH225693   3.180   0.364  10.294  0.2196 -0.6887  0.0511
 1401TIP3    H125694   3.193   0.409  10.211  0.8239 -2.0435 -0.6310
 1401TIP3    H225695   3.117   0.295  10.274 -0.5207 -0.3085  1.0067
 1402TIP3   OH225696   4.421   1.698  15.956 -0.4974 -0.0504  0.4128
 1402TIP3    H125697   4.364   1.766  15.991  1.3774  1.8757 -0.1120
 1402TIP3    H225698   4.425   1.632  16.026 -2.5185  0.2049  0.8334
 1403TIP3   OH225699   0.107   6.333   4.746 -0.4020  0.2990  0.1916
 1403TIP3    H125700   0.119   6.341   4.841 -0.5817  0.4081  0.2061
 1403TIP3    H225701   0.024   6.378   4.729 -0.0361  0.8741 -0.1111
 1404TIP3   OH225702   2.977   4.990  15.785  0.4701  0.5088  0.3212
 1404TIP3    H125703   2.887   4.958  15.793  0.5641 -0.1943 -1.1921
 1404TIP3    H225704   3.017   4.970  15.870 -0.2892 -0.8366  0.3829
 1405TIP3   OH225705   6.553   3.533   1.163 -0.5688  0.1577 -0.3044
 1405TIP3    H125706   6.604   3.608   1.132  0.7271 -0.2478  0.7326
 1405TIP3    H225707   6.534   3.553   1.254  0.9189 -1.2859  0.3828
 1406TIP3   OH225708   3.391   0.582  14.736  1.1203 -0.1704 -0.6127
 1406TIP3    H125709   3.485   0.600  14.724  1.5482  0.1933  2.6116
 1406TIP3    H225710   3.350   0.668  14.735  1.0673 -0.1926 -0.1752
 1407TIP3   OH225711   2.209   0.182  14.244 -0.4633  0.3658 -0.1355
 1407TIP3    H125712   2.173   0.094  14.233 -0.5738  0.3656  0.2242
 1407TIP3    H225713   2.208   0.219  14.155  1.4415 -0.6952 -0.6582
 1408TIP3   OH225714   2.478   4.676  15.840  0.1850 -0.3794  0.1719
 1408TIP3    H125715   2.400   4.686  15.894  0.5097  1.8543  0.3412
 1408TIP3    H225716   2.550   4.670  15.902  0.3730  0.1829  0.0154
 1409TIP3   OH225717   2.687   5.746  15.288 -0.1854  0.2495  0.3192
 1409TIP3    H125718   2.757   5.711  15.343 -0.6415  1.2749  1.5929
 1409TIP3    H225719   2.628   5.672  15.274  1.1785 -0.6773 -0.9071
 1410TIP3   OH225720   2.672   5.080  11.558  0.3636  0.1822 -0.8771
 1410TIP3    H125721   2.577   5.071  11.558  0.2595  1.1555 -1.3434
 1410TIP3    H225722   2.687   5.174  11.547  1.3744  0.1584  0.1796
 1411TIP3   OH225723   5.660   4.032  13.019  0.1096 -0.4881 -0.6010
 1411TIP3    H125724   5.604   4.061  12.947 -2.1248  0.1988  1.3000
 1411TIP3    H225725   5.627   4.078  13.096  2.1766 -1.4525  0.9763
 1412TIP3   OH225726   3.484   4.311   3.328  0.2490 -0.1471 -0.5006
 1412TIP3    H125727   3.575   4.284   3.311  0.7518  0.5246  0.9684
 1412TIP3    H225728   3.435   4.229   3.334  0.6888 -0.5070 -1.6035
 1413TIP3   OH225729   6.530   4.327   6.012 -0.1149 -0.0163 -0.1069
 1413TIP3    H125730   6.506   4.255   5.954  0.2788  0.7390 -1.2520
 1413TIP3    H225731   6.538   4.287   6.098  0.4223 -1.4023 -0.7724
 1414TIP3   OH225732   6.342   5.960   5.164  0.5341  0.0755  0.1058
 1414TIP3    H125733   6.354   5.888   5.226  1.1067  1.4159  1.5960
 1414TIP3    H225734   6.257   5.997   5.187  0.4377  0.1667 -0.3759
 1415TIP3   OH225735   3.443   2.676  13.232  0.5670  0.1961  0.0666
 1415TIP3    H125736   3.446   2.581  13.218 -2.2011  0.1389 -0.5826
 1415TIP3    H225737   3.413   2.687  13.322  1.3742  0.4812  0.3097
 1416TIP3   OH225738   0.916   0.777   5.732  0.3030  0.2622  0.3924
 1416TIP3    H125739   1.001   0.822   5.730 -0.7499  2.3926  1.2876
 1416TIP3    H225740   0.871   0.813   5.808 -1.9127  0.1342 -0.7947
 1417TIP3   OH225741   6.716   5.419   5.086  0.4228  0.6736 -0.0011
 1417TIP3    H125742   6.708   5.384   5.175 -2.2739  0.6016 -0.2049
 1417TIP3    H225743   6.775   5.357   5.042  1.3525  0.3992  1.5517
 1418TIP3   OH225744   5.156   6.340   1.813 -0.5987  0.0731 -0.1279
 1418TIP3    H125745   5.223   6.305   1.754 -0.3099 -0.5354  0.5567
 1418TIP3    H225746   5.129   6.421   1.771  2.7647  2.0164  1.0782
 1419TIP3   OH225747   6.407   2.463   5.403 -0.4759  0.6218 -0.1024
 1419TIP3    H125748   6.328   2.410   5.415 -0.1263  0.3475  1.0472
 1419TIP3    H225749   6.408   2.482   5.309 -1.3912 -0.1715 -0.2914
 1420TIP3   OH225750   1.308   2.204   6.265 -0.0638  0.2084  0.1672
 1420TIP3    H125751   1.324   2.110   6.256 -0.6523  0.0664  0.5407
 1420TIP3    H225752   1.282   2.216   6.356  0.4601  0.8089  0.2507
 1421TIP3   OH225753   0.070   1.436  13.578 -0.6617 -0.1609  0.4111
 1421TIP3    H125754   0.138   1.504  13.573 -0.5810 -0.1824  1.1622
 1421TIP3    H225755   0.072   1.394  13.492 -0.6101  0.6859 -0.0114
 1422TIP3   OH225756   4.836   0.539  10.929  0.7557 -0.1957 -0.4190
 1422TIP3    H125757   4.879   0.574  10.851 -0.3162  1.5375 -0.2835
 1422TIP3    H225758   4.796   0.615  10.971 -0.9546 -1.4656  0.3898
 1423TIP3   OH225759   1.046   6.176   3.160  0.2355  0.0726  0.3631
 1423TIP3    H125760   1.076   6.085   3.159 -0.8955 -0.3126 -0.0878
 1423TIP3    H225761   0.955   6.172   3.133  0.4734  1.4764 -0.7781
 1424TIP3   OH225762   6.631   5.529   4.751 -0.0052 -0.2731  0.4991
 1424TIP3    H125763   6.647   5.566   4.665 -2.1186  2.9016  1.3002
 1424TIP3    H225764   6.717   5.524   4.792  0.9966 -1.5368 -1.5994
 1425TIP3   OH225765   1.562   4.331  14.756 -0.2788  0.3280 -0.1595
 1425TIP3    H125766   1.589   4.322  14.847 -2.7803  2.7575  0.9738
 1425TIP3    H225767   1.613   4.405  14.723 -0.2460  0.2145 -0.3669
 1426TIP3   OH225768   6.265   6.545   5.975 -0.2452  0.2427 -0.0540
 1426TIP3    H125769   6.307   6.546   6.061 -0.1157 -0.8022 -0.1027
 1426TIP3    H225770   6.337   6.535   5.913 -0.3693  0.6803 -0.2769
 1427TIP3   OH225771   0.821   1.964  12.261 -0.5794 -0.3972  0.3897
 1427TIP3    H125772   0.787   1.992  12.177 -0.3235 -2.0482 -0.3123
 1427TIP3    H225773   0.758   1.997  12.325 -0.7590  0.8980 -0.4386
 1428TIP3   OH225774   1.235   2.836  13.640  0.0975 -0.1097  0.2528
 1428TIP3    H125775   1.327   2.838  13.615  0.0548 -1.7325 -0.2150
 1428TIP3    H225776   1.196   2.774  13.578 -1.2740  0.4270  0.5538
 1429TIP3   OH225777   4.630   1.266   2.344  0.2573 -0.2142 -0.3022
 1429TIP3    H125778   4.702   1.207   2.368  1.9880  1.7456 -0.3482
 1429TIP3    H225779   4.566   1.210   2.301  2.4741 -1.8332 -1.7040
 1430TIP3   OH225780   1.362   4.209  16.045  0.0073 -0.5014  0.6970
 1430TIP3    H125781   1.314   4.285  16.078  0.8713 -0.6797  2.5091
 1430TIP3    H225782   1.332   4.198  15.955 -1.3404  0.9885  0.9292
 1431TIP3   OH225783   0.940   6.481  11.589 -0.0815  0.1666 -0.1779
 1431TIP3    H125784   0.846   6.482  11.569  0.2587 -0.4712 -1.9902
 1431TIP3    H225785   0.977   6.419  11.527  1.6692  1.0415 -0.0700
 1432TIP3   OH225786   2.201   0.550   5.478  0.6634  0.7879  0.5272
 1432TIP3    H125787   2.180   0.457   5.470  1.4152  0.5997  0.7109
 1432TIP3    H225788   2.128   0.595   5.434 -0.3113  0.1672  1.4430
 1433TIP3   OH225789   6.616   2.469  12.870  0.8069  0.4944 -0.1933
 1433TIP3    H125790   6.620   2.416  12.790  2.7330 -0.7052  0.6310
 1433TIP3    H225791   6.523   2.470  12.893  0.1639  1.0345 -2.5104
 1434TIP3   OH225792   5.583   1.038   1.656  0.0663 -0.7906 -0.0460
 1434TIP3    H125793   5.651   0.972   1.670 -0.3788 -0.9013  1.8209
 1434TIP3    H225794   5.596   1.101   1.727 -1.0924 -0.2249 -0.3159
 1435TIP3   OH225795   5.955   0.230   5.382 -0.1910  0.3775  0.3741
 1435TIP3    H125796   5.942   0.322   5.359 -1.4083  0.5358  1.5816
 1435TIP3    H225797   5.971   0.230   5.476 -1.6684 -0.7379  0.6697
 1436TIP3   OH225798   1.791   6.355  12.862  0.2131 -0.6432 -0.1386
 1436TIP3    H125799   1.872   6.341  12.814 -1.3422 -0.3999 -3.0280
 1436TIP3    H225800   1.793   6.448  12.887  0.1633 -0.2455 -1.5580
 1437TIP3   OH225801   2.889   2.788   5.933 -0.2967  0.0075 -0.6714
 1437TIP3    H125802   2.880   2.870   5.981 -0.2863  0.7531 -1.8891
 1437TIP3    H225803   2.975   2.754   5.959  0.2867  1.0732 -1.1487
 1438TIP3   OH225804   1.717   3.827   1.108 -0.2231  0.5691  0.0348
 1438TIP3    H125805   1.689   3.739   1.135  2.7452 -0.1545  1.1259
 1438TIP3    H225806   1.736   3.817   1.014  0.1754  0.0250  0.1683
 1439TIP3   OH225807   4.101   4.119  15.530 -0.2524 -0.3415  0.1459
 1439TIP3    H125808   4.072   4.054  15.594 -1.6454 -1.2966 -1.3764
 1439TIP3    H225809   4.171   4.075  15.481  0.9068  0.4358  1.0409
 1440TIP3   OH225810   4.002   1.741  10.828  0.5015 -0.3450  0.0926
 1440TIP3    H125811   4.071   1.808  10.835 -1.9790  2.3648  0.5670
 1440TIP3    H225812   3.958   1.744  10.913  0.4480 -2.8681  0.2141
 1441TIP3   OH225813   0.274   1.073   2.301 -0.1380 -0.1307 -0.4438
 1441TIP3    H125814   0.289   0.979   2.290 -1.0015 -0.1480 -1.5992
 1441TIP3    H225815   0.360   1.109   2.321  0.2182 -1.1502 -0.1053
 1442TIP3   OH225816   5.641   5.635  14.772 -0.2999 -0.2233 -0.6819
 1442TIP3    H125817   5.659   5.552  14.817  2.1053  0.2746 -0.5465
 1442TIP3    H225818   5.656   5.616  14.680 -0.2604 -0.0648 -0.7086
 1443TIP3   OH225819   3.332   0.426   5.439 -0.4841 -0.2249 -0.2795
 1443TIP3    H125820   3.362   0.450   5.351  2.8451  1.6887  1.1747
 1443TIP3    H225821   3.298   0.507   5.476 -0.0502 -0.5214  0.8086
 1444TIP3   OH225822   3.864   0.447  16.188  0.6275 -0.2986  0.2563
 1444TIP3    H125823   3.874   0.418  16.098  1.4621  0.8873 -0.0571
 1444TIP3    H225824   3.788   0.399  16.221 -0.4848  0.1934 -1.4759
 1445TIP3   OH225825   3.054   1.580  14.274  0.1973  0.0659  0.3339
 1445TIP3    H125826   3.067   1.666  14.234  2.4580 -0.2895  0.1661
 1445TIP3    H225827   3.116   1.577  14.346 -2.1641 -0.2194  2.4813
 1446TIP3   OH225828   4.107   1.666  16.498 -0.2190 -0.6583 -0.5703
 1446TIP3    H125829   4.050   1.637  16.427 -1.2732 -1.6739  0.6286
 1446TIP3    H225830   4.063   1.742  16.535  0.3406 -0.1142 -1.0168
 1447TIP3   OH225831   5.407   2.613  13.647  0.1273 -0.3592  0.2209
 1447TIP3    H125832   5.463   2.686  13.619  0.0234 -0.2297  0.3450
 1447TIP3    H225833   5.339   2.655  13.700  1.1390 -0.7652  1.8727
 1448TIP3   OH225834   2.551   3.849  14.815 -0.3295  0.0550  0.2421
 1448TIP3    H125835   2.495   3.782  14.855  0.3554 -0.1227  0.9265
 1448TIP3    H225836   2.503   3.930  14.825  0.1037  0.1203  2.0391
 1449TIP3   OH225837   0.472   5.791   4.676 -0.4984  0.0382  0.0701
 1449TIP3    H125838   0.489   5.713   4.728 -1.4631 -0.6586 -0.6428
 1449TIP3    H225839   0.559   5.826   4.657 -0.0712 -0.6761  0.6503
 1450TIP3   OH225840   0.947   1.712   3.101  0.0704 -0.3779  0.4114
 1450TIP3    H125841   1.000   1.754   3.034 -2.3050 -0.2334 -1.5109
 1450TIP3    H225842   0.985   1.742   3.184  0.9238  2.3382 -0.8496
 1451TIP3   OH225843   4.478   0.450   2.015  0.1264  0.0807  0.0540
 1451TIP3    H125844   4.451   0.512   1.947  0.2183 -0.4617 -0.4882
 1451TIP3    H225845   4.404   0.447   2.076 -0.9588 -1.1906 -1.2728
 1452TIP3   OH225846   5.672   0.276   1.321 -0.0804 -0.1166  0.1348
 1452TIP3    H125847   5.714   0.275   1.235  0.4930 -1.8105  0.4015
 1452TIP3    H225848   5.731   0.328   1.376  1.1652 -1.5792  0.2384
 1453TIP3   OH225849   1.688   3.669  15.455 -0.4584 -0.0500  0.1369
 1453TIP3    H125850   1.780   3.684  15.478  0.1170 -0.3407 -1.8445
 1453TIP3    H225851   1.639   3.722  15.518  0.9352 -1.3745  2.4836
 1454TIP3   OH225852   3.912   1.681  13.655 -0.5261  0.3419 -0.0331
 1454TIP3    H125853   3.885   1.772  13.640 -0.7544  0.1820 -0.6022
 1454TIP3    H225854   3.850   1.628  13.604  0.5359 -0.0495 -0.9692
 1455TIP3   OH225855   4.397   0.972  11.647  0.3445  0.4048  0.5768
 1455TIP3    H125856   4.471   0.915  11.627  0.2587  0.9909 -1.7590
 1455TIP3    H225857   4.379   0.957  11.740  2.1838 -1.1339  0.7478
 1456TIP3   OH225858   2.850   6.340   1.349 -0.0621 -0.2161  0.2386
 1456TIP3    H125859   2.804   6.276   1.402  0.1517 -0.8420 -0.3249
 1456TIP3    H225860   2.787   6.368   1.283  0.1977 -0.6902 -0.2144
 1457TIP3   OH225861   4.634   4.743  13.454 -0.3899 -0.1260  0.2663
 1457TIP3    H125862   4.577   4.766  13.381 -0.7743  1.0719  0.9133
 1457TIP3    H225863   4.596   4.788  13.529  1.3780  0.6700  0.7415
 1458TIP3   OH225864   5.822   2.400  13.959  0.3444 -0.1325  0.4511
 1458TIP3    H125865   5.809   2.320  14.008  0.9417 -0.0283  0.7916
 1458TIP3    H225866   5.744   2.408  13.904  0.7281 -1.4715 -0.3359
 1459TIP3   OH225867   1.117   4.142  12.355  0.1797 -0.4057 -0.1194
 1459TIP3    H125868   1.056   4.114  12.423 -0.1087 -1.2434 -0.7094
 1459TIP3    H225869   1.177   4.069  12.345 -0.2355 -0.6148 -1.2774
 1460TIP3   OH225870   5.732   2.922   4.095 -0.0566  0.3776 -0.1324
 1460TIP3    H125871   5.824   2.942   4.113  0.2058 -1.4646  0.7266
 1460TIP3    H225872   5.693   2.911   4.181 -0.4564 -1.4764 -0.5196
 1461TIP3   OH225873   5.604   5.131   0.101 -0.2565 -0.1361 -0.5994
 1461TIP3    H125874   5.591   5.043   0.138 -0.2901 -0.4311 -1.3020
 1461TIP3    H225875   5.692   5.129   0.064  1.7683  1.6092  3.4297
 1462TIP3   OH225876   1.106   4.636  13.258 -0.2394 -0.4151  0.1173
 1462TIP3    H125877   1.061   4.688  13.192  1.4334  0.8506 -0.0973
 1462TIP3    H225878   1.135   4.700  13.324  0.4871 -1.2852  0.6706
 1463TIP3   OH225879   5.741   5.908   1.122 -0.0208  0.1863  0.4634
 1463TIP3    H125880   5.660   5.917   1.173 -0.3919 -1.8804  0.3176
 1463TIP3    H225881   5.746   5.989   1.072 -2.6136 -0.0553 -0.3601
 1464TIP3   OH225882   1.704   6.138  13.961  0.0163 -0.1208 -0.8083
 1464TIP3    H125883   1.692   6.050  13.927  0.6342  0.2593 -2.0587
 1464TIP3    H225884   1.642   6.192  13.912 -1.7953 -0.1186  1.3083
 1465TIP3   OH225885   5.602   1.068  10.593  0.1299 -0.1835 -0.0096
 1465TIP3    H125886   5.522   1.119  10.575  0.7572  0.9312  0.2488
 1465TIP3    H225887   5.673   1.125  10.565  0.8568 -1.0856 -0.0438
 1466TIP3   OH225888   3.141   2.228  13.009 -0.0647 -0.8151  0.5601
 1466TIP3    H125889   3.138   2.141  13.048 -0.6593 -1.4585 -0.8600
 1466TIP3    H225890   3.121   2.288  13.081  1.4725 -1.7523  1.8008
 1467TIP3   OH225891   0.352   2.296   1.259  0.0414  0.0848  0.3125
 1467TIP3    H125892   0.300   2.374   1.280  0.5679  0.5219  0.0192
 1467TIP3    H225893   0.368   2.255   1.344 -1.2574 -0.3737  0.3549
 1468TIP3   OH225894   2.895   5.269  13.037  0.5339  0.1414 -0.0146
 1468TIP3    H125895   2.973   5.215  13.037  0.7968  0.5180  0.0847
 1468TIP3    H225896   2.925   5.355  13.007 -0.2658 -0.3095 -2.2892
 1469TIP3   OH225897   0.959   3.347   6.571 -0.0150  0.4331  0.5578
 1469TIP3    H125898   0.916   3.286   6.512 -0.1980  0.6844  0.4299
 1469TIP3    H225899   1.027   3.388   6.517 -1.2222  1.8543  0.0286
 1470TIP3   OH225900   6.436   2.985  17.048  0.1153 -0.4998 -0.0105
 1470TIP3    H125901   6.405   2.992  16.958  1.8862  0.7592 -0.5846
 1470TIP3    H225902   6.450   2.891  17.062 -0.2341 -0.7136 -1.0236
 1471TIP3   OH225903   2.842   4.421  13.948  0.2040 -0.0728  0.1451
 1471TIP3    H125904   2.842   4.389  13.857  0.5537 -1.1013  0.4976
 1471TIP3    H225905   2.934   4.419  13.974  0.2685  1.4621  0.1142
 1472TIP3   OH225906   5.060   0.436   4.422  0.5049 -0.2666  0.2317
 1472TIP3    H125907   4.992   0.389   4.470  0.7122 -0.4365  0.3600
 1472TIP3    H225908   5.141   0.415   4.469  0.5114  0.7970  0.7379
 1473TIP3   OH225909   6.677   2.393  13.177  0.6454  0.3200  0.6546
 1473TIP3    H125910   6.650   2.469  13.230 -1.3689 -0.6170  1.0955
 1473TIP3    H225911   6.637   2.409  13.092  0.1689 -0.2440  0.7665
 1474TIP3   OH225912   5.616   4.202   4.603 -0.3500  0.3647  0.2881
 1474TIP3    H125913   5.556   4.252   4.659 -1.6711 -2.5159  1.6931
 1474TIP3    H225914   5.562   4.173   4.530 -0.1674 -0.5187  0.4848
 1475TIP3   OH225915   2.269   6.347   0.511  0.0772  0.4172 -0.3052
 1475TIP3    H125916   2.187   6.396   0.506 -0.8733 -1.2253 -2.3655
 1475TIP3    H225917   2.248   6.271   0.565  0.5297  0.5083 -0.0011
 1476TIP3   OH225918   5.927   4.313   0.146  0.6861  0.6068 -0.1256
 1476TIP3    H125919   5.967   4.260   0.215 -1.0069 -2.0234 -1.0251
 1476TIP3    H225920   5.997   4.372   0.117  2.0931  0.2223  2.2305
 1477TIP3   OH225921   0.212   3.309  16.759  0.3866 -0.0146 -0.2972
 1477TIP3    H125922   0.125   3.340  16.733 -0.7640  0.0545  3.1128
 1477TIP3    H225923   0.272   3.356  16.701 -1.7381  1.2915 -1.6108
 1478TIP3   OH225924   4.916   5.228   4.571 -0.2461  0.2399 -0.2454
 1478TIP3    H125925   4.883   5.194   4.655  1.6075  2.5076  1.5497
 1478TIP3    H225926   4.846   5.286   4.540 -1.5560 -1.6972 -1.0946
 1479TIP3   OH225927   2.481   5.605  13.695  0.3117 -0.5780 -0.2186
 1479TIP3    H125928   2.570   5.617  13.660  0.2701  1.6172  0.2959
 1479TIP3    H225929   2.425   5.653  13.635  0.2769  3.6336  2.7209
 1480TIP3   OH225930   1.001   2.996   1.943  0.0293  0.3122 -0.3227
 1480TIP3    H125931   1.020   3.082   1.906  0.9384 -0.2382 -1.2076
 1480TIP3    H225932   0.923   2.967   1.896 -0.4522  0.7666  0.1878
 1481TIP3   OH225933   3.616   2.752   0.951  0.1399  0.4302 -0.1203
 1481TIP3    H125934   3.574   2.681   0.903  0.3269  1.6726 -2.3026
 1481TIP3    H225935   3.703   2.758   0.912  1.5716 -0.5371  2.6564
 1482TIP3   OH225936   6.622   5.424   0.211  0.2096 -0.1236  0.5002
 1482TIP3    H125937   6.579   5.458   0.134  0.6702 -0.1035  0.2467
 1482TIP3    H225938   6.577   5.465   0.285 -0.1750 -0.0803  0.2403
 1483TIP3   OH225939   3.092   5.828  16.184 -0.3469  0.0942  0.2512
 1483TIP3    H125940   3.011   5.875  16.204 -0.6996 -0.2464 -0.3563
 1483TIP3    H225941   3.119   5.861  16.099 -0.9945 -1.2983 -0.5319
 1484TIP3   OH225942   3.022   1.436  16.482 -0.3395 -0.0092  0.0038
 1484TIP3    H125943   2.977   1.352  16.493  0.9857 -0.6451  0.8664
 1484TIP3    H225944   3.115   1.413  16.477 -0.1006  1.2146 -2.2848
 1485TIP3   OH225945   4.957   5.793  16.066 -0.4227 -0.2529  0.1056
 1485TIP3    H125946   4.928   5.727  16.002  1.6857 -0.3604 -0.8179
 1485TIP3    H225947   5.004   5.858  16.014 -0.7817  0.9800  1.2671
 1486TIP3   OH225948   1.392   2.852   1.347 -0.1687  0.1900  0.9412
 1486TIP3    H125949   1.355   2.926   1.297  1.3953  0.5286  0.2397
 1486TIP3    H225950   1.388   2.881   1.438  1.5703  1.7172  0.5873
 1487TIP3   OH225951   5.637   0.169  14.162 -0.5932 -0.0607  0.0950
 1487TIP3    H125952   5.659   0.183  14.070 -1.3771  1.1340  0.0609
 1487TIP3    H225953   5.547   0.202  14.170  0.3454  2.4431  1.8159
 1488TIP3   OH225954   6.323   3.483   2.275 -0.0528 -0.6018  0.5964
 1488TIP3    H125955   6.268   3.512   2.347  1.9008  0.0058  1.9326
 1488TIP3    H225956   6.310   3.549   2.207 -0.6002 -0.2172  1.0661
 1489TIP3   OH225957   1.507   2.476  13.735  0.1728  0.5987  0.0917
 1489TIP3    H125958   1.483   2.471  13.643 -0.1615  1.8580  0.0869
 1489TIP3    H225959   1.599   2.502  13.734  0.5785 -0.7616  0.1270
 1490TIP3   OH225960   2.266   6.566  14.269 -0.3029  0.1738  0.4199
 1490TIP3    H125961   2.331   6.623  14.229 -1.4491  1.2429 -0.0118
 1490TIP3    H225962   2.315   6.489  14.299  1.1922  1.1267  0.4958
 1491TIP3   OH225963   6.615   3.168   5.174 -0.4536 -0.5496  0.0839
 1491TIP3    H125964   6.624   3.072   5.168 -0.5240 -0.5059 -0.7342
 1491TIP3    H225965   6.578   3.194   5.090 -0.5061  0.1938  0.3356
 1492TIP3   OH225966   3.979   1.042  13.562  0.0475 -0.2998  0.4448
 1492TIP3    H125967   4.005   1.079  13.646  0.7452  1.2913 -0.4275
 1492TIP3    H225968   4.045   1.072  13.500 -0.0667 -2.0079 -0.5815
 1493TIP3   OH225969   1.285   3.027  15.174 -0.1470 -0.5164  0.5181
 1493TIP3    H125970   1.193   3.036  15.200  0.4640  2.1143  2.1687
 1493TIP3    H225971   1.293   3.081  15.096  0.0519 -0.5070  0.5451
 1494TIP3   OH225972   4.909   3.439  12.433 -0.0897  0.1573  0.2447
 1494TIP3    H125973   4.897   3.447  12.528 -1.5236  0.2605  0.0815
 1494TIP3    H225974   4.989   3.388  12.423 -1.3711 -2.2900  1.5730
 1495TIP3   OH225975   0.545   4.192  14.550 -0.5084  0.5949  0.0089
 1495TIP3    H125976   0.546   4.183  14.455 -1.9782 -0.2860  0.0456
 1495TIP3    H225977   0.560   4.285  14.565  0.8510  0.5657 -1.0316
 1496TIP3   OH225978   4.028   0.907   1.841 -0.0663 -0.0075  0.2311
 1496TIP3    H125979   3.971   0.832   1.828  0.0619 -0.0262 -0.2368
 1496TIP3    H225980   4.058   0.930   1.753  0.7173 -0.0596  0.4776
 1497TIP3   OH225981   1.271   5.714   4.168 -0.1544 -0.2284 -0.1136
 1497TIP3    H125982   1.366   5.710   4.159 -0.0708  1.0360  0.1014
 1497TIP3    H225983   1.239   5.742   4.082 -0.3616 -0.8945 -0.2610
 1498TIP3   OH225984   0.267   4.690  14.943 -0.0562  0.1957  0.1309
 1498TIP3    H125985   0.249   4.624  14.876 -2.0078 -0.7581  1.4828
 1498TIP3    H225986   0.360   4.711  14.932  0.0448 -1.0494 -1.8505
 1499TIP3   OH225987   4.198   4.881   3.097  0.1540 -0.1220  0.0584
 1499TIP3    H125988   4.202   4.968   3.138  0.1963  0.4643 -1.1333
 1499TIP3    H225989   4.127   4.889   3.033  1.3943 -0.3605 -1.3879
 1500TIP3   OH225990   0.226   4.557   2.590  0.7911  0.6885 -0.6463
 1500TIP3    H125991   0.148   4.507   2.616 -0.8795  2.4590 -1.9574
 1500TIP3    H225992   0.266   4.503   2.521 -0.7271  0.8457 -1.7190
 1501TIP3   OH225993   2.070   1.835  12.137  0.0053  0.0344 -0.2407
 1501TIP3    H125994   2.134   1.885  12.188  0.1875  1.2701 -1.6353
 1501TIP3    H225995   2.005   1.900  12.109 -1.3480 -1.0232  0.3024
 1502TIP3   OH225996   6.586   5.243   0.661 -0.0079  0.1271  0.0949
 1502TIP3    H125997   6.501   5.215   0.695 -0.6603  0.7919 -0.9295
 1502TIP3    H225998   6.601   5.187   0.585 -0.0527  0.7305 -0.3673
 1503TIP3   OH225999   0.629   1.910   0.877  0.8489 -0.2623 -0.2467
 1503TIP3    H126000   0.628   1.902   0.973  0.3204 -1.6745 -0.3487
 1503TIP3    H226001   0.542   1.943   0.855  0.8334 -0.3102 -0.2582
 1504TIP3   OH226002   1.344   6.536  11.089 -0.4430  0.4264 -0.1324
 1504TIP3    H126003   1.412   6.603  11.083 -1.1778  1.2950  0.8182
 1504TIP3    H226004   1.279   6.561  11.023  1.4712 -2.1205 -3.3092
 1505TIP3   OH226005   1.784   3.892   4.272  0.4730 -0.1497  0.4628
 1505TIP3    H126006   1.796   3.820   4.210  1.2578 -0.7553  1.3102
 1505TIP3    H226007   1.865   3.894   4.323 -0.8130 -0.8259  2.6742
 1506TIP3   OH226008   6.582   5.498   1.274  0.0077 -0.1700 -0.2259
 1506TIP3    H126009   6.665   5.457   1.249  1.2037  1.2935  1.0750
 1506TIP3    H226010   6.538   5.516   1.191  1.7104  0.4003 -1.0644
 1507TIP3   OH226011   3.095   3.558  15.131  0.1470  0.2056  0.1177
 1507TIP3    H126012   3.071   3.632  15.187  0.6945 -0.0047  0.6488
 1507TIP3    H226013   3.045   3.571  15.051  1.1571  1.8414 -0.3086
 1508TIP3   OH226014   3.179   2.771   0.288 -0.2348 -0.3994  0.2794
 1508TIP3    H126015   3.210   2.682   0.301 -1.6364 -0.9017  0.3006
 1508TIP3    H226016   3.104   2.780   0.346 -1.5021  0.0298 -1.3592
 1509TIP3   OH226017   2.014   1.532  15.558 -0.4997 -0.5841  0.1292
 1509TIP3    H126018   1.952   1.593  15.598  0.0205 -0.5442  0.9059
 1509TIP3    H226019   1.992   1.533  15.465 -0.0199  1.3514 -0.0067
 1510TIP3   OH226020   5.573   5.412   4.448  0.2398 -0.0582 -0.1302
 1510TIP3    H126021   5.564   5.319   4.469 -0.0328 -0.4861 -1.9671
 1510TIP3    H226022   5.665   5.432   4.464  0.1472 -0.4445  0.9561
 1511TIP3   OH226023   2.808   0.153   2.203 -0.0791 -0.1775  0.1009
 1511TIP3    H126024   2.756   0.137   2.282 -2.2180 -0.9100 -1.3624
 1511TIP3    H226025   2.768   0.097   2.136  1.9431  0.0680 -1.4211
 1512TIP3   OH226026   1.401   6.629   0.986  0.6537 -0.6460  0.0201
 1512TIP3    H126027   1.421   6.582   1.067  0.5977  1.7497  1.5319
 1512TIP3    H226028   1.325   6.683   1.008  1.0205  0.5311 -1.4293
 1513TIP3   OH226029   3.263   4.503  10.966  0.4369  0.6307 -0.0124
 1513TIP3    H126030   3.284   4.572  10.903  0.2114 -2.5836 -4.0150
 1513TIP3    H226031   3.333   4.439  10.957 -1.1013 -1.3062  0.8309
 1514TIP3   OH226032   0.309   6.407  15.443  0.0138  0.0017  0.0798
 1514TIP3    H126033   0.323   6.314  15.459  0.3847 -0.0455 -0.5039
 1514TIP3    H226034   0.214   6.416  15.434  0.0671 -0.5642 -1.2717
 1515TIP3   OH226035   0.891   5.421  11.862 -0.0542  0.3641 -0.3878
 1515TIP3    H126036   0.882   5.326  11.874  0.2038  0.4154  0.2832
 1515TIP3    H226037   0.837   5.441  11.786  0.9013 -0.5076 -1.3324
 1516TIP3   OH226038   6.739   5.250  13.692  0.1859  0.1129 -0.0058
 1516TIP3    H126039   6.812   5.303  13.660 -0.3435  1.5852  1.1118
 1516TIP3    H226040   6.749   5.250  13.787  0.4648 -2.2811  0.0043
 1517TIP3   OH226041   6.422   3.244  14.609 -0.0125 -0.3856 -0.5049
 1517TIP3    H126042   6.475   3.235  14.530  0.6392 -1.9998  0.0913
 1517TIP3    H226043   6.486   3.250  14.680 -0.5666  1.8051 -0.1126
 1518TIP3   OH226044   1.291   4.941   5.364 -0.3830  0.0734  0.0277
 1518TIP3    H126045   1.284   4.994   5.285  0.1837 -2.7725 -2.0545
 1518TIP3    H226046   1.350   4.870   5.341 -1.5907 -1.8516  2.4273
 1519TIP3   OH226047   2.302   6.508  15.146  0.0120 -0.6852  0.0278
 1519TIP3    H126048   2.355   6.431  15.126 -0.9140 -1.9260  2.0554
 1519TIP3    H226049   2.285   6.501  15.240 -1.2810  1.2515 -0.0227
 1520TIP3   OH226050   3.262   1.332  16.537 -0.8371  0.5035  0.2481
 1520TIP3    H126051   3.249   1.241  16.510 -2.7216 -0.1502  2.8912
 1520TIP3    H226052   3.332   1.327  16.603 -0.8886  0.9589  0.3422
 1521TIP3   OH226053   4.465   6.643   3.982 -0.0969 -0.2091  0.9567
 1521TIP3    H126054   4.543   6.691   3.955  0.0813  0.3568  2.3690
 1521TIP3    H226055   4.455   6.666   4.075 -2.7906  0.9079  0.4625
 1522TIP3   OH226056   6.243   3.685  13.591 -0.3880 -0.2190  0.5111
 1522TIP3    H126057   6.190   3.704  13.513  1.1159  2.0653 -0.0355
 1522TIP3    H226058   6.304   3.618  13.562 -1.1323 -0.8394  0.3404
 1523TIP3   OH226059   2.376   2.950  16.755 -0.0533 -0.0187 -0.1292
 1523TIP3    H126060   2.382   2.872  16.811 -0.7541 -0.4303 -0.6149
 1523TIP3    H226061   2.303   2.932  16.696 -0.6526  1.2918  0.1782
 1524TIP3   OH226062   0.843   0.378   2.669 -0.3775 -0.0157  0.1754
 1524TIP3    H126063   0.900   0.396   2.744  0.6469 -1.1857 -0.2920
 1524TIP3    H226064   0.872   0.293   2.636 -1.5683 -0.0581 -0.8650
 1525TIP3   OH226065   3.857   1.050  14.742  0.2026 -0.3573 -0.4501
 1525TIP3    H126066   3.816   1.086  14.821 -0.8685  0.1152 -1.2046
 1525TIP3    H226067   3.929   0.997  14.775  0.8197  1.1574  0.7929
 1526TIP3   OH226068   1.659   2.042  13.007 -0.3494 -0.0096 -0.2635
 1526TIP3    H126069   1.632   2.114  13.064 -1.2090 -1.1232  0.7865
 1526TIP3    H226070   1.584   1.982  13.006  0.6735 -1.3421 -0.3377
 1527TIP3   OH226071   5.304   0.385  12.624 -0.4649 -0.2063 -0.4119
 1527TIP3    H126072   5.321   0.444  12.697  1.3741 -1.3880  0.1897
 1527TIP3    H226073   5.337   0.432  12.547 -2.7098  1.1815 -0.6181
 1528TIP3   OH226074   5.668   5.819   3.821  0.2658 -0.0727 -0.1391
 1528TIP3    H126075   5.712   5.735   3.807 -1.5170 -0.9455 -0.7612
 1528TIP3    H226076   5.726   5.867   3.881  1.5247 -1.5593 -0.1141
 1529TIP3   OH226077   5.173   0.898   6.267  0.0780  0.1199  0.3154
 1529TIP3    H126078   5.192   0.903   6.173  0.3860  1.1245  0.4186
 1529TIP3    H226079   5.096   0.953   6.278 -1.4902 -1.9564  0.2893
 1530TIP3   OH226080   1.996   0.445  13.376 -0.7648  0.1357 -0.1186
 1530TIP3    H126081   1.981   0.404  13.461 -0.5251  1.1201  0.4042
 1530TIP3    H226082   1.943   0.524  13.378 -0.2952  0.4684 -0.6562
 1531TIP3   OH226083   4.760   0.188  17.115 -0.3801 -0.1871  0.7117
 1531TIP3    H126084   4.842   0.235  17.101 -0.5600 -0.1306 -0.1859
 1531TIP3    H226085   4.750   0.186  17.210 -0.0521  1.0479  0.7894
 1532TIP3   OH226086   3.537   4.535  12.995  0.6205 -0.1963 -0.0025
 1532TIP3    H126087   3.458   4.562  13.041  0.1066  0.2964 -1.1496
 1532TIP3    H226088   3.531   4.440  12.991 -0.2201 -0.1264 -0.6063
 1533TIP3   OH226089   6.273   2.962   0.224 -0.3867  0.0247 -0.1684
 1533TIP3    H126090   6.261   2.870   0.247  0.7635  0.0311  0.5542
 1533TIP3    H226091   6.255   3.010   0.305 -0.2727  0.3708 -0.3439
 1534TIP3   OH226092   0.300   0.045   2.463  0.4204  0.8873  0.3088
 1534TIP3    H126093   0.233  -0.005   2.417  0.5319  1.0031  0.0203
 1534TIP3    H226094   0.272   0.043   2.555  1.2597 -1.1009  0.5888
 1535TIP3   OH226095   0.561   2.093  11.265 -0.7519 -0.0170 -0.2457
 1535TIP3    H126096   0.654   2.076  11.255 -0.3920  1.2042  0.7916
 1535TIP3    H226097   0.545   2.086  11.359 -1.7736 -0.4698 -0.4307
 1536TIP3   OH226098   5.291   2.895   0.562  0.1885  1.0650  0.2446
 1536TIP3    H126099   5.336   2.957   0.505 -1.1739  1.3298 -0.5907
 1536TIP3    H226100   5.226   2.854   0.506 -0.6742  0.7738  1.4173
 1537TIP3   OH226101   5.634   0.546   0.531  0.2223  0.1888 -0.5813
 1537TIP3    H126102   5.563   0.560   0.468  0.7912 -2.0777 -1.8457
 1537TIP3    H226103   5.661   0.634   0.556 -1.8805  1.1318 -1.3704
 1538TIP3   OH226104   4.630   0.115   5.551 -0.2831  0.0520  0.1196
 1538TIP3    H126105   4.646   0.140   5.460 -0.9609 -0.4332 -0.1384
 1538TIP3    H226106   4.708   0.146   5.598 -0.4897  1.4415 -0.4020
 1539TIP3   OH226107   1.437   6.415   2.705  0.1090  0.2589 -0.5187
 1539TIP3    H126108   1.495   6.418   2.629 -1.0005  1.0577 -1.3603
 1539TIP3    H226109   1.497   6.417   2.780  1.2798 -1.5961 -1.3191
 1540TIP3   OH226110   4.538   2.135  15.900  0.3709 -0.2426  0.1255
 1540TIP3    H126111   4.475   2.098  15.963 -0.0853 -1.2483 -0.8932
 1540TIP3    H226112   4.591   2.195  15.952  1.0249 -2.1901  1.8449
 1541TIP3   OH226113   3.699   6.420   1.081  0.6248  0.6606  0.0334
 1541TIP3    H126114   3.741   6.353   1.027  1.0313 -0.0774  1.2137
 1541TIP3    H226115   3.673   6.488   1.020 -0.2004 -0.7777 -1.2617
 1542TIP3   OH226116   3.588   3.557   2.926  0.2893  0.3903 -0.3456
 1542TIP3    H126117   3.680   3.548   2.951  0.3974  0.9646 -0.5039
 1542TIP3    H226118   3.558   3.468   2.910  0.2539 -0.0189  1.6528
 1543TIP3   OH226119   6.318   0.237  14.851  0.0131  0.0152  0.1108
 1543TIP3    H126120   6.252   0.169  14.847  2.2312 -2.3204  0.3363
 1543TIP3    H226121   6.376   0.220  14.776  1.7197  0.3961  1.2687
 1544TIP3   OH226122   2.984   5.789   2.167  0.4424  0.6818  0.3536
 1544TIP3    H126123   2.961   5.817   2.256 -1.2982 -1.2723  0.6040
 1544TIP3    H226124   2.951   5.858   2.110  1.1331  1.7188  1.1786
 1545TIP3   OH226125   5.474   5.401   0.575  0.0192 -0.1768  0.6913
 1545TIP3    H126126   5.427   5.341   0.633 -1.9076  0.4240 -0.1711
 1545TIP3    H226127   5.458   5.487   0.612  1.0647 -0.0177  0.7821
 1546TIP3   OH226128   6.192   0.334  12.254  0.0210  0.1407 -0.1794
 1546TIP3    H126129   6.117   0.279  12.232  1.1984 -1.0806 -1.3172
 1546TIP3    H226130   6.209   0.384  12.174 -1.2833  2.5886  0.9416
 1547TIP3   OH226131   4.386   5.858   3.941  0.1595  0.1353 -0.6171
 1547TIP3    H126132   4.393   5.953   3.946  1.5550 -0.0310  2.1615
 1547TIP3    H226133   4.317   5.835   4.003  2.1619 -0.8002  1.4100
 1548TIP3   OH226134   5.557   5.631  12.009  0.2525  0.3222 -0.0329
 1548TIP3    H126135   5.634   5.588  12.047 -0.7917 -0.5743  1.1961
 1548TIP3    H226136   5.552   5.596  11.920  1.3080  0.4750 -0.1669
 1549TIP3   OH226137   4.484   0.427  13.432  0.5143  0.1982  0.1221
 1549TIP3    H126138   4.471   0.512  13.476 -1.0609 -0.6147  1.3186
 1549TIP3    H226139   4.444   0.438  13.346 -0.8937  0.2891  0.7616
 1550TIP3   OH226140   4.928   3.466   2.859  0.0628 -0.8176  0.2846
 1550TIP3    H126141   4.852   3.419   2.824  0.5100 -1.5119  0.2173
 1550TIP3    H226142   4.891   3.532   2.918 -0.6346 -0.4857 -0.5080
 1551TIP3   OH226143   0.139   4.813   2.660 -0.6934  0.0123 -0.1557
 1551TIP3    H126144   0.046   4.789   2.660 -0.3411 -1.4565  0.5887
 1551TIP3    H226145   0.184   4.735   2.629  0.1932  1.4072 -2.6846
 1552TIP3   OH226146   6.264   6.193   3.842 -0.1958 -0.0895 -0.0237
 1552TIP3    H126147   6.320   6.263   3.876 -0.2763  1.0441 -2.0885
 1552TIP3    H226148   6.225   6.230   3.763 -2.2621 -1.5938  0.2266
 1553TIP3   OH226149   5.622   5.095  17.046  0.4521 -0.1782 -0.0133
 1553TIP3    H126150   5.669   5.029  17.098  1.6495 -0.1157 -0.9571
 1553TIP3    H226151   5.645   5.178  17.088  2.5967  0.0071 -1.4182
 1554TIP3   OH226152   4.478   0.336  16.420 -0.3671 -0.1848  1.0644
 1554TIP3    H126153   4.437   0.413  16.380 -3.0838 -1.0396  1.9386
 1554TIP3    H226154   4.422   0.316  16.495  0.5919 -2.6729  1.2017
 1555TIP3   OH226155   2.530   2.171   5.871  0.6344 -0.0266  0.2670
 1555TIP3    H126156   2.444   2.212   5.858  0.0673 -1.3054 -0.2734
 1555TIP3    H226157   2.580   2.235   5.922 -0.5439  0.8638  0.3616
 1556TIP3   OH226158   0.578   6.038  12.344 -0.4561  0.3018 -0.2542
 1556TIP3    H126159   0.550   6.051  12.435 -0.2452 -0.0764 -0.1312
 1556TIP3    H226160   0.574   5.943  12.332 -0.3543  0.3423 -0.6004
 1557TIP3   OH226161   0.949   4.448   3.763  0.3174 -0.4150 -0.5570
 1557TIP3    H126162   0.869   4.485   3.726 -0.1471 -1.5726 -0.7773
 1557TIP3    H226163   0.922   4.362   3.795  0.9620  0.0531  1.4054
 1558TIP3   OH226164   3.652   0.029  17.045 -0.1434 -0.2830 -0.4885
 1558TIP3    H126165   3.621   0.049  17.133  0.5301 -0.2195 -0.2575
 1558TIP3    H226166   3.682  -0.062  17.050  1.1686  0.1328 -0.2645
 1559TIP3   OH226167   0.489   2.275   0.703  0.2142  0.0408 -0.1429
 1559TIP3    H126168   0.552   2.287   0.774 -0.1871 -1.3139  0.4868
 1559TIP3    H226169   0.426   2.346   0.714  0.7018  0.4172  0.2519
 1560TIP3   OH226170   2.342   3.997  13.073 -0.3430 -0.1055  0.2605
 1560TIP3    H126171   2.261   4.035  13.108 -0.3860  0.4082 -0.3807
 1560TIP3    H226172   2.397   4.073  13.053 -0.0787 -0.4193 -0.2115
 1561TIP3   OH226173   4.107   6.646   1.602 -0.7117 -0.6946 -0.3464
 1561TIP3    H126174   4.077   6.556   1.607  0.7928 -1.2436 -0.6368
 1561TIP3    H226175   4.148   6.663   1.687  1.6864 -1.3312 -1.2998
 1562TIP3   OH226176   6.793   3.805   5.500 -0.5238 -0.3318 -0.0782
 1562TIP3    H126177   6.709   3.850   5.497 -0.2377  0.2336  0.1744
 1562TIP3    H226178   6.854   3.864   5.455  0.0850  0.0644  1.2232
 1563TIP3   OH226179   0.733   1.821  15.461  0.1045  0.0710  0.3056
 1563TIP3    H126180   0.735   1.741  15.514  1.6114  0.2736  0.6230
 1563TIP3    H226181   0.767   1.793  15.376  0.0441  0.2421  0.2255
 1564TIP3   OH226182   1.546   6.288  15.484 -0.7039  0.3452 -0.3305
 1564TIP3    H126183   1.573   6.336  15.405 -3.4853 -0.3223 -1.8082
 1564TIP3    H226184   1.592   6.204  15.478 -0.8402  0.3252 -1.2191
 1565TIP3   OH226185   1.226   3.699   2.570  0.3941  0.0829  0.2311
 1565TIP3    H126186   1.221   3.693   2.475  0.3383  0.8311  0.1747
 1565TIP3    H226187   1.223   3.793   2.588  3.1208  0.1207  0.8276
 1566TIP3   OH226188   5.811   5.021   2.985 -0.2203  0.1103  0.8742
 1566TIP3    H126189   5.897   4.999   3.020 -0.5043 -1.6917  0.5177
 1566TIP3    H226190   5.817   5.115   2.964  1.8614 -0.1171  0.2406
 1567TIP3   OH226191   6.407   1.298  16.286 -0.0252  0.5616  0.0872
 1567TIP3    H126192   6.492   1.344  16.280  1.7553 -2.3854  0.8673
 1567TIP3    H226193   6.351   1.359  16.333  2.9145  1.1160  3.2838
 1568TIP3   OH226194   0.398   5.410  12.654  0.1496  0.3438  0.7529
 1568TIP3    H126195   0.489   5.400  12.680  1.2498 -1.0358 -2.9811
 1568TIP3    H226196   0.399   5.482  12.591 -1.6804  1.2972  1.7270
 1569TIP3   OH226197   3.718   4.396   4.559 -0.0461 -0.3708 -0.1036
 1569TIP3    H126198   3.746   4.470   4.505 -0.3953 -0.3520 -0.2613
 1569TIP3    H226199   3.693   4.435   4.643  0.6327 -0.4160  0.1222
 1570TIP3   OH226200   0.458   2.236  11.054  0.6001 -0.1462 -0.6938
 1570TIP3    H126201   0.391   2.292  11.093 -2.7775 -2.7861 -2.1283
 1570TIP3    H226202   0.490   2.182  11.126  1.1841  1.0481 -0.0214
 1571TIP3   OH226203   0.410   3.126   2.757 -0.7056 -0.1264  0.1760
 1571TIP3    H126204   0.495   3.086   2.740 -0.7936 -1.4761  2.4981
 1571TIP3    H226205   0.431   3.217   2.779  0.2108 -0.5393  1.1134
 1572TIP3   OH226206   2.904   1.228   1.851 -0.0002 -0.0783 -0.0529
 1572TIP3    H126207   2.854   1.208   1.771 -2.0956  0.2106  1.1080
 1572TIP3    H226208   2.945   1.145   1.874  0.4841 -0.2150 -1.3138
 1573TIP3   OH226209   0.927   6.503  13.777 -0.5440 -0.5738  0.1076
 1573TIP3    H126210   0.999   6.561  13.803 -0.1278 -0.6232 -0.8899
 1573TIP3    H226211   0.860   6.562  13.743  0.4608 -0.7026 -2.2920
 1574TIP3   OH226212   1.121   6.029   0.549 -0.2119  0.0941 -0.1719
 1574TIP3    H126213   1.104   6.067   0.635  1.9425 -1.0356  0.8379
 1574TIP3    H226214   1.068   6.081   0.489 -3.3702 -0.3246  1.9959
 1575TIP3   OH226215   2.862   5.059  10.473 -0.2695 -0.2073  0.2724
 1575TIP3    H126216   2.911   4.979  10.496  1.0307 -0.1557 -1.9974
 1575TIP3    H226217   2.930   5.122  10.448 -1.4119  0.4572 -1.2945
 1576TIP3   OH226218   3.788   6.015  17.120  0.1404  0.0443  0.4017
 1576TIP3    H126219   3.704   5.971  17.107  0.4931 -0.9805  1.4294
 1576TIP3    H226220   3.776   6.064  17.201 -0.0847  1.5053 -0.4752
 1577TIP3   OH226221   3.257   0.420  14.107 -0.0145  0.0151 -0.0264
 1577TIP3    H126222   3.312   0.358  14.059 -0.9578 -0.0101 -1.1121
 1577TIP3    H226223   3.267   0.503  14.061 -2.3566 -0.4228 -1.5048
 1578TIP3   OH226224   5.594   2.927  14.162  0.1003  0.1302 -0.2701
 1578TIP3    H126225   5.512   2.975  14.154 -0.6976 -0.6595  2.2388
 1578TIP3    H226226   5.572   2.837  14.136  0.4187  0.1149 -0.5005
 1579TIP3   OH226227   2.222   4.234   0.939 -0.1790  0.4126 -0.1318
 1579TIP3    H126228   2.257   4.159   0.986 -0.9310  0.2439  0.1752
 1579TIP3    H226229   2.127   4.220   0.938 -0.4521  1.8759  0.8670
 1580TIP3   OH226230   2.509   0.751  13.628  0.2954 -0.8368 -0.2077
 1580TIP3    H126231   2.471   0.732  13.714 -0.4268 -0.6418 -0.4713
 1580TIP3    H226232   2.434   0.776  13.574  1.0499  1.9634 -0.1155
 1581TIP3   OH226233   2.018   4.529  11.460  0.2443 -0.0284  0.3566
 1581TIP3    H126234   2.077   4.458  11.434  0.4803 -0.1112  1.0942
 1581TIP3    H226235   1.930   4.492  11.451  0.3879 -0.8291  1.8127
 1582TIP3   OH226236   6.028   4.217   1.057  0.5416  0.1635 -0.8627
 1582TIP3    H126237   6.048   4.204   0.964 -0.3850  1.8676 -1.3405
 1582TIP3    H226238   6.092   4.282   1.086 -1.1624  2.1274 -1.2166
 1583TIP3   OH226239   4.816   2.984  11.490  0.2190 -0.0541  0.0331
 1583TIP3    H126240   4.841   2.911  11.546  0.7510 -0.4296 -0.6811
 1583TIP3    H226241   4.895   3.006  11.442 -0.2193  0.2685 -0.5602
 1584TIP3   OH226242   2.070   4.752  15.101  0.0434 -0.2990 -0.0136
 1584TIP3    H126243   2.056   4.822  15.037 -0.5551 -0.1067  0.3205
 1584TIP3    H226244   2.133   4.693  15.059 -0.3618 -0.1854 -0.7866
 1585TIP3   OH226245   3.015   4.868   5.452  0.4496 -0.0492  0.6989
 1585TIP3    H126246   2.956   4.805   5.410 -0.1855  0.6432  0.5440
 1585TIP3    H226247   2.960   4.944   5.471  1.2032  0.4525  0.9047
 1586TIP3   OH226248   6.035   0.328  11.198 -0.1616 -0.2095 -0.2324
 1586TIP3    H126249   6.086   0.253  11.168  0.4464  0.1995 -0.2422
 1586TIP3    H226250   5.946   0.311  11.166  0.1229 -0.5795 -0.8448
 1587TIP3   OH226251   5.134   6.590  11.939 -0.5435  0.5404  0.3294
 1587TIP3    H126252   5.167   6.609  12.027 -0.8802 -1.1082  0.8403
 1587TIP3    H226253   5.210   6.554  11.893 -0.6278  0.4742  0.2445
 1588TIP3   OH226254   6.314   3.332   5.019 -0.3093  0.4205 -0.2107
 1588TIP3    H126255   6.365   3.253   5.003 -2.5544 -1.1065 -0.2150
 1588TIP3    H226256   6.328   3.386   4.941 -0.2900 -0.8519 -1.1120
 1589TIP3   OH226257   2.338   1.716   5.226 -0.2438  0.2801  0.5253
 1589TIP3    H126258   2.366   1.629   5.196  0.1252  1.0789 -1.6575
 1589TIP3    H226259   2.404   1.775   5.190 -1.1867  1.5780  0.8890
 1590TIP3   OH226260   0.729   5.588   1.777  0.3301  0.3767  0.4290
 1590TIP3    H126261   0.657   5.614   1.719  1.6013  0.4346 -1.1979
 1590TIP3    H226262   0.718   5.642   1.855 -0.3199  1.7507 -0.5776
 1591TIP3   OH226263   0.946   0.065  13.946 -0.0674 -0.1488  0.6776
 1591TIP3    H126264   1.010  -0.001  13.919 -0.3132  0.0873 -0.5444
 1591TIP3    H226265   0.867   0.015  13.968 -0.5599 -0.2438 -1.1451
 1592TIP3   OH226266   0.606   0.763   5.056 -0.1809  0.8259 -0.4301
 1592TIP3    H126267   0.630   0.856   5.052  0.1343  0.7117 -3.1541
 1592TIP3    H226268   0.521   0.759   5.011 -1.8568  0.1667  2.5309
 1593TIP3   OH226269   3.170   4.401  12.314 -0.3056  0.0455 -0.2242
 1593TIP3    H126270   3.076   4.414  12.300 -0.3978 -0.4282 -0.0630
 1593TIP3    H226271   3.175   4.339  12.387  0.1294 -0.2432 -0.4948
 1594TIP3   OH226272   4.010   3.237   5.425 -0.2994 -0.2034  0.3780
 1594TIP3    H126273   3.989   3.183   5.501 -0.2517  1.7277  1.8214
 1594TIP3    H226274   3.970   3.322   5.444  0.7277  0.6845 -1.2271
 1595TIP3   OH226275   6.691   0.753  15.741  0.2246  0.5454  0.1981
 1595TIP3    H126276   6.631   0.683  15.715 -0.0783  0.8281  0.1212
 1595TIP3    H226277   6.755   0.710  15.798  2.4790 -0.6826 -2.9777
 1596TIP3   OH226278   5.842   6.078  12.536  0.2382  0.1565 -0.2636
 1596TIP3    H126279   5.905   6.020  12.492  1.3820  1.0807  0.1097
 1596TIP3    H226280   5.848   6.160  12.487  0.5211  0.7619  0.7581
 1597TIP3   OH226281   6.671   2.288  12.665  0.4281 -0.7711 -0.9160
 1597TIP3    H126282   6.721   2.213  12.631  0.5041 -0.9933 -0.3290
 1597TIP3    H226283   6.593   2.291  12.611 -0.3401 -2.2534  0.0451
 1598TIP3   OH226284   2.251   1.038  11.950 -0.1281 -0.3969 -0.4837
 1598TIP3    H126285   2.166   1.052  11.909  0.1841 -0.4351 -1.1691
 1598TIP3    H226286   2.267   1.117  12.001 -0.4343 -0.2510 -0.6135
 1599TIP3   OH226287   0.605   3.177  13.500 -0.3458  0.1252 -0.9342
 1599TIP3    H126288   0.548   3.180  13.576 -1.3005 -2.1041 -1.4680
 1599TIP3    H226289   0.689   3.210  13.531 -0.2918 -1.9563  1.5136
 1600TIP3   OH226290   6.083   0.264   1.383 -0.0351 -0.1301  0.2382
 1600TIP3    H126291   6.007   0.295   1.433  0.2075  0.0182  0.5213
 1600TIP3    H226292   6.109   0.183   1.427 -0.4284 -0.5362 -0.2621
 1601TIP3   OH226293   3.030   5.942   1.481  0.5789 -0.6335 -0.2883
 1601TIP3    H126294   3.097   5.974   1.421  1.3444 -1.1546  0.2593
 1601TIP3    H226295   2.979   5.879   1.430  1.1865 -1.0298 -0.4107
 1602TIP3   OH226296   0.222   0.549  12.541 -0.2370  0.4392  0.5506
 1602TIP3    H126297   0.209   0.590  12.455  1.3410 -0.1122  0.0216
 1602TIP3    H226298   0.306   0.585  12.572  0.2281 -0.9154  0.9293
 1603TIP3   OH226299   1.900   5.226   5.686 -0.0121 -0.5546  0.4032
 1603TIP3    H126300   1.921   5.247   5.595 -0.3647  2.3011  0.8683
 1603TIP3    H226301   1.982   5.192   5.722  0.5230 -0.4283 -0.6514
 1604TIP3   OH226302   0.564   2.790   5.659  0.3904 -0.0869 -0.2982
 1604TIP3    H126303   0.635   2.755   5.713 -0.1009  0.8216  1.0071
 1604TIP3    H226304   0.608   2.848   5.597  0.9011 -0.5241 -0.3541
 1605TIP3   OH226305   3.166   5.630  13.824 -0.1279  0.0753 -0.1180
 1605TIP3    H126306   3.104   5.569  13.864 -0.3091  1.1628  1.3613
 1605TIP3    H226307   3.200   5.584  13.748 -0.4225 -1.7668  0.8157
 1606TIP3   OH226308   1.824   0.916   2.025  0.1017 -0.1273 -0.4703
 1606TIP3    H126309   1.844   0.937   1.933  0.3174  1.2091 -0.1425
 1606TIP3    H226310   1.877   0.978   2.075  0.9931 -1.7012  0.6059
 1607TIP3   OH226311   3.939   2.500  14.970  0.1548  0.2755 -0.2421
 1607TIP3    H126312   3.871   2.433  14.979 -0.3831  0.9526  0.9590
 1607TIP3    H226313   3.974   2.487  14.882 -1.6405  0.0017 -0.9637
 1608TIP3   OH226314   1.259   2.285   2.204 -0.0026 -0.4745 -0.4229
 1608TIP3    H126315   1.184   2.292   2.263 -0.1924 -0.1057 -0.6989
 1608TIP3    H226316   1.220   2.276   2.117  0.2349  1.7315 -0.8119
 1609TIP3   OH226317   3.817   3.503  14.800 -0.0759  0.2903 -0.2242
 1609TIP3    H126318   3.841   3.595  14.816  0.9617  0.1636 -0.9527
 1609TIP3    H226319   3.861   3.455  14.871 -1.0749  0.3943  0.4860
 1610TIP3   OH226320   1.686   5.536   5.532 -0.4518 -0.5699  0.1667
 1610TIP3    H126321   1.658   5.624   5.555  1.0042 -0.1866  0.5983
 1610TIP3    H226322   1.679   5.486   5.613 -0.5687 -0.6604  0.1014
 1611TIP3   OH226323   0.327   4.738  16.432  0.0569  0.3469 -0.2545
 1611TIP3    H126324   0.415   4.775  16.435  0.1081  0.2699 -0.7680
 1611TIP3    H226325   0.274   4.800  16.481 -0.0770  1.7307 -2.0620
 1612TIP3   OH226326   0.906   0.847  14.785  0.0771 -0.1084  0.6143
 1612TIP3    H126327   0.903   0.929  14.736 -0.7778 -1.1347 -1.1456
 1612TIP3    H226328   0.827   0.848  14.839 -0.7740 -0.4366 -0.5818
 1613TIP3   OH226329   5.105   4.221  10.949  0.6656 -0.0845 -0.5051
 1613TIP3    H126330   5.112   4.126  10.936 -2.1826 -0.3391 -0.6881
 1613TIP3    H226331   5.038   4.250  10.887  0.2536  1.7666  0.7115
 1614TIP3   OH226332   3.234   5.614   4.519  0.6684  0.0524  0.2054
 1614TIP3    H126333   3.228   5.636   4.612  0.1261  0.9161 -0.0202
 1614TIP3    H226334   3.248   5.520   4.518 -0.1139 -0.1002  1.1526
 1615TIP3   OH226335   2.765   2.356  14.916 -0.1185  0.4806  0.0813
 1615TIP3    H126336   2.790   2.367  14.824 -1.8853  1.5279 -0.3261
 1615TIP3    H226337   2.683   2.405  14.924 -0.4956 -0.3857  1.9907
 1616TIP3   OH226338   3.927   3.373   6.093 -0.1648 -0.3376 -0.0557
 1616TIP3    H126339   3.832   3.366   6.089 -0.3342  1.0499  0.8815
 1616TIP3    H226340   3.955   3.301   6.149 -0.6480 -0.7333 -0.3174
 1617TIP3   OH226341   1.143   1.112  14.683  0.6465 -0.5777 -0.3345
 1617TIP3    H126342   1.124   1.146  14.595 -3.9759  0.0071  0.6732
 1617TIP3    H226343   1.143   1.017  14.671  1.2840 -0.4957 -1.1244
 1618TIP3   OH226344   2.605   6.460  12.736  0.2023 -0.6990  0.1223
 1618TIP3    H126345   2.529   6.508  12.702  0.7674 -1.3565 -2.3160
 1618TIP3    H226346   2.677   6.523  12.729  0.0533 -0.3204  1.7178
 1619TIP3   OH226347   6.644   0.817   0.594  0.0919  0.1702  0.3225
 1619TIP3    H126348   6.578   0.859   0.647  0.9512  1.8001  0.1574
 1619TIP3    H226349   6.690   0.889   0.551  0.4652 -1.0208 -1.3716
 1620TIP3   OH226350   1.433   2.776  11.868 -0.5043 -0.0037  0.1554
 1620TIP3    H126351   1.424   2.859  11.915 -0.0063  0.8264 -1.1753
 1620TIP3    H226352   1.449   2.711  11.937 -0.2013  1.1113  1.1599
 1621TIP3   OH226353   3.381   1.852   4.531  0.6368 -0.2732  0.5368
 1621TIP3    H126354   3.356   1.769   4.570 -0.2654 -0.3536 -0.1649
 1621TIP3    H226355   3.397   1.910   4.605 -4.7799  0.7401  1.3876
 1622TIP3   OH226356   5.763   2.291  13.532 -0.0445  0.3081  0.0439
 1622TIP3    H126357   5.855   2.270  13.552 -0.3438 -0.1597  0.9734
 1622TIP3    H226358   5.743   2.235  13.457  0.1128 -0.4227  0.5299
 1623TIP3   OH226359   3.309   4.515   6.037  0.1205 -0.2795 -0.5571
 1623TIP3    H126360   3.293   4.606   6.011 -0.7520  0.3250  1.8376
 1623TIP3    H226361   3.222   4.476   6.040 -0.2589  0.4285  3.6510
 1624TIP3   OH226362   2.563   4.542   0.741 -0.0480 -0.6128 -0.8566
 1624TIP3    H126363   2.478   4.539   0.783 -0.2625 -0.4677 -1.2770
 1624TIP3    H226364   2.606   4.460   0.767  1.0511  0.7916  2.1789
 1625TIP3   OH226365   6.233   4.247  13.316 -0.1948  0.1534 -0.3867
 1625TIP3    H126366   6.223   4.217  13.226 -0.1104  1.1237 -0.7306
 1625TIP3    H226367   6.285   4.179  13.358 -1.5346 -1.0900 -0.6422
 1626TIP3   OH226368   5.233   5.229   1.768  0.9982  0.1124 -0.2526
 1626TIP3    H126369   5.228   5.162   1.835  1.9332 -0.7436 -1.0013
 1626TIP3    H226370   5.161   5.210   1.708 -0.1612  1.1901  0.7458
 1627TIP3   OH226371   6.490   4.186   2.768 -0.0478  0.7396 -0.1160
 1627TIP3    H126372   6.482   4.239   2.847  1.4466 -1.9748  2.0048
 1627TIP3    H226373   6.583   4.185   2.748 -0.0923 -0.6151 -0.3904
 1628TIP3   OH226374   2.438   2.712  14.379 -0.3494  0.5492 -0.9143
 1628TIP3    H126375   2.380   2.704  14.455  2.3744 -1.7739  1.1779
 1628TIP3    H226376   2.401   2.653  14.314 -0.9129 -0.0604 -0.0563
 1629TIP3   OH226377   1.292   2.790  11.564 -0.4276  0.8544 -0.0900
 1629TIP3    H126378   1.224   2.769  11.627  0.3796  1.4566  1.0136
 1629TIP3    H226379   1.370   2.809  11.617  0.9956 -1.1012 -1.3364
 1630TIP3   OH226380   3.080   6.564  13.968  0.5754 -0.2268  0.4205
 1630TIP3    H126381   2.995   6.533  14.001 -0.5615 -0.4288 -2.4296
 1630TIP3    H226382   3.144   6.506  14.010 -0.9736 -2.1491  0.2777
 1631TIP3   OH226383   3.011   6.104   3.300  0.0807  0.7429 -0.6150
 1631TIP3    H126384   2.923   6.098   3.335  0.4215  0.1983  0.1670
 1631TIP3    H226385   3.015   6.035   3.233  0.0473  0.4646 -0.3351
 1632TIP3   OH226386   5.372   6.137  15.257  0.9423 -0.0968  0.3523
 1632TIP3    H126387   5.287   6.162  15.221  1.8977  2.1941 -0.5151
 1632TIP3    H226388   5.353   6.062  15.313 -1.8947  1.2372  1.3692
 1633TIP3   OH226389   4.101   0.182   0.473  0.0079 -0.0990 -0.6431
 1633TIP3    H126390   4.131   0.101   0.432 -0.2016 -0.8008  0.5607
 1633TIP3    H226391   4.141   0.252   0.419  1.2350 -0.9904 -0.9417
 1634TIP3   OH226392   1.631   4.830  15.483  0.2815  0.4370  0.2342
 1634TIP3    H126393   1.543   4.832  15.446  0.7786  0.6682 -0.9861
 1634TIP3    H226394   1.640   4.742  15.520 -0.6834  0.6350  0.9612
 1635TIP3   OH226395   5.041   1.567   6.527 -0.4050 -0.2568  0.3252
 1635TIP3    H126396   5.109   1.634   6.517  0.2137 -0.8860  0.2693
 1635TIP3    H226397   5.040   1.547   6.620 -1.0937  0.3355  0.4587
 1636TIP3   OH226398   2.582   0.114  15.926  0.2139  0.2713 -0.7333
 1636TIP3    H126399   2.639   0.066  15.867  1.0250  1.2504 -0.7698
 1636TIP3    H226400   2.638   0.141  15.998 -0.6436 -0.4303  0.2317
 1637TIP3   OH226401   2.173   5.771   3.057  0.0813  0.4595 -0.1255
 1637TIP3    H126402   2.125   5.698   3.094 -1.4600  1.7236  0.5021
 1637TIP3    H226403   2.253   5.776   3.108 -0.6990  0.4054  1.1438
 1638TIP3   OH226404   3.692   4.136   3.227 -0.2461 -0.2470  0.5728
 1638TIP3    H126405   3.780   4.131   3.189 -0.8702  0.0620 -0.9832
 1638TIP3    H226406   3.680   4.052   3.271  0.9388 -0.1722  1.0864
 1639TIP3   OH226407   1.610   4.984   5.307 -0.1645  0.0142  0.6451
 1639TIP3    H126408   1.599   4.915   5.241 -0.5434 -0.4944  1.2259
 1639TIP3    H226409   1.703   4.982   5.329 -0.6439 -2.5152  2.9480
 1640TIP3   OH226410   4.983   5.637  15.428  0.5780 -0.1654 -0.1599
 1640TIP3    H126411   5.048   5.584  15.381  0.9961 -0.6178  0.8992
 1640TIP3    H226412   4.905   5.582  15.432  0.6427 -0.2495 -0.0534
 1641TIP3   OH226413   4.413   2.755   3.096  0.3176  0.3021 -0.4516
 1641TIP3    H126414   4.471   2.802   3.036 -0.3689  0.9491 -0.6224
 1641TIP3    H226415   4.385   2.678   3.047  2.5662 -1.0841  0.3336
 1642TIP3   OH226416   3.944   0.097   4.550  0.5410 -0.2459  0.1066
 1642TIP3    H126417   4.015   0.158   4.569 -1.1160  1.2714  1.8330
 1642TIP3    H226418   3.916   0.120   4.461  0.8383  0.5680  0.2151
 1643TIP3   OH226419   0.929   0.867   3.553 -0.1357  0.2811 -0.3052
 1643TIP3    H126420   0.954   0.921   3.478 -1.5217 -1.0623 -1.8132
 1643TIP3    H226421   0.842   0.899   3.578 -0.6421 -0.7052 -0.7345
 1644TIP3   OH226422   5.997   1.663   4.381 -0.3322  0.0989 -0.3423
 1644TIP3    H126423   5.942   1.717   4.325 -1.1000 -1.1830 -0.8599
 1644TIP3    H226424   5.965   1.680   4.470 -2.0161 -1.0742 -0.6812
 1645TIP3   OH226425   6.412   1.857  12.248 -0.5278 -0.3610 -0.1113
 1645TIP3    H126426   6.325   1.866  12.286 -1.3666 -0.2500 -1.9616
 1645TIP3    H226427   6.407   1.903  12.164  0.8590 -1.6059 -0.9360
 1646TIP3   OH226428   6.583   0.810  15.230 -0.5364  0.1306  0.0529
 1646TIP3    H126429   6.653   0.781  15.288 -0.5236 -0.4104 -0.2231
 1646TIP3    H226430   6.624   0.872  15.170 -0.6023  0.8830  0.7651
 1647TIP3   OH226431   4.271   1.849  13.955  0.0083  0.1896 -0.1077
 1647TIP3    H126432   4.212   1.798  14.010  0.3593 -3.0928 -2.4826
 1647TIP3    H226433   4.354   1.802  13.959  0.1918  0.0794 -2.9134
 1648TIP3   OH226434   5.652   1.028  11.999 -0.7985 -0.5860 -0.2939
 1648TIP3    H126435   5.560   1.057  11.998 -1.1877 -1.3801  2.5059
 1648TIP3    H226436   5.664   0.993  12.087  2.0079 -1.2338 -0.8592
 1649TIP3   OH226437   0.692   1.926   0.621 -0.6471 -0.1680 -0.2164
 1649TIP3    H126438   0.685   1.929   0.717 -0.0312  0.8708 -0.1845
 1649TIP3    H226439   0.739   2.007   0.598 -0.2101 -0.7188 -1.3451
 1650TIP3   OH226440   0.714   4.362  12.652 -0.2882  0.7954 -0.2123
 1650TIP3    H126441   0.783   4.367  12.586 -1.1773 -1.2014 -1.4123
 1650TIP3    H226442   0.750   4.308  12.721 -0.8883 -1.0589 -1.2779
 1651TIP3   OH226443   2.566   4.973  10.613 -0.0092  0.1035 -0.2652
 1651TIP3    H126444   2.656   4.948  10.593 -0.4152 -1.5033 -0.2423
 1651TIP3    H226445   2.560   5.065  10.586  1.3672 -0.0186 -1.1103
 1652TIP3   OH226446   3.661   5.168  17.100  0.1692 -0.5970 -0.2765
 1652TIP3    H126447   3.707   5.250  17.083  0.0765 -0.8484 -1.9231
 1652TIP3    H226448   3.570   5.194  17.114  0.4181 -0.2916  0.9264
 1653TIP3   OH226449   1.525   2.995  15.266  0.0144  0.4556 -0.0892
 1653TIP3    H126450   1.443   3.015  15.221  0.5686  1.8603 -0.5403
 1653TIP3    H226451   1.558   3.081  15.294 -0.0231 -0.2915  2.5352
 1654TIP3   OH226452   6.244   2.582   3.986  0.5422  0.3372  0.1273
 1654TIP3    H126453   6.284   2.656   4.033  0.4503 -0.6791  1.9086
 1654TIP3    H226454   6.184   2.544   4.049  0.2388 -0.9803 -0.9238
 1655TIP3   OH226455   5.140   0.849  15.796  0.7624  0.6434 -0.0219
 1655TIP3    H126456   5.122   0.852  15.701 -1.1741 -0.7460  0.2326
 1655TIP3    H226457   5.214   0.789  15.804  0.0313 -0.3728 -0.5915
 1656TIP3   OH226458   4.829   1.279  11.088  0.5333 -0.1171  0.0415
 1656TIP3    H126459   4.742   1.291  11.050  1.1006  0.5815 -1.0638
 1656TIP3    H226460   4.834   1.185  11.106 -1.3287  0.1143  2.3619
 1657TIP3   OH226461   6.493   3.218  12.873 -0.5178 -0.0624 -0.1867
 1657TIP3    H126462   6.456   3.131  12.888 -3.2106  1.4401  3.3148
 1657TIP3    H226463   6.442   3.276  12.929  1.1641  3.8539 -2.3017
 1658TIP3   OH226464   2.982   6.063   2.532  0.4292  0.7974 -0.0337
 1658TIP3    H126465   2.951   6.043   2.620 -0.0060  1.7086  0.0317
 1658TIP3    H226466   3.033   6.144   2.542 -0.5378  1.5245 -0.7723
 1659TIP3   OH226467   1.940   4.909   2.245  0.6486  0.1594 -0.0300
 1659TIP3    H126468   1.974   4.822   2.266 -1.8410 -0.8043  0.3954
 1659TIP3    H226469   1.923   4.949   2.330  2.2260  1.2926 -0.2203
 1660TIP3   OH226470   0.438   4.103  11.085  0.4025 -0.5734 -0.8213
 1660TIP3    H126471   0.448   4.127  10.993 -1.1533 -0.0613 -0.8876
 1660TIP3    H226472   0.344   4.109  11.101  0.7097 -0.0693  0.9743
 1661TIP3   OH226473   6.099   5.513  14.538  0.6247 -0.2207  0.0247
 1661TIP3    H126474   6.174   5.461  14.567  0.1936 -0.4002  0.8421
 1661TIP3    H226475   6.138   5.586  14.489  1.3332 -0.2552  0.5203
 1662TIP3   OH226476   1.251   1.039   3.077  0.2327  0.0501  0.6515
 1662TIP3    H126477   1.324   1.099   3.094  0.5154  0.6125 -2.1533
 1662TIP3    H226478   1.183   1.094   3.037 -0.5168 -1.0429  0.3591
 1663TIP3   OH226479   6.178   1.760   5.358 -0.5357  0.5318  0.2031
 1663TIP3    H126480   6.260   1.711   5.352 -0.4175  0.5257  1.6345
 1663TIP3    H226481   6.142   1.757   5.269  0.3187 -0.6675 -0.1278
 1664TIP3   OH226482   2.244   6.456   2.821 -0.2568 -0.4250 -0.5262
 1664TIP3    H126483   2.314   6.417   2.768 -0.4902 -0.7314 -0.6143
 1664TIP3    H226484   2.171   6.395   2.811 -0.6297  0.0440 -0.6666
 1665TIP3   OH226485   5.623   6.812  16.507  0.2663 -0.2347 -0.0257
 1665TIP3    H126486   5.540   6.860  16.498 -0.1247 -0.9854 -0.5573
 1665TIP3    H226487   5.678   6.869  16.561  0.7642  2.0391 -2.7222
 1666TIP3   OH226488   0.834   5.175   1.246 -0.2189 -0.1783  0.1083
 1666TIP3    H126489   0.740   5.178   1.228  0.1178  3.0634 -1.9608
 1666TIP3    H226490   0.875   5.170   1.160  1.5193  0.4807  0.8545
 1667TIP3   OH226491   6.196   0.424  11.424 -0.4325 -0.2709  0.0519
 1667TIP3    H126492   6.164   0.515  11.424 -1.8534 -0.7463 -0.1476
 1667TIP3    H226493   6.157   0.386  11.346  1.8556 -0.5158 -1.0624
 1668TIP3   OH226494   6.044   5.302   0.372  0.2352 -0.2367  0.2367
 1668TIP3    H126495   5.992   5.310   0.292  0.3975  0.8531  0.2233
 1668TIP3    H226496   6.013   5.222   0.413  0.4804 -1.0861 -1.1496
 1669TIP3   OH226497   2.567   0.963   2.986  0.3823  0.6066 -0.5171
 1669TIP3    H126498   2.503   0.906   3.027  0.7492 -0.1960 -1.0333
 1669TIP3    H226499   2.641   0.966   3.047 -0.1624  1.5999  0.1166
 1670TIP3   OH226500   5.585   3.189   2.408 -0.3281  0.2758  0.4350
 1670TIP3    H126501   5.656   3.126   2.419 -0.1410  0.2646 -0.7169
 1670TIP3    H226502   5.516   3.140   2.364 -1.0614  0.2931  1.5280
 1671TIP3   OH226503   2.935   5.067  16.940  0.2840  0.0667  0.2101
 1671TIP3    H126504   2.849   5.027  16.932  0.5452 -0.7256  1.2070
 1671TIP3    H226505   2.957   5.060  17.033  0.9632  1.2381  0.1635
 1672TIP3   OH226506   4.466   2.804   0.098  0.1264  0.6083  0.0062
 1672TIP3    H126507   4.457   2.775   0.189  0.0499  0.9417  0.1082
 1672TIP3    H226508   4.557   2.833   0.091 -0.2578  1.9928  0.4073
 1673TIP3   OH226509   5.231   4.063  15.963  0.2624 -0.4267 -0.2668
 1673TIP3    H126510   5.313   4.056  15.914  1.3716 -0.5055  1.4993
 1673TIP3    H226511   5.234   3.991  16.026 -0.2488  0.6618  1.0725
 1674TIP3   OH226512   5.659   1.184   6.674  0.2544  0.3788  0.2223
 1674TIP3    H126513   5.696   1.147   6.593  0.1467  1.4701 -0.3389
 1674TIP3    H226514   5.567   1.199   6.653  0.4574  1.6379  0.1893
 1675TIP3   OH226515   3.014   1.149  12.757  0.5263 -0.1040  0.1643
 1675TIP3    H126516   2.986   1.240  12.759  2.3686  0.5795 -1.6888
 1675TIP3    H226517   2.939   1.102  12.718 -0.6007  0.4917  1.5255
 1676TIP3   OH226518   4.013   6.639  16.404  0.4885  0.0749  0.5648
 1676TIP3    H126519   4.051   6.664  16.488  2.8962 -2.0897  0.2206
 1676TIP3    H226520   4.068   6.681  16.339 -0.3689  0.3887  0.0184
 1677TIP3   OH226521   3.322   0.354  11.417 -0.0448  0.1612 -0.4807
 1677TIP3    H126522   3.301   0.441  11.382  0.0063 -0.0638 -1.0909
 1677TIP3    H226523   3.397   0.325  11.365  0.7244  0.2587  0.5477
 1678TIP3   OH226524   5.982   4.697   3.122 -0.7151 -0.4302  0.6834
 1678TIP3    H126525   6.000   4.717   3.030  0.0099  1.3667  1.1615
 1678TIP3    H226526   6.009   4.776   3.169 -0.5490 -1.5117  2.5041
 1679TIP3   OH226527   6.337   4.868   2.949 -0.0910  0.2738  0.1342
 1679TIP3    H126528   6.410   4.810   2.929  0.2548  0.5945  0.4411
 1679TIP3    H226529   6.303   4.894   2.864  0.8550  0.9940 -0.0422
 1680TIP3   OH226530   1.184   3.532   1.925  0.0213  0.1953 -0.0911
 1680TIP3    H126531   1.260   3.477   1.944  0.0764  0.4205  0.3403
 1680TIP3    H226532   1.112   3.470   1.916  0.5586 -0.2005 -2.2689
 1681TIP3   OH226533   3.744   3.125   2.960  0.0872 -0.2619 -0.1692
 1681TIP3    H126534   3.683   3.051   2.958 -0.7061  0.3722  0.0086
 1681TIP3    H226535   3.760   3.141   3.053 -1.3197  1.0365 -0.1196
 1682TIP3   OH226536   2.399   4.185  12.531  0.2654  0.8526 -0.1208
 1682TIP3    H126537   2.342   4.240  12.478  0.3332  1.1454  0.1029
 1682TIP3    H226538   2.364   4.097  12.522 -0.7148  1.1402  0.6554
 1683TIP3   OH226539   3.507   1.346  15.823  0.4405 -0.0104  0.0636
 1683TIP3    H126540   3.488   1.261  15.864 -0.2512  0.5590  0.9457
 1683TIP3    H226541   3.423   1.373  15.786  0.4263  0.7425  0.6379
 1684TIP3   OH226542   0.773   3.868   3.207  0.0075  0.2479 -0.4829
 1684TIP3    H126543   0.762   3.900   3.297  0.6607  0.7943 -0.5932
 1684TIP3    H226544   0.696   3.899   3.160 -0.0032  0.5327 -0.2761
 1685TIP3   OH226545   5.517   5.933   4.929 -0.1331  0.2947  0.0688
 1685TIP3    H126546   5.508   6.018   4.973 -1.2713 -0.3412  1.0993
 1685TIP3    H226547   5.517   5.955   4.836 -0.8127  1.3951  0.3095
 1686TIP3   OH226548   1.281   2.057   0.106  0.3556  0.4771  0.2429
 1686TIP3    H126549   1.237   2.116   0.044 -1.8425  0.0643  1.3195
 1686TIP3    H226550   1.326   2.115   0.167  2.0293  0.9002 -1.3159
 1687TIP3   OH226551   0.001   5.297   4.323  0.4595  0.7099  0.9313
 1687TIP3    H126552   0.068   5.330   4.264  0.6843 -3.2028 -1.3518
 1687TIP3    H226553  -0.081   5.330   4.287  0.8352  2.0738  1.2511
 1688TIP3   OH226554   0.650   4.567   2.685  0.0687 -0.3572  0.5232
 1688TIP3    H126555   0.640   4.529   2.772  1.0047  0.4902  1.0194
 1688TIP3    H226556   0.574   4.626   2.676  0.0245 -0.3687  0.8056
 1689TIP3   OH226557   6.038   3.523   0.151  0.2662 -0.4882 -0.2201
 1689TIP3    H126558   6.083   3.511   0.068  1.6745 -2.3379  0.7493
 1689TIP3    H226559   6.043   3.438   0.195 -2.1856 -0.1440  0.9488
 1690TIP3   OH226560   2.447   1.156  13.174 -0.7693 -0.4431 -0.2561
 1690TIP3    H126561   2.491   1.177  13.256 -1.2678 -0.7934  0.1088
 1690TIP3    H226562   2.408   1.238  13.146  0.8121  0.0874 -1.0325
 1691TIP3   OH226563   2.782   6.783   4.296  0.2061  0.0718 -0.3041
 1691TIP3    H126564   2.795   6.836   4.217  1.0801 -2.0885 -1.7278
 1691TIP3    H226565   2.776   6.693   4.263 -0.4346 -0.8075  2.0368
 1692TIP3   OH226566   0.873   5.041  12.978 -0.1320  0.5148  0.7507
 1692TIP3    H126567   0.822   5.033  13.059 -1.6436 -0.3843 -0.2430
 1692TIP3    H226568   0.819   5.096  12.921 -0.4972 -1.2024 -0.6514
 1693TIP3   OH226569   4.593   1.372   2.608 -0.6636 -0.3616  0.4515
 1693TIP3    H126570   4.580   1.363   2.514 -1.3467  0.9152  0.3957
 1693TIP3    H226571   4.665   1.434   2.617  0.7988 -2.0272  0.7970
 1694TIP3   OH226572   0.704   1.127  14.357  0.0935  0.2450 -0.6482
 1694TIP3    H126573   0.708   1.188  14.283 -1.3770  0.1708 -0.8169
 1694TIP3    H226574   0.665   1.048  14.320  1.1767 -0.5094 -0.2248
 1695TIP3   OH226575   6.495   1.625  12.653  0.0528  0.1031  0.3526
 1695TIP3    H126576   6.490   1.717  12.628  0.0091  0.1825  0.6508
 1695TIP3    H226577   6.445   1.579  12.586  1.3677  0.1165 -0.6791
 1696TIP3   OH226578   4.278   2.285  13.453 -0.3561  0.0014  0.9323
 1696TIP3    H126579   4.349   2.345  13.478  0.2741 -0.2484 -0.2177
 1696TIP3    H226580   4.239   2.259  13.537 -0.2122  1.4742  1.4993
 1697TIP3   OH226581   4.696   0.490   2.169  0.6426 -0.2448  0.0522
 1697TIP3    H126582   4.682   0.572   2.216  0.8806 -0.0223 -0.2617
 1697TIP3    H226583   4.618   0.479   2.115 -0.0833 -0.9883  1.1885
 1698TIP3   OH226584   3.912   6.798  15.316  0.1089  0.8116  0.3231
 1698TIP3    H126585   3.978   6.729  15.316  0.2637  0.9486 -0.6167
 1698TIP3    H226586   3.956   6.873  15.276 -0.0644  1.4529  1.3046
 1699TIP3   OH226587   2.885   3.693   2.814  0.3458  0.7714 -0.0790
 1699TIP3    H126588   2.856   3.699   2.722 -0.6239  0.6921  0.2115
 1699TIP3    H226589   2.967   3.743   2.816 -0.1246  1.6039 -0.7797
 1700TIP3   OH226590   1.405   2.340   2.449 -0.0227  0.3854 -0.1254
 1700TIP3    H126591   1.355   2.319   2.528  1.7818 -1.2637  0.6716
 1700TIP3    H226592   1.388   2.267   2.390  1.5111 -0.3138  0.2403
 1701TIP3   OH226593   3.444   5.227  11.866  0.4600 -0.0187  0.1839
 1701TIP3    H126594   3.398   5.209  11.783 -0.5099 -0.5597  0.8212
 1701TIP3    H226595   3.469   5.319  11.860  0.2517 -0.0091 -0.6398
 1702TIP3   OH226596   4.955   5.203  11.525 -1.1416  0.3061  0.2496
 1702TIP3    H126597   5.040   5.167  11.501 -1.1094  0.9517 -0.6324
 1702TIP3    H226598   4.968   5.239  11.613 -0.7359 -0.3360  0.4599
 1703TIP3   OH226599   5.183   5.328   3.832 -0.0536  0.0615  0.0215
 1703TIP3    H126600   5.133   5.263   3.784 -1.3215  0.1237  1.2146
 1703TIP3    H226601   5.259   5.281   3.865 -0.2272 -0.4536 -0.3106
 1704TIP3   OH226602   6.055   6.106   2.026  0.3441 -0.4533 -0.2328
 1704TIP3    H126603   6.090   6.061   1.949  0.3100 -0.9852  0.0567
 1704TIP3    H226604   6.097   6.192   2.025  0.7148 -0.6374 -0.5773
 1705TIP3   OH226605   1.355   2.575  15.443  0.1565 -0.3940 -0.3145
 1705TIP3    H126606   1.341   2.520  15.366 -1.6359  2.1695 -1.9753
 1705TIP3    H226607   1.267   2.584  15.481  0.8795 -0.8945  1.5636
 1706TIP3   OH226608   4.133   6.277   1.455  0.3273  0.4858 -0.1666
 1706TIP3    H126609   4.144   6.336   1.380  2.8721  0.7262  0.3065
 1706TIP3    H226610   4.202   6.302   1.516 -1.1641 -0.2404  1.9590
 1707TIP3   OH226611   3.040   2.514  13.549  0.2255 -0.6462 -0.2189
 1707TIP3    H126612   3.098   2.580  13.587 -0.6025 -0.1833  0.2669
 1707TIP3    H226613   2.955   2.557  13.541 -1.1909 -2.4618  2.9722
 1708TIP3   OH226614   3.556   0.327   2.952  0.4364  0.5419 -0.5520
 1708TIP3    H126615   3.558   0.233   2.935  1.2586  0.2184  1.1984
 1708TIP3    H226616   3.471   0.342   2.994  1.0234  0.2574  0.7801
 1709TIP3   OH226617   3.588   4.560   6.143 -0.2528 -0.8434 -0.2980
 1709TIP3    H126618   3.498   4.565   6.110 -0.1151  0.6856 -0.5220
 1709TIP3    H226619   3.582   4.505   6.221 -1.7514  0.7794  0.8091
 1710TIP3   OH226620   3.964   0.291  14.493 -0.5179  0.1477 -0.4343
 1710TIP3    H126621   3.871   0.270  14.491 -0.5239  0.0341 -3.7748
 1710TIP3    H226622   4.008   0.206  14.481  0.1950 -0.0224  2.5066
 1711TIP3   OH226623   5.469   2.864   4.621 -0.4989  0.5369  0.1383
 1711TIP3    H126624   5.451   2.912   4.702 -1.7586  0.7701 -0.2516
 1711TIP3    H226625   5.442   2.924   4.551 -1.9787 -0.6415 -0.3663
 1712TIP3   OH226626   0.087   2.288  17.140  0.2794  0.1304 -0.3855
 1712TIP3    H126627   0.013   2.307  17.197 -1.7229  1.7855 -3.2570
 1712TIP3    H226628   0.137   2.221  17.186 -1.5166  0.8596  2.8918
 1713TIP3   OH226629   5.197   0.042  15.104  0.6442 -0.7296  0.0667
 1713TIP3    H126630   5.189  -0.054  15.107  0.6975 -0.7606 -0.6957
 1713TIP3    H226631   5.287   0.060  15.131  0.5697 -0.8811  0.4189
 1714TIP3   OH226632   4.349   1.081  12.964 -0.0075 -0.1005  0.2319
 1714TIP3    H126633   4.415   1.012  12.967 -0.1717 -0.2299  1.7588
 1714TIP3    H226634   4.398   1.161  12.944  0.3017 -0.5186 -0.7044
 1715TIP3   OH226635   2.190   5.546  16.701 -0.1177 -0.2476 -0.1943
 1715TIP3    H126636   2.240   5.622  16.729  0.9544 -1.1577  0.4747
 1715TIP3    H226637   2.113   5.582  16.658  0.3424  1.2021  0.1404
 1716TIP3   OH226638   0.975   1.254  14.029 -0.4463  0.3679  0.6463
 1716TIP3    H126639   1.039   1.324  14.014 -1.2446  0.4705 -3.3618
 1716TIP3    H226640   0.913   1.292  14.092  0.0660  2.6422 -0.1139
 1717TIP3   OH226641   2.243   4.005   3.526  0.1023 -0.0491  0.4959
 1717TIP3    H126642   2.237   3.992   3.431  1.1119  0.7622  0.3054
 1717TIP3    H226643   2.266   3.918   3.561  0.8751 -0.1082 -0.1279
 1718TIP3   OH226644   1.407   4.871   6.981 -0.0196  0.3158  0.7615
 1718TIP3    H126645   1.339   4.806   6.998  1.1884 -1.5017 -0.9798
 1718TIP3    H226646   1.359   4.947   6.947 -1.1844 -1.3188 -1.4742
 1719TIP3   OH226647   4.575   1.705   5.435 -0.3611  0.4764  0.0774
 1719TIP3    H126648   4.650   1.671   5.484 -0.1785  0.5484 -0.1521
 1719TIP3    H226649   4.611   1.777   5.383 -0.5697  0.4454 -0.1090
 1720TIP3   OH226650   6.767   4.556   2.484 -0.6921  0.1537 -0.5121
 1720TIP3    H126651   6.795   4.540   2.394 -0.1129  0.4650 -0.3937
 1720TIP3    H226652   6.717   4.478   2.508 -2.0936  0.6861 -1.5772
 1721TIP3   OH226653   2.604   0.802  15.988  0.0664  0.6178 -0.0273
 1721TIP3    H126654   2.608   0.708  15.969  0.9708  0.5499  0.4403
 1721TIP3    H226655   2.680   0.839  15.944  1.3753  0.6717  2.1131
 1722TIP3   OH226656   2.221   5.101  13.742  0.0512 -0.1766 -0.0016
 1722TIP3    H126657   2.210   5.186  13.787  0.0088 -0.1410 -0.0800
 1722TIP3    H226658   2.156   5.044  13.784 -0.5275  0.0682 -0.5500
 1723TIP3   OH226659   5.309   1.843   6.094  0.1840 -0.2398  0.5144
 1723TIP3    H126660   5.351   1.907   6.151  0.9958 -0.0466 -0.2652
 1723TIP3    H226661   5.246   1.798   6.150 -0.6917  1.4998  0.9905
 1724TIP3   OH226662   1.038   6.348   1.961  0.3854  0.2768  0.5615
 1724TIP3    H126663   1.062   6.265   2.002 -0.7490 -1.6174 -2.2801
 1724TIP3    H226664   1.120   6.379   1.921  0.6379  0.0606  0.9041
 1725TIP3   OH226665   4.931   6.101   1.074  0.1148  0.0541 -0.0030
 1725TIP3    H126666   4.837   6.093   1.084  0.1394 -0.1529  0.0671
 1725TIP3    H226667   4.948   6.073   0.983  0.3403 -1.9801  0.6108
 1726TIP3   OH226668   3.335   2.176  12.222  0.5760  0.2741  0.7245
 1726TIP3    H126669   3.396   2.177  12.296  0.0540  1.3447  1.1545
 1726TIP3    H226670   3.385   2.215  12.150  1.0018 -0.5482  0.5536
 1727TIP3   OH226671   1.691   1.362   5.680  0.4756  0.4740 -0.2008
 1727TIP3    H126672   1.629   1.292   5.699 -0.8197  2.1661  2.3598
 1727TIP3    H226673   1.637   1.432   5.644  1.4705  0.7904 -1.1195
 1728TIP3   OH226674   4.509   4.426   3.547 -0.0268  0.0001  0.4964
 1728TIP3    H126675   4.507   4.493   3.615  0.3911 -0.8580  1.3656
 1728TIP3    H226676   4.602   4.405   3.537 -0.0459  0.3591 -0.5927
 1729TIP3   OH226677   6.353   3.392  13.028  0.1021 -0.0674 -0.1288
 1729TIP3    H126678   6.320   3.445  12.955  0.9122  1.0907  0.3163
 1729TIP3    H226679   6.292   3.410  13.100 -0.7386 -1.2650 -0.5127
 1730TIP3   OH226680   0.717   2.677   2.037  0.2344  0.5765  0.1853
 1730TIP3    H126681   0.794   2.654   2.089 -1.0035  0.2459  1.9421
 1730TIP3    H226682   0.741   2.654   1.947  1.2658 -1.9515  1.0195
 1731TIP3   OH226683   3.221   6.182  16.188  0.3768 -0.6747  0.4312
 1731TIP3    H126684   3.241   6.220  16.273  2.9425  0.3156 -0.5400
 1731TIP3    H226685   3.174   6.252  16.142  1.3478 -0.2150  0.1227
 1732TIP3   OH226686   1.758   5.878  16.598 -0.1351 -0.4175  0.0182
 1732TIP3    H126687   1.693   5.948  16.586  1.0267  0.6410 -0.2929
 1732TIP3    H226688   1.841   5.924  16.611  1.5385 -1.6720 -4.5358
 1733TIP3   OH226689   6.131   5.017  11.231  0.4725  0.0260  0.4620
 1733TIP3    H126690   6.130   4.995  11.138  0.5747  0.8577  0.2579
 1733TIP3    H226691   6.222   5.005  11.257  0.2438 -1.2939  0.7373
 1734TIP3   OH226692   4.036   0.285  13.590 -0.1515 -0.3027  0.3314
 1734TIP3    H126693   4.109   0.223  13.580  0.9423  0.7928  1.3152
 1734TIP3    H226694   4.022   0.318  13.501 -0.8878 -2.0499 -0.2607
 1735TIP3   OH226695   3.333   4.427  15.530 -0.3271  0.0727 -0.2966
 1735TIP3    H126696   3.326   4.354  15.468  1.4739 -0.9066  0.5665
 1735TIP3    H226697   3.274   4.494  15.495 -0.4969 -1.0025 -2.2367
 1736TIP3   OH226698   2.831   3.634  11.329 -0.3155 -0.3937  0.5862
 1736TIP3    H126699   2.753   3.585  11.305  0.3356 -0.9187 -0.5393
 1736TIP3    H226700   2.897   3.606  11.266 -0.0401  2.2905 -0.4453
 1737TIP3   OH226701   6.602   4.074  10.525  0.1387 -0.7321  0.1222
 1737TIP3    H126702   6.648   4.112  10.450  0.1783 -1.6279 -0.3290
 1737TIP3    H226703   6.634   3.984  10.529 -1.1597 -1.2156  0.1354
 1738TIP3   OH226704   0.846   5.494   3.043  0.0561  0.1639 -0.2617
 1738TIP3    H126705   0.781   5.424   3.038  0.5100 -0.3312  0.4916
 1738TIP3    H226706   0.795   5.575   3.036 -0.6921 -0.2071  0.6403
 1739TIP3   OH226707   5.158   6.026   0.454 -0.2788 -0.0559  0.0731
 1739TIP3    H126708   5.090   6.092   0.463  0.6645  1.1529 -1.2590
 1739TIP3    H226709   5.222   6.048   0.522  0.2782  0.7524 -0.6878
 1740TIP3   OH226710   3.891   2.372  14.469 -0.2004  0.1132 -0.3332
 1740TIP3    H126711   3.801   2.345  14.450  0.1334 -0.3655 -1.2765
 1740TIP3    H226712   3.945   2.296  14.447  0.6698  1.1782 -2.1492
 1741TIP3   OH226713   0.804   4.642   4.750  0.3273  0.0563  0.2587
 1741TIP3    H126714   0.788   4.629   4.657 -1.1246  0.5085  0.4277
 1741TIP3    H226715   0.802   4.554   4.788 -0.6227 -0.0057  0.0849
 1742TIP3   OH226716   2.069   4.270   5.844 -0.2057  0.0446  0.4131
 1742TIP3    H126717   2.151   4.319   5.841  0.3200 -0.8524 -0.6607
 1742TIP3    H226718   2.083   4.196   5.784 -2.2665  0.6082 -0.8457
 1743TIP3   OH226719   6.712   1.405  16.197  0.4064  0.3099 -0.0233
 1743TIP3    H126720   6.746   1.491  16.173  0.9034 -0.1053 -0.8460
 1743TIP3    H226721   6.745   1.346  16.129  0.8934 -0.7067  1.0573
 1744TIP3   OH226722   1.085   5.006   4.825 -0.2306 -0.2374 -0.1139
 1744TIP3    H126723   1.084   4.947   4.750 -0.7020 -3.7952  2.4260
 1744TIP3    H226724   1.177   5.007   4.854 -0.4110 -0.6940  0.5051
 1745TIP3   OH226725   2.962   4.497   4.417  0.2800  0.2123 -0.0117
 1745TIP3    H126726   3.009   4.417   4.395  0.4004 -0.3674  2.0835
 1745TIP3    H226727   2.870   4.473   4.417  0.3391 -0.0708  1.0152
 1746TIP3   OH226728   3.501   1.602  16.944 -0.3260 -0.6908 -0.3591
 1746TIP3    H126729   3.584   1.567  16.913  0.9884  1.4532  0.4782
 1746TIP3    H226730   3.457   1.636  16.866  1.1047  1.0189 -0.4927
 1747TIP3   OH226731   3.191   2.608  14.153  0.0032 -0.0812 -0.7536
 1747TIP3    H126732   3.160   2.684  14.103 -1.0037 -1.0659 -1.6768
 1747TIP3    H226733   3.132   2.537  14.127  0.2783 -0.9371  0.8769
 1748TIP3   OH226734   3.842   2.352  10.784  0.0865 -0.4437  0.1882
 1748TIP3    H126735   3.795   2.315  10.858 -0.7203 -1.2586 -0.6885
 1748TIP3    H226736   3.776   2.360  10.715  1.2037 -1.7130 -1.1196
 1749TIP3   OH226737   1.331   1.438  16.410  0.0882  0.3860  0.1612
 1749TIP3    H126738   1.364   1.523  16.381  0.4014  0.9357  1.9493
 1749TIP3    H226739   1.239   1.453  16.431  0.6298  0.8837  2.4429
 1750TIP3   OH226740   5.671   0.291  14.685  0.6405 -0.1271  0.0557
 1750TIP3    H126741   5.751   0.238  14.675 -1.3207 -2.8936 -3.0296
 1750TIP3    H226742   5.657   0.329  14.599 -2.6225 -1.8604 -0.3199
 1751TIP3   OH226743   3.037   5.054  12.346 -0.3529  0.5573 -0.5055
 1751TIP3    H126744   3.040   5.077  12.253 -2.0135  1.4362 -0.3926
 1751TIP3    H226745   3.068   5.133  12.390 -0.5652  0.5236 -0.2943
 1752TIP3   OH226746   3.653   3.185   5.522 -0.3485 -0.1293  0.3628
 1752TIP3    H126747   3.736   3.153   5.556 -1.6200  0.0316  4.0766
 1752TIP3    H226748   3.665   3.279   5.512  0.2712 -0.2825 -0.4471
 1753TIP3   OH226749   2.752   6.723   1.849 -0.4772  0.8422  0.2946
 1753TIP3    H126750   2.799   6.762   1.776 -0.7772  2.2159  0.8002
 1753TIP3    H226751   2.818   6.673   1.896 -0.3853 -0.4877 -1.1577
 1754TIP3   OH226752   6.672   2.564   0.545  0.5646 -0.3283  0.6106
 1754TIP3    H126753   6.603   2.630   0.550 -0.1905 -1.0742  0.2067
 1754TIP3    H226754   6.721   2.587   0.466  0.3480 -0.2239  0.5071
 1755TIP3   OH226755   1.066   5.221  14.071 -0.2521 -0.1571  0.3357
 1755TIP3    H126756   1.042   5.250  14.159 -0.2712  1.7254 -0.2478
 1755TIP3    H226757   0.983   5.202  14.028 -0.2336 -1.2575  0.7579
 1756TIP3   OH226758   2.944   4.573  10.569  0.1371  0.3586  0.4895
 1756TIP3    H126759   2.962   4.484  10.540  0.0020  0.6176 -0.4275
 1756TIP3    H226760   3.010   4.627  10.525 -0.6692  0.8753 -0.1307
 1757TIP3   OH226761   6.198   6.099   3.174  0.2663  0.1124  0.0303
 1757TIP3    H126762   6.153   6.026   3.130  0.3558  0.5708 -0.8352
 1757TIP3    H226763   6.257   6.056   3.236  0.0826 -0.5439 -0.2396
 1758TIP3   OH226764   5.332   5.919   6.477 -0.1606 -0.3134 -0.4324
 1758TIP3    H126765   5.346   5.949   6.567  0.9857 -2.4216  0.1637
 1758TIP3    H226766   5.364   5.828   6.477 -2.3749 -1.2010 -2.3512
 1759TIP3   OH226767   3.853   3.505  15.133  0.0997  0.3245 -0.1506
 1759TIP3    H126768   3.818   3.416  15.131  1.9427 -0.5828  2.5356
 1759TIP3    H226769   3.940   3.498  15.093  0.7588  0.5732  1.1533
 1760TIP3   OH226770   5.984   1.819   2.047  0.3960  0.3898 -0.4918
 1760TIP3    H126771   5.978   1.915   2.040 -1.1237  0.2645 -1.6322
 1760TIP3    H226772   6.049   1.794   1.982  0.0215  0.5833 -0.9455
 1761TIP3   OH226773   1.296   2.843   2.282 -0.2735 -0.4322 -0.0457
 1761TIP3    H126774   1.313   2.749   2.291 -0.4906 -0.5268 -0.5780
 1761TIP3    H226775   1.207   2.848   2.249 -0.5116 -0.0110  0.6365
 1762TIP3   OH226776   2.628   5.451   1.205  0.1315  0.4092  0.3812
 1762TIP3    H126777   2.700   5.447   1.268  1.9719  1.6983 -1.4945
 1762TIP3    H226778   2.627   5.365   1.164  0.5436  0.3427  0.5057
 1763TIP3   OH226779   0.773   2.798   3.882 -0.3604 -0.4983  0.3545
 1763TIP3    H126780   0.762   2.731   3.949 -0.3574 -0.6776  0.1806
 1763TIP3    H226781   0.827   2.865   3.922  0.8657 -1.2803  0.0736
 1764TIP3   OH226782   4.977   6.173  11.680 -0.2606 -0.3516 -0.4888
 1764TIP3    H126783   5.020   6.248  11.638 -1.0947 -0.2071 -1.1146
 1764TIP3    H226784   5.049   6.116  11.707  0.3968  0.7927  0.2293
 1765TIP3   OH226785   0.439   5.566  16.182 -0.0738  0.1281 -0.1819
 1765TIP3    H126786   0.416   5.514  16.105  1.5087  0.2136 -0.7388
 1765TIP3    H226787   0.482   5.504  16.241 -1.6643 -0.0417  0.8767
 1766TIP3   OH226788   5.095   3.981  16.700 -0.1937  0.2535  0.1710
 1766TIP3    H126789   5.187   3.965  16.681 -0.4604 -1.1484 -0.0546
 1766TIP3    H226790   5.078   3.927  16.778 -0.6426  1.1163  0.6869
 1767TIP3   OH226791   2.393   1.958   0.776  0.2221 -0.2276  0.3721
 1767TIP3    H126792   2.322   1.939   0.715 -1.2858  2.3352  1.1597
 1767TIP3    H226793   2.361   1.928   0.861  0.5275 -0.0539  0.5530
 1768TIP3   OH226794   6.009   3.037  14.939 -0.2064  0.1362 -0.0598
 1768TIP3    H126795   5.937   3.017  14.879  0.4699  0.3782 -0.9766
 1768TIP3    H226796   6.055   3.109  14.897  1.6692 -1.2109 -0.4576
 1769TIP3   OH226797   0.504   2.890   4.743  0.1860  0.4640  0.0647
 1769TIP3    H126798   0.413   2.861   4.752  0.4646 -0.4365  0.1012
 1769TIP3    H226799   0.526   2.928   4.828 -0.2687  1.0507 -0.0694
 1770TIP3   OH226800   1.750   4.305   2.176 -0.0918 -0.5792  0.2007
 1770TIP3    H126801   1.726   4.339   2.090 -0.3828 -0.8914  0.1572
 1770TIP3    H226802   1.814   4.368   2.210 -0.9052  0.2270  0.2864
 1771TIP3   OH226803   2.351   5.221   0.143 -0.2787  0.2473  0.4246
 1771TIP3    H126804   2.285   5.164   0.183 -0.5206  0.4401  0.3023
 1771TIP3    H226805   2.304   5.300   0.120  0.3695  1.1675  2.0455
 1772TIP3   OH226806   1.984   5.497   1.754 -0.1218 -0.1158 -0.1699
 1772TIP3    H126807   1.932   5.419   1.772 -0.8405  0.0953 -1.2614
 1772TIP3    H226808   1.954   5.527   1.669  1.7622  0.0579 -0.8170
 1773TIP3   OH226809   4.800   5.410  14.433  0.5653  0.0747  0.3185
 1773TIP3    H126810   4.835   5.458  14.508  1.0548  0.8229 -0.3669
 1773TIP3    H226811   4.842   5.323  14.439  0.2314 -0.0361  1.1644
 1774TIP3   OH226812   4.002   2.775  14.883  0.3832  0.4922  0.2822
 1774TIP3    H126813   3.985   2.690  14.925 -0.4650 -0.2284 -1.4000
 1774TIP3    H226814   4.094   2.772  14.858  0.5585  0.3982  0.9411
 1775TIP3   OH226815   0.850   5.137   4.893 -0.1515  0.2612 -0.0738
 1775TIP3    H126816   0.791   5.062   4.885 -1.2334  1.0518  0.2927
 1775TIP3    H226817   0.932   5.107   4.854 -0.7403 -0.9132 -0.4575
 1776TIP3   OH226818   0.108   4.736  16.785 -1.1239  0.3452 -0.1590
 1776TIP3    H126819   0.162   4.790  16.727 -1.9294 -0.0128 -1.2583
 1776TIP3    H226820   0.168   4.667  16.815 -0.7988  0.3152 -0.8561
 1777TIP3   OH226821   6.722   4.042   2.372  0.5600  0.3822  0.3388
 1777TIP3    H126822   6.774   3.974   2.413  0.4951  1.4214  2.2784
 1777TIP3    H226823   6.782   4.084   2.310  1.0935 -0.3730  0.3330
 1778TIP3   OH226824   0.814   1.084   3.117  0.2268 -0.5286  0.1260
 1778TIP3    H126825   0.744   1.059   3.056 -0.5256  1.6386  0.0256
 1778TIP3    H226826   0.770   1.136   3.185  1.2896 -1.6334  1.7413
 1779TIP3   OH226827   2.034   4.396  17.051  0.1154  0.2868 -0.9883
 1779TIP3    H126828   1.985   4.334  16.997 -0.7069  1.8019 -2.0952
 1779TIP3    H226829   2.093   4.439  16.989  0.3630  0.8821 -0.3504
 1780TIP3   OH226830   0.902   3.138  12.635  0.1299  0.1069 -0.2990
 1780TIP3    H126831   0.940   3.225  12.642 -1.9668  1.2222 -1.5504
 1780TIP3    H226832   0.826   3.140  12.693  0.8808 -1.4411  0.8138
 1781TIP3   OH226833   4.030   0.384   3.931 -0.0041  0.3061  0.2785
 1781TIP3    H126834   4.033   0.436   4.011 -1.0236  0.7028  0.0722
 1781TIP3    H226835   3.950   0.412   3.887 -0.6635 -1.5187  0.2227
 1782TIP3   OH226836   6.121   6.668   4.669  0.2983 -0.0611  0.8540
 1782TIP3    H126837   6.190   6.733   4.683 -0.0054 -0.0457  2.3859
 1782TIP3    H226838   6.083   6.692   4.585  1.6654  0.3749  0.3247
 1783TIP3   OH226839   3.550   1.702   4.068  0.2331 -0.4256  0.9281
 1783TIP3    H126840   3.455   1.693   4.065  0.2426 -1.0950  2.1002
 1783TIP3    H226841   3.567   1.744   4.152  1.0647 -1.7379  1.4439
 1784TIP3   OH226842   5.135   6.401  12.547  0.2106 -0.0443 -0.0728
 1784TIP3    H126843   5.209   6.367  12.497  0.8116  1.4599 -0.2406
 1784TIP3    H226844   5.166   6.484  12.583 -0.5971 -0.5068  1.8334
 1785TIP3   OH226845   1.235   0.479  15.410 -0.2317  0.5297  0.2583
 1785TIP3    H126846   1.207   0.450  15.323  0.2699  2.8007 -0.7528
 1785TIP3    H226847   1.173   0.438  15.471 -1.2844 -0.2254 -1.2645
 1786TIP3   OH226848   3.347   6.816   4.247 -0.9206 -0.2945 -0.7858
 1786TIP3    H126849   3.301   6.820   4.331 -1.1205  1.8970 -0.9403
 1786TIP3    H226850   3.291   6.864   4.186  0.9252  1.3327 -1.2885
 1787TIP3   OH226851   1.393   4.007   3.532  0.2452  0.6350  0.3081
 1787TIP3    H126852   1.459   3.971   3.592  1.2876 -0.5569 -1.4799
 1787TIP3    H226853   1.310   3.989   3.575  0.8355 -2.1009  0.4946
 1788TIP3   OH226854   6.329   2.531   1.631  0.2327  0.2782  0.4139
 1788TIP3    H126855   6.329   2.619   1.669 -3.1302  0.5016  0.2271
 1788TIP3    H226856   6.272   2.480   1.689  1.2214 -1.5088 -0.1051
 1789TIP3   OH226857   3.493   6.514  15.116  0.0749  0.5806  0.1047
 1789TIP3    H126858   3.569   6.479  15.163  1.6246  0.7815 -2.1021
 1789TIP3    H226859   3.446   6.436  15.085 -0.8716  0.4504  1.7508
 1790TIP3   OH226860   3.542   2.515   5.376  0.0649  0.3568 -0.7008
 1790TIP3    H126861   3.614   2.474   5.424  0.2997 -1.2785 -2.3321
 1790TIP3    H226862   3.583   2.591   5.334  0.5607  0.1111 -0.6754
 1791TIP3   OH226863   3.052   3.737   0.113 -0.5758  0.0079 -0.2777
 1791TIP3    H126864   3.098   3.656   0.137 -1.2731 -0.1374  0.6234
 1791TIP3    H226865   2.961   3.709   0.098 -0.3877  0.2736 -2.1443
 1792TIP3   OH226866   6.138   0.630   6.098  0.9710  0.5070  0.0883
 1792TIP3    H126867   6.126   0.638   6.193 -0.7357 -1.0251  0.0429
 1792TIP3    H226868   6.188   0.549   6.087 -4.1532 -3.0640 -0.4169
 1793TIP3   OH226869   0.971   4.813  14.340  0.1647  0.3622 -0.1798
 1793TIP3    H126870   0.924   4.736  14.373 -0.5875 -0.5313 -3.0165
 1793TIP3    H226871   0.919   4.887  14.369  0.7998 -0.1181  2.4558
 1794TIP3   OH226872   4.025   0.506  12.205  0.3157  0.0526 -0.5854
 1794TIP3    H126873   4.119   0.491  12.209  0.1149 -1.1210  2.1354
 1794TIP3    H226874   3.988   0.421  12.182 -0.1951 -0.6160  2.3164
 1795TIP3   OH226875   3.041   2.981   1.660 -0.1709  0.2817 -0.1756
 1795TIP3    H126876   2.995   2.970   1.744  1.4619  0.5414  0.7992
 1795TIP3    H226877   3.112   2.917   1.663 -0.0943  0.2910 -1.3866
 1796TIP3   OH226878   2.444   0.481   3.211 -0.9235  0.1691  0.0313
 1796TIP3    H126879   2.539   0.478   3.220 -0.8703  1.5006  0.1669
 1796TIP3    H226880   2.416   0.391   3.224  0.4892 -0.6637 -2.0735
 1797TIP3   OH226881   3.389   6.761   2.776 -0.4244 -0.3287  0.1217
 1797TIP3    H126882   3.467   6.813   2.795 -0.3003 -0.0418 -1.1152
 1797TIP3    H226883   3.320   6.826   2.760 -0.3290 -0.5273 -1.1779
 1798TIP3   OH226884   2.952   6.805  12.013  0.5492  0.3594 -0.5256
 1798TIP3    H126885   2.935   6.871  12.080  1.9041  0.0358  0.1696
 1798TIP3    H226886   3.044   6.819  11.988  0.6402 -0.7741 -0.8971
 1799TIP3   OH226887   4.857   5.488  14.042 -0.3217 -0.4148  0.4968
 1799TIP3    H126888   4.873   5.401  14.006  1.2463 -0.0325  0.2231
 1799TIP3    H226889   4.926   5.501  14.107 -1.6449 -0.1013  1.9240
 1800TIP3   OH226890   2.455   4.993   5.441  0.2945 -0.0137  0.3072
 1800TIP3    H126891   2.516   5.060   5.413  0.4628  0.1421  1.0303
 1800TIP3    H226892   2.379   5.041   5.474  0.1661 -0.1867  0.2659
 1801TIP3   OH226893   6.581   1.470  11.797 -0.5958 -0.0769 -0.4078
 1801TIP3    H126894   6.665   1.425  11.798 -1.0228 -0.8941 -0.2031
 1801TIP3    H226895   6.590   1.538  11.730  0.6613  0.7195  0.5189
 1802TIP3   OH226896   0.962   4.826   0.058 -0.0399  0.0032  0.3328
 1802TIP3    H126897   0.899   4.773   0.108  0.0598  1.2085  1.8193
 1802TIP3    H226898   1.047   4.807   0.097  0.3410 -0.5279 -0.7159
 1803TIP3   OH226899   5.410   2.299  14.715  0.2879  0.5889 -0.1897
 1803TIP3    H126900   5.427   2.376  14.769 -0.3306  1.1424 -0.7637
 1803TIP3    H226901   5.346   2.329  14.651 -2.5765 -1.2143  1.5972
 1804TIP3   OH226902   6.811   2.172  10.930  0.0368 -0.1943  0.0908
 1804TIP3    H126903   6.868   2.215  10.867  0.3663 -0.2035  0.3786
 1804TIP3    H226904   6.723   2.185  10.896  0.3273 -2.0171 -1.4974
 1805TIP3   OH226905   6.429   1.658   2.132  0.0946 -0.1631  0.0829
 1805TIP3    H126906   6.415   1.582   2.075  0.9867  0.6246 -1.2659
 1805TIP3    H226907   6.519   1.685   2.113  0.4777  0.0483  2.0332
 1806TIP3   OH226908   5.400   6.136  11.650  0.1746 -0.5080  0.4473
 1806TIP3    H126909   5.365   6.185  11.575 -0.2816  1.3807  1.8196
 1806TIP3    H226910   5.494   6.131  11.634  0.3713  1.6628  0.6635
 1807TIP3   OH226911   4.779   1.183  15.356 -0.5274  0.0153 -0.0765
 1807TIP3    H126912   4.705   1.123  15.359 -0.9586  0.5761  0.5957
 1807TIP3    H226913   4.856   1.126  15.360 -0.8916 -0.6004 -1.1800
 1808TIP3   OH226914   6.274   0.827   4.998 -0.5844 -0.2607  0.0212
 1808TIP3    H126915   6.202   0.823   5.061  0.0118  0.8917  0.8051
 1808TIP3    H226916   6.315   0.741   5.004 -1.0573 -0.4606  0.5650
 1809TIP3   OH226917   4.859   5.810   3.810 -0.1591 -0.7419 -0.2793
 1809TIP3    H126918   4.932   5.783   3.754  0.3211 -0.7859  0.3509
 1809TIP3    H226919   4.868   5.905   3.816 -0.1965 -0.7397 -0.2607
 1810TIP3   OH226920   6.081   5.208   1.239  0.1986  0.2948  0.5565
 1810TIP3    H126921   6.012   5.251   1.289  0.1021  0.7894  0.0033
 1810TIP3    H226922   6.056   5.221   1.147  1.1638  0.7161  0.3411
 1811TIP3   OH226923   1.567   3.604   4.021 -0.1346 -0.2618  0.1190
 1811TIP3    H126924   1.487   3.654   4.002  0.3718  0.5393  0.0465
 1811TIP3    H226925   1.576   3.544   3.947  1.0223  1.8209 -1.5381
 1812TIP3   OH226926   5.501   5.025  16.793  0.5520 -0.0114  0.0490
 1812TIP3    H126927   5.412   5.059  16.804  0.7056  0.2437  0.5076
 1812TIP3    H226928   5.547   5.049  16.873  1.1147  0.0949 -0.2976
 1813TIP3   OH226929   0.381   1.960  12.304  0.1273  0.4199  0.7273
 1813TIP3    H126930   0.364   2.004  12.221 -0.8224 -0.8986  0.2015
 1813TIP3    H226931   0.443   1.890  12.283 -1.2164 -0.8460  0.8089
 1814TIP3   OH226932   3.326   6.096  15.318 -1.2162 -0.1110  0.2030
 1814TIP3    H126933   3.395   6.040  15.354  0.5262  1.2736 -0.7797
 1814TIP3    H226934   3.337   6.180  15.363 -3.6580 -0.3968  1.5171
 1815TIP3   OH226935   3.083   1.066  15.876 -0.3691 -0.0259 -0.9168
 1815TIP3    H126936   3.158   1.028  15.831 -0.3374 -0.2921 -0.6423
 1815TIP3    H226937   3.056   1.139  15.820  0.1925  0.1744 -0.9316
 1816TIP3   OH226938   0.391   1.957   3.718 -0.2398 -0.3195 -0.0662
 1816TIP3    H126939   0.432   1.878   3.683  0.2917  0.3216 -0.9113
 1816TIP3    H226940   0.443   2.029   3.684  0.3247  0.3630  2.0713
 1817TIP3   OH226941   6.649   2.308  14.915  0.7700 -0.3344 -0.7714
 1817TIP3    H126942   6.727   2.261  14.888  0.5256 -1.6639  0.6738
 1817TIP3    H226943   6.637   2.284  15.007 -1.6358 -0.6105 -1.0728
 1818TIP3   OH226944   6.034   6.241  11.660 -0.1383  0.1800 -0.0606
 1818TIP3    H126945   6.024   6.189  11.740 -0.9606 -0.7204 -0.7171
 1818TIP3    H226946   5.944   6.256  11.630  0.0493  2.4616  0.3770
 1819TIP3   OH226947   5.734   5.865   4.250  0.2458 -0.2106  0.3761
 1819TIP3    H126948   5.771   5.946   4.285  2.2830 -1.4904  1.3814
 1819TIP3    H226949   5.728   5.807   4.325  0.0368 -1.4115 -0.5450
 1820TIP3   OH226950   1.599   4.374   0.687  0.2721 -0.5494  0.2382
 1820TIP3    H126951   1.691   4.366   0.660  0.1687 -0.3042 -0.2038
 1820TIP3    H226952   1.553   4.396   0.606  0.0277  0.7994  0.7252
 1821TIP3   OH226953   6.181   2.039  14.622  0.2551  0.2773  0.3579
 1821TIP3    H126954   6.185   2.123  14.668 -1.3935  0.2057  0.6886
 1821TIP3    H226955   6.270   2.025  14.591  1.0160  1.1874  1.9977
 1822TIP3   OH226956   5.575   1.942   0.125 -0.3736  0.4012 -0.0061
 1822TIP3    H126957   5.581   1.939   0.220 -2.1566  0.7396  0.1445
 1822TIP3    H226958   5.502   2.000   0.107 -2.3703 -2.3062 -1.4665
 1823TIP3   OH226959   2.964   4.672  13.005  0.6590 -0.1247  0.4504
 1823TIP3    H126960   2.996   4.584  12.984 -0.7691 -0.7740  0.7965
 1823TIP3    H226961   2.885   4.656  13.057 -0.8664  1.3164 -1.2867
 1824TIP3   OH226962   5.420   3.300   3.342  0.3275 -0.2931  0.5166
 1824TIP3    H126963   5.475   3.328   3.269  0.5558  0.9641  1.1485
 1824TIP3    H226964   5.466   3.226   3.381 -0.5652 -2.0638 -1.5376
 1825TIP3   OH226965   2.352   6.101   5.040  0.5508 -0.1882  0.0698
 1825TIP3    H126966   2.328   6.076   4.951 -0.0002  2.0420 -0.4717
 1825TIP3    H226967   2.272   6.089   5.090  0.7111 -0.9306  0.1527
 1826TIP3   OH226968   1.532   2.356  11.338 -0.5959  0.2341 -0.4277
 1826TIP3    H126969   1.452   2.407  11.327  0.1262  1.1538 -1.7166
 1826TIP3    H226970   1.518   2.278  11.284 -0.2240  0.9032 -1.5146
 1827TIP3   OH226971   6.630   2.705   1.670 -0.1556 -0.4816  0.8588
 1827TIP3    H126972   6.701   2.667   1.721 -0.0082 -1.7924 -0.2569
 1827TIP3    H226973   6.634   2.799   1.689  1.8972 -0.5228  0.8127
 1828TIP3   OH226974   4.165   3.986  14.265  0.3390 -0.1799 -0.4131
 1828TIP3    H126975   4.168   3.910  14.322  0.8894  0.9883  1.1850
 1828TIP3    H226976   4.253   3.990  14.225  0.4934 -0.0794 -0.0668
 1829TIP3   OH226977   1.051   4.933  15.892  0.1851 -0.9465  0.2711
 1829TIP3    H126978   0.973   4.988  15.880  0.7969 -0.4684 -1.8488
 1829TIP3    H226979   1.083   4.957  15.979 -0.8314  0.4098  0.3143
 1830TIP3   OH226980   0.305   6.140   0.735 -0.3461  0.1854 -0.0442
 1830TIP3    H126981   0.286   6.233   0.746  1.7131  0.9611 -2.3237
 1830TIP3    H226982   0.292   6.123   0.642  3.3876 -0.6603 -0.5918
 1831TIP3   OH226983   0.744   4.586   5.744  0.3394 -0.4350 -0.1981
 1831TIP3    H126984   0.713   4.539   5.822 -2.2620  1.1299 -0.1700
 1831TIP3    H226985   0.825   4.629   5.772 -0.7254  0.4069  1.8278
 1832TIP3   OH226986   4.112   1.504   1.688 -0.5992  0.0594  0.3394
 1832TIP3    H126987   4.084   1.429   1.635 -2.2417  1.2433 -0.5469
 1832TIP3    H226988   4.175   1.467   1.750 -2.6622 -2.4603  1.1560
 1833TIP3   OH226989   2.784   1.017  14.096 -0.3353  0.2751 -0.2592
 1833TIP3    H126990   2.827   0.941  14.135  1.0733  0.1459 -1.9237
 1833TIP3    H226991   2.840   1.040  14.021 -2.3451  1.0981 -1.5809
 1834TIP3   OH226992   6.469   3.719   3.289  0.2173  0.0131 -0.6247
 1834TIP3    H126993   6.480   3.745   3.198  2.1306 -0.0537 -0.4497
 1834TIP3    H226994   6.377   3.694   3.296 -0.2112  0.9988 -2.2688
 1835TIP3   OH226995   3.124   4.648  15.742  0.0224  0.2570 -0.0262
 1835TIP3    H126996   3.218   4.657  15.756  0.1163 -0.7623  0.0853
 1835TIP3    H226997   3.089   4.630  15.829 -0.2630  0.5445 -0.0815
 1836TIP3   OH226998   2.411   3.964  11.997 -0.0284  0.0965 -0.8542
 1836TIP3    H126999   2.481   4.023  11.968  1.0245 -0.7113 -0.0263
 1836TIP3    H227000   2.447   3.876  11.983 -0.6815 -0.3260  0.0409
 1837TIP3   OH227001   4.431   6.582   6.072  0.0056 -0.0580  0.4405
 1837TIP3    H127002   4.338   6.605   6.074 -0.4682 -1.4958 -1.5901
 1837TIP3    H227003   4.477   6.662   6.096 -1.7359  0.5948  1.8333
 1838TIP3   OH227004   3.472   1.605   5.065  0.3544  0.6051 -0.1497
 1838TIP3    H127005   3.440   1.694   5.051 -1.1340  0.2767  0.9298
 1838TIP3    H227006   3.454   1.587   5.157  0.6412 -0.8144 -0.3484
 1839TIP3   OH227007   4.127   4.700  14.805 -0.3595  0.0227 -0.5697
 1839TIP3    H127008   4.128   4.615  14.850 -1.2412  0.4802  0.3518
 1839TIP3    H227009   4.053   4.746  14.843  1.3158  2.0231  0.5064
 1840TIP3   OH227010   1.360   0.485  14.438  0.2248 -0.0106 -0.4157
 1840TIP3    H127011   1.389   0.525  14.356  1.9688 -0.2185  0.0716
 1840TIP3    H227012   1.312   0.555  14.483 -0.4910  0.1874 -1.4640
 1841TIP3   OH227013   5.473   1.543   4.432  0.1786 -0.4455 -0.1282
 1841TIP3    H127014   5.532   1.476   4.465 -0.7202 -0.2725  2.0169
 1841TIP3    H227015   5.509   1.626   4.465 -0.7047 -0.2586  0.4194
 1842TIP3   OH227016   4.989   2.214   0.421 -0.0281 -0.4765  0.0361
 1842TIP3    H127017   4.945   2.229   0.337  1.5433 -1.1221 -0.9537
 1842TIP3    H227018   4.925   2.241   0.487 -0.7056  1.6555 -1.3829
 1843TIP3   OH227019   4.354   1.625   0.666  1.0439  0.2013 -0.0537
 1843TIP3    H127020   4.271   1.642   0.711  0.8186  1.0804 -0.7707
 1843TIP3    H227021   4.414   1.600   0.736 -0.1330 -1.7594  0.3436
 1844TIP3   OH227022   4.860   6.205   5.328  0.5455 -0.5716  0.1985
 1844TIP3    H127023   4.791   6.141   5.311  0.7777 -0.1432 -2.9052
 1844TIP3    H227024   4.813   6.281   5.362 -0.5043 -0.4791 -1.3494
 1845TIP3   OH227025   3.228   1.246   5.268  0.6448  0.4391 -0.0604
 1845TIP3    H127026   3.134   1.256   5.277  0.3752 -1.6483  0.0533
 1845TIP3    H227027   3.241   1.151   5.259  2.6338  0.7521 -1.1267
 1846TIP3   OH227028   3.286   1.461   2.460  0.7670 -0.2229 -0.3160
 1846TIP3    H127029   3.263   1.553   2.470  2.1904  0.1916 -0.6251
 1846TIP3    H227030   3.204   1.418   2.436  0.1218  0.9787 -0.3443
 1847TIP3   OH227031   5.366   0.097  15.541 -0.7619 -0.6309  0.0153
 1847TIP3    H127032   5.404   0.009  15.545  0.4317 -0.0993  2.9907
 1847TIP3    H227033   5.442   0.155  15.531 -0.6732  0.3263  4.2154
 1848TIP3   OH227034   3.401   3.091   1.969 -0.5068  0.2747  0.1803
 1848TIP3    H127035   3.420   3.015   1.913  0.7414  0.0177  0.9116
 1848TIP3    H227036   3.424   3.166   1.915 -2.5755  0.2392 -0.8764
 1849TIP3   OH227037   2.657   0.264  16.682  0.6591  0.5278 -0.2553
 1849TIP3    H127038   2.600   0.341  16.676  0.9866  0.7049 -1.5706
 1849TIP3    H227039   2.700   0.260  16.596 -0.6002 -2.1202 -0.8538
 1850TIP3   OH227040   1.459   1.676  12.855 -0.5175  0.4579  0.5207
 1850TIP3    H127041   1.535   1.647  12.804 -1.2161  0.0390 -0.3064
 1850TIP3    H227042   1.391   1.690  12.790 -1.5411 -0.3957  1.3686
 1851TIP3   OH227043   1.252   3.899   2.866  0.2575  0.3585  0.0789
 1851TIP3    H127044   1.339   3.860   2.881  0.7049  1.2226 -0.1902
 1851TIP3    H227045   1.237   3.952   2.945  0.3149  0.8100 -0.2126
 1852TIP3   OH227046   3.861   0.420   5.996  0.1454 -0.0371  0.1442
 1852TIP3    H127047   3.860   0.453   5.906 -1.6504 -0.5206 -0.0500
 1852TIP3    H227048   3.904   0.489   6.047  0.5578  0.5446 -0.9676
 1853TIP3   OH227049   0.043   3.317   3.165 -0.3210  0.4191 -0.6266
 1853TIP3    H127050  -0.040   3.277   3.139  1.7473 -3.7879 -1.7369
 1853TIP3    H227051   0.088   3.335   3.082  0.6232  0.7390 -0.0564
 1854TIP3   OH227052   4.320   3.678   5.287 -0.6038 -0.2383  0.3060
 1854TIP3    H127053   4.265   3.604   5.259 -1.8028  0.7280  0.0140
 1854TIP3    H227054   4.378   3.641   5.354 -1.8686 -1.2283  0.8988
 1855TIP3   OH227055   4.171   6.378   5.027 -0.6489  0.1743  0.2692
 1855TIP3    H127056   4.133   6.360   4.941 -1.3599  0.5022  0.5059
 1855TIP3    H227057   4.206   6.294   5.056 -1.4148 -0.1907  0.1512
 1856TIP3   OH227058   5.348   1.590   3.826  0.0826 -0.5341  0.3650
 1856TIP3    H127059   5.382   1.519   3.771 -0.3700  0.9333 -1.9828
 1856TIP3    H227060   5.425   1.624   3.871  0.1132 -3.3363  2.7586
 1857TIP3   OH227061   6.312   2.111   1.792  0.2311 -0.3544 -0.3607
 1857TIP3    H127062   6.401   2.127   1.761  0.4064 -1.1754 -0.3020
 1857TIP3    H227063   6.269   2.065   1.720  0.3388 -1.3796  0.2114
 1858TIP3   OH227064   6.660   5.460   0.864 -0.3528 -0.4918 -0.4347
 1858TIP3    H127065   6.580   5.512   0.865 -0.5602 -0.8082 -0.5157
 1858TIP3    H227066   6.635   5.378   0.821  0.1659 -0.3374 -1.0480
 1859TIP3   OH227067   0.085   1.452   1.211 -0.4562  0.1717 -0.5737
 1859TIP3    H127068   0.028   1.514   1.256 -1.8992 -1.5626  0.1160
 1859TIP3    H227069   0.117   1.499   1.134  0.2778  2.4659  1.0364
 1860TIP3   OH227070   3.225   2.727  14.605 -0.1121  0.6587  0.1492
 1860TIP3    H127071   3.215   2.707  14.512 -1.5092 -1.2924  0.6490
 1860TIP3    H227072   3.236   2.641  14.647 -0.4565  1.4191  1.8882
 1861TIP3   OH227073   4.597   2.001   2.730  0.6855  0.1526 -0.1845
 1861TIP3    H127074   4.617   1.907   2.723 -1.2556 -0.2666 -0.9563
 1861TIP3    H227075   4.596   2.031   2.639 -0.5625  0.4563 -0.0877
 1862TIP3   OH227076   5.712   6.061   5.376 -0.3996  0.5021 -0.6315
 1862TIP3    H127077   5.619   6.040   5.387 -0.3429  0.3958 -0.3570
 1862TIP3    H227078   5.735   6.019   5.293 -1.0661  2.1444 -1.6888
 1863TIP3   OH227079   1.063   3.697   2.879 -0.0039 -0.5170 -0.1685
 1863TIP3    H127080   1.138   3.748   2.847 -1.7752  0.9960 -2.2297
 1863TIP3    H227081   1.052   3.726   2.969  1.4929 -0.3173 -0.0110
 1864TIP3   OH227082   0.466   3.273   0.233  0.1705  0.4741 -0.1467
 1864TIP3    H127083   0.416   3.313   0.162 -1.3157  1.6484  1.4621
 1864TIP3    H227084   0.403   3.218   0.279  1.1653 -0.4676  0.1186
 1865TIP3   OH227085   3.917   1.043  11.960 -0.0924 -0.4045 -0.2556
 1865TIP3    H127086   3.967   0.965  11.985 -0.1027 -0.2244  0.3469
 1865TIP3    H227087   3.956   1.071  11.877  0.5621 -0.4816  0.0177
 1866TIP3   OH227088   4.655   2.962   4.331  0.2327  0.1984  0.0846
 1866TIP3    H127089   4.604   3.041   4.319 -0.7440 -0.3570  0.4380
 1866TIP3    H227090   4.726   2.968   4.267 -0.2576  1.0012 -0.3854
 1867TIP3   OH227091   5.226   0.043   2.512  0.6086 -0.2884  0.2677
 1867TIP3    H127092   5.193  -0.030   2.459 -0.7148  0.4076  0.0700
 1867TIP3    H227093   5.320   0.030   2.516  0.4080 -1.9639  0.1739
 1868TIP3   OH227094   1.436   3.346  11.659  0.2486  0.6116 -0.3680
 1868TIP3    H127095   1.507   3.365  11.720  0.7675 -0.1963 -0.7124
 1868TIP3    H227096   1.479   3.307  11.583 -0.6765 -1.1604 -0.0346
 1869TIP3   OH227097   1.171   3.865  12.413  0.1030 -0.1390 -0.1722
 1869TIP3    H127098   1.169   3.821  12.328 -0.2629  0.8194 -0.6757
 1869TIP3    H227099   1.081   3.893  12.428 -0.2746 -2.0718  1.5086
 1870TIP3   OH227100   2.173   3.023   5.354 -0.1350  0.2148  0.2480
 1870TIP3    H127101   2.138   3.111   5.337  0.4859  0.6141  0.9677
 1870TIP3    H227102   2.134   2.998   5.438 -2.2981 -1.2741 -1.1056
 1871TIP3   OH227103   6.146   3.270   3.748 -0.8791 -0.0391  0.3020
 1871TIP3    H127104   6.067   3.324   3.738 -2.0382 -1.8021 -0.5875
 1871TIP3    H227105   6.116   3.181   3.730  1.4236 -0.7050 -0.4839
 1872TIP3   OH227106   2.155   1.569  14.554  0.2645 -0.3319  0.0657
 1872TIP3    H127107   2.079   1.583  14.610  0.6745  1.3880  0.2359
 1872TIP3    H227108   2.144   1.479  14.521 -2.2713  0.1339 -0.5666
 1873TIP3   OH227109   1.066   3.420  12.871 -0.1286  0.4771 -0.1985
 1873TIP3    H127110   1.056   3.394  12.780 -2.7235  2.2603 -0.5502
 1873TIP3    H227111   1.107   3.506  12.868 -1.4992  1.1738  0.1731
 1874TIP3   OH227112   2.601   5.274  14.319 -0.4757 -0.1746 -0.1507
 1874TIP3    H127113   2.565   5.233  14.241  0.8415 -2.1303  0.1840
 1874TIP3    H227114   2.616   5.201  14.380  1.0060  0.9313  0.8938
 1875TIP3   OH227115   1.184   2.504  11.021 -0.0797 -0.2609 -0.3501
 1875TIP3    H127116   1.219   2.457  11.097 -1.2072 -2.6830 -1.2336
 1875TIP3    H227117   1.243   2.481  10.949 -0.3161  0.1623 -0.6861
 1876TIP3   OH227118   3.614   1.241   0.649  0.4771 -0.1710 -1.0954
 1876TIP3    H127119   3.628   1.199   0.734  0.3181 -1.4651 -1.6891
 1876TIP3    H227120   3.702   1.247   0.610  0.9112  2.5592  0.0751
 1877TIP3   OH227121   0.991   3.928  11.474  0.8334 -0.1163 -0.2046
 1877TIP3    H127122   1.058   3.995  11.458  1.8631 -0.9826  0.2889
 1877TIP3    H227123   0.926   3.942  11.406  0.6071  1.8915  0.3716
 1878TIP3   OH227124   3.515   3.733  13.426 -1.0182  0.2196  0.2029
 1878TIP3    H127125   3.498   3.744  13.332  1.1455  0.0670 -0.2656
 1878TIP3    H227126   3.569   3.809  13.449  0.4691 -0.9393  0.7228
 1879TIP3   OH227127   3.117   6.774  15.538 -0.0936 -0.2424  0.4594
 1879TIP3    H127128   3.175   6.839  15.499  0.2308  0.1515  1.5647
 1879TIP3    H227129   3.061   6.745  15.465 -0.3045  1.3323 -0.0384
 1880TIP3   OH227130   5.099   4.474  13.322 -0.2306  0.0230 -0.4252
 1880TIP3    H127131   5.188   4.452  13.293 -0.8020 -1.2420 -1.3143
 1880TIP3    H227132   5.100   4.569  13.333  0.6377  0.3426 -2.6341
 1881TIP3   OH227133   4.644   0.867  16.372  0.4471 -0.7330 -0.8291
 1881TIP3    H127134   4.622   0.852  16.464  0.8031  0.3968 -0.5396
 1881TIP3    H227135   4.592   0.943  16.347 -0.1190 -1.3997 -1.7625
 1882TIP3   OH227136   4.110   6.037   2.332  0.2476 -0.5952 -0.2579
 1882TIP3    H127137   4.100   6.007   2.242 -0.3395 -1.9342  0.2219
 1882TIP3    H227138   4.045   6.108   2.341  1.0871  0.3253 -1.1762
 1883TIP3   OH227139   1.067   3.477  12.216  0.4551 -0.0397 -0.3833
 1883TIP3    H127140   1.100   3.491  12.304 -0.9434 -1.5971  0.4415
 1883TIP3    H227141   1.057   3.382  12.208 -0.1308  0.1156 -1.9577
 1884TIP3   OH227142   5.249   0.702   3.957 -0.6508  0.4547 -0.0112
 1884TIP3    H127143   5.222   0.662   4.039 -1.0548  1.5162  0.3956
 1884TIP3    H227144   5.235   0.796   3.970 -1.1423  0.6185 -1.4413
 1885TIP3   OH227145   5.207   3.152  16.289 -0.0018 -0.3681  0.2495
 1885TIP3    H127146   5.154   3.212  16.236 -0.1132 -0.9177 -0.2724
 1885TIP3    H227147   5.280   3.206  16.320 -1.1389  0.5426  1.4402
 1886TIP3   OH227148   6.375   3.599   5.736 -0.4804 -0.2527 -0.0135
 1886TIP3    H127149   6.451   3.540   5.740  0.4966  0.8766 -1.2400
 1886TIP3    H227150   6.343   3.602   5.826  1.1460 -0.5088  0.6126
 1887TIP3   OH227151   4.531   5.507  11.409 -0.1054  0.0527 -0.5813
 1887TIP3    H127152   4.528   5.428  11.461  0.7044  0.4084  0.0353
 1887TIP3    H227153   4.516   5.578  11.471 -1.3401  0.3649 -1.2128
 1888TIP3   OH227154   3.145   0.647   0.999  0.4382  0.5817  0.3934
 1888TIP3    H127155   3.197   0.724   0.976  0.1777  0.1296 -1.9504
 1888TIP3    H227156   3.169   0.628   1.090  1.2115  2.8379  0.7238
 1889TIP3   OH227157   3.733   0.087   3.141  0.2039 -0.4337 -0.5176
 1889TIP3    H127158   3.646   0.075   3.103  0.6157 -0.4183 -1.5081
 1889TIP3    H227159   3.792   0.047   3.077  0.9865  0.2967 -0.2692
 1890TIP3   OH227160   3.714   3.776   1.575 -0.2487  0.8101 -0.0464
 1890TIP3    H127161   3.628   3.766   1.536 -0.5343 -0.6634  0.8894
 1890TIP3    H227162   3.767   3.815   1.506 -0.9681 -0.7735 -1.5788
 1891TIP3   OH227163   1.408   6.034  12.839  0.1983  0.2606  0.1433
 1891TIP3    H127164   1.415   6.124  12.870 -1.4743  0.5168 -0.1086
 1891TIP3    H227165   1.325   6.032  12.791  0.7201 -1.1559 -0.7614
 1892TIP3   OH227166   4.698   4.115  14.684 -0.2708  0.9110  0.1083
 1892TIP3    H127167   4.751   4.051  14.637 -1.0258  0.8194 -0.6642
 1892TIP3    H227168   4.615   4.117  14.636 -0.3084  2.3946  0.1716
 1893TIP3   OH227169   5.519   3.239   4.142  0.2256 -0.7194  0.3945
 1893TIP3    H127170   5.486   3.253   4.230 -0.6612 -1.8075  0.2558
 1893TIP3    H227171   5.597   3.185   4.153 -0.6177 -1.9603  0.4527
 1894TIP3   OH227172   2.436   1.250   1.850  0.2877 -0.2578  0.2166
 1894TIP3    H127173   2.452   1.158   1.874 -0.0353 -0.2777  0.3628
 1894TIP3    H227174   2.493   1.265   1.774 -1.5335 -1.3483 -1.4685
 1895TIP3   OH227175   0.700   0.507  15.169  0.4171  0.2990 -0.0371
 1895TIP3    H127176   0.634   0.577  15.173  1.1527  1.0005 -0.0673
 1895TIP3    H227177   0.757   0.532  15.096 -0.5422 -1.4467 -1.4980
 1896TIP3   OH227178   4.146   0.707   2.860  0.3177 -0.2881 -0.0205
 1896TIP3    H127179   4.061   0.700   2.818  0.8508  0.1403 -1.2160
 1896TIP3    H227180   4.156   0.800   2.879  0.7081 -0.2718 -0.2967
 1897TIP3   OH227181   3.181   6.039   1.249 -0.2528  0.4036  0.0443
 1897TIP3    H127182   3.275   6.040   1.231  0.1469 -0.3113  1.8262
 1897TIP3    H227183   3.151   5.955   1.217 -0.4608  0.9159 -1.1690
 1898TIP3   OH227184   3.077   3.268   5.669 -0.6522  0.3785 -1.2525
 1898TIP3    H127185   3.005   3.249   5.730 -0.0119 -0.2593 -0.6803
 1898TIP3    H227186   3.125   3.339   5.710  0.2962 -0.6370 -0.5490
 1899TIP3   OH227187   2.256   4.547   2.494  0.0349  1.1866  0.2128
 1899TIP3    H127188   2.327   4.609   2.483  0.3926  1.0221  1.5251
 1899TIP3    H227189   2.290   4.465   2.459  0.4419  1.1366  0.7291
 1900TIP3   OH227190   4.566   3.497   4.940 -0.3736 -0.4129 -0.4526
 1900TIP3    H127191   4.561   3.414   4.987  1.3968 -0.5570 -0.4295
 1900TIP3    H227192   4.651   3.494   4.896 -1.1277  0.5638 -2.0547
 1901TIP3   OH227193   2.427   1.699   1.298  0.3925 -0.4434 -0.0512
 1901TIP3    H127194   2.491   1.670   1.232  2.3118  0.0955  1.4736
 1901TIP3    H227195   2.478   1.708   1.378 -1.6713 -0.1299  1.3054
 1902TIP3   OH227196   2.296   6.686   4.243  0.0292 -0.0762  0.0297
 1902TIP3    H127197   2.243   6.614   4.276 -0.4765 -0.4422 -1.4671
 1902TIP3    H227198   2.378   6.682   4.293 -0.1417 -1.4499  0.2265
 1903TIP3   OH227199   5.269   5.004  14.877 -0.0875 -0.2038  0.0999
 1903TIP3    H127200   5.342   5.055  14.845 -0.4086 -0.1792 -0.6137
 1903TIP3    H227201   5.299   4.913  14.873 -0.1767 -0.2101 -0.4066
 1904TIP3   OH227202   4.449   2.343  14.446  0.1977  0.1985 -0.6197
 1904TIP3    H127203   4.415   2.402  14.378 -0.2063 -2.0575 -2.5156
 1904TIP3    H227204   4.521   2.297  14.403  0.7889 -0.3951  0.9325
 1905TIP3   OH227205   2.600   1.606  11.801 -0.6414 -0.0544 -0.3045
 1905TIP3    H127206   2.591   1.513  11.825  1.0440 -0.2850 -0.4717
 1905TIP3    H227207   2.623   1.604  11.708  0.9026  0.4326  0.0400
 1906TIP3   OH227208   1.499   5.427  13.519  0.2710 -0.3340 -0.3416
 1906TIP3    H127209   1.441   5.503  13.511 -0.0532 -0.5677 -0.2394
 1906TIP3    H227210   1.558   5.435  13.444 -0.6397 -0.7130 -1.1342
 1907TIP3   OH227211   0.351   0.272  11.430 -0.1256 -0.1000  0.2065
 1907TIP3    H127212   0.445   0.276  11.450 -0.0998 -1.5307  0.4408
 1907TIP3    H227213   0.346   0.272  11.335  0.2356 -1.7678  0.1587
 1908TIP3   OH227214   2.361   5.130   5.129 -0.1412 -0.3984 -0.5052
 1908TIP3    H127215   2.408   5.155   5.208 -1.0666  0.3941 -0.1857
 1908TIP3    H227216   2.424   5.080   5.078  1.4708  1.6866 -0.6708
 1909TIP3   OH227217   3.338   0.117  10.943 -0.5316 -0.4228  0.4141
 1909TIP3    H127218   3.293   0.160  10.871  2.2207 -2.2144 -2.6471
 1909TIP3    H227219   3.346   0.026  10.916  0.9798 -1.0976  2.8140
 1910TIP3   OH227220   4.261   2.072   0.315  0.1932 -0.2338 -0.0589
 1910TIP3    H127221   4.306   2.096   0.396  1.3397 -1.1564 -0.4010
 1910TIP3    H227222   4.177   2.119   0.320 -0.0929 -0.8382  1.9961
 1911TIP3   OH227223   2.806   5.745  11.934 -0.4301 -0.1736 -0.1514
 1911TIP3    H127224   2.726   5.786  11.966  0.3026  0.5088  0.8595
 1911TIP3    H227225   2.876   5.800  11.968  0.5990 -2.1959  1.2136
 1912TIP3   OH227226   0.894   1.818   0.241  0.2248  0.0706 -0.3681
 1912TIP3    H127227   0.931   1.869   0.313  1.2330 -0.1422 -0.7188
 1912TIP3    H227228   0.924   1.729   0.257 -1.9947 -0.5966  0.5617
 1913TIP3   OH227229   3.102   5.737   1.220 -0.2881  0.3884  0.1591
 1913TIP3    H127230   3.159   5.668   1.185  0.9822  0.1334  2.4684
 1913TIP3    H227231   3.026   5.738   1.162  0.2460 -2.0641 -0.7087
 1914TIP3   OH227232   1.699   1.635  13.068  1.0114 -0.9726 -0.1732
 1914TIP3    H127233   1.703   1.673  12.980  2.7869 -2.1881 -0.6847
 1914TIP3    H227234   1.644   1.557  13.058 -2.1016  0.9317  0.7389
 1915TIP3   OH227235   1.215   3.539  16.245 -0.1627 -0.1294 -0.1161
 1915TIP3    H127236   1.225   3.460  16.298 -1.0730  0.8159  1.5436
 1915TIP3    H227237   1.301   3.582  16.250 -0.3049  0.0615  0.7862
 1916TIP3   OH227238   5.571   5.831   2.302  0.2800  0.1695  0.3494
 1916TIP3    H127239   5.619   5.865   2.226 -0.2662 -0.2777 -0.2076
 1916TIP3    H227240   5.479   5.834   2.276  0.1894 -1.6728  0.2624
 1917TIP3   OH227241   1.877   1.741   4.998  0.4423  0.4494  0.1132
 1917TIP3    H127242   1.807   1.713   5.057 -0.1668  0.0548 -0.7786
 1917TIP3    H227243   1.947   1.677   5.012  1.5742  2.0822  2.6248
 1918TIP3   OH227244   0.003   0.465  16.370  0.2375 -0.2182 -0.5341
 1918TIP3    H127245   0.030   0.547  16.329  1.8558  0.3749  1.5585
 1918TIP3    H227246  -0.004   0.485  16.464 -2.2653 -1.7601 -0.2634
 1919TIP3   OH227247   0.282   6.279  15.075 -0.1680  0.7542  0.8331
 1919TIP3    H127248   0.217   6.255  15.141 -2.3071 -0.2573 -1.4894
 1919TIP3    H227249   0.235   6.333  15.013  1.5815  1.1035 -0.2701
 1920TIP3   OH227250   3.202   2.008  13.951 -0.7116 -0.4854 -0.0392
 1920TIP3    H127251   3.296   2.025  13.958 -0.3452 -2.1256 -0.5294
 1920TIP3    H227252   3.162   2.095  13.943  0.9025  0.1779 -1.4005
 1921TIP3   OH227253   4.531   4.149  11.139  0.4425 -0.1154  0.6702
 1921TIP3    H127254   4.581   4.151  11.221 -1.0974 -0.2780  1.6478
 1921TIP3    H227255   4.517   4.056  11.122  2.9408 -0.2659 -1.2336
 1922TIP3   OH227256   2.757   3.385   3.747 -0.2597  0.0872 -0.0301
 1922TIP3    H127257   2.736   3.347   3.662  1.5158 -0.0980 -0.4295
 1922TIP3    H227258   2.757   3.479   3.733 -0.9276  0.0950  0.0141
 1923TIP3   OH227259   6.353   3.479  14.248 -0.0798 -0.1811 -0.2783
 1923TIP3    H127260   6.314   3.425  14.179 -1.9465  0.0029  0.5840
 1923TIP3    H227261   6.446   3.455  14.246 -0.2505 -0.9052 -2.1750
 1924TIP3   OH227262   4.947   0.768  12.026 -0.3390 -0.7030 -0.3811
 1924TIP3    H127263   5.024   0.713  12.033  0.4868  0.5403  1.1358
 1924TIP3    H227264   4.874   0.711  12.050  0.5384 -1.0957  1.5743
 1925TIP3   OH227265   6.368   5.374   0.439 -0.4674  0.6014  0.7314
 1925TIP3    H127266   6.339   5.409   0.355  1.3536  2.7569  0.8899
 1925TIP3    H227267   6.312   5.417   0.504  1.1467  2.6657  0.8583
 1926TIP3   OH227268   4.457   3.465  12.705 -0.2420  0.3686  0.2685
 1926TIP3    H127269   4.550   3.478  12.692 -0.0299  1.3201  2.4156
 1926TIP3    H227270   4.446   3.461  12.800 -2.2706 -0.6594  0.0470
 1927TIP3   OH227271   4.037   3.376  13.471 -0.1005  0.0504  0.1048
 1927TIP3    H127272   3.958   3.415  13.433 -0.0874  1.2272  1.2297
 1927TIP3    H227273   4.086   3.343  13.395 -1.1151  0.3451 -0.7017
 1928TIP3   OH227274   0.501   1.069   0.680  0.3589 -0.1813  0.4090
 1928TIP3    H127275   0.564   1.093   0.612  0.6337  0.3025  0.8311
 1928TIP3    H227276   0.546   1.087   0.762 -0.3062  0.1150  0.7164
 1929TIP3   OH227277   3.334   6.010   5.825 -0.9977  0.0977  0.3962
 1929TIP3    H127278   3.309   6.038   5.913 -2.1718 -1.3102  0.5421
 1929TIP3    H227279   3.294   6.075   5.767 -0.1548  1.0755  0.8800
 1930TIP3   OH227280   4.806   1.066   2.421 -0.4021  0.3860  0.0770
 1930TIP3    H127281   4.894   1.031   2.407  0.0971  1.2661  0.9257
 1930TIP3    H227282   4.795   1.066   2.516 -2.1621 -1.6962 -0.0499
 1931TIP3   OH227283   3.962   2.904  11.052 -0.2316  0.7090 -0.5126
 1931TIP3    H127284   3.943   2.994  11.076 -0.1113  0.6495 -0.1948
 1931TIP3    H227285   3.972   2.858  11.135 -3.0268 -0.2031 -0.5596
 1932TIP3   OH227286   5.363   2.403  12.508 -0.5935  0.3421  0.0539
 1932TIP3    H127287   5.338   2.474  12.567  1.6038 -0.3232  1.9136
 1932TIP3    H227288   5.383   2.447  12.425 -0.4418  1.7510  0.8114
 1933TIP3   OH227289   4.025   5.465   5.181 -0.1062  0.1178 -0.5166
 1933TIP3    H127290   4.087   5.411   5.132  1.7433  1.1491  0.5774
 1933TIP3    H227291   3.939   5.434   5.153  0.8731 -0.9591 -2.5668
 1934TIP3   OH227292   2.653   1.805  10.760 -0.1370  0.0456  0.1208
 1934TIP3    H127293   2.621   1.885  10.803 -1.5726 -0.4527 -0.0002
 1934TIP3    H227294   2.664   1.743  10.832  0.9744  0.3280  0.2137
 1935TIP3   OH227295   3.334   1.502  11.840 -0.0381 -0.0448 -0.3387
 1935TIP3    H127296   3.425   1.530  11.831  0.2825 -1.1051 -0.5461
 1935TIP3    H227297   3.337   1.430  11.903 -0.6921 -0.2968 -0.5843
 1936TIP3   OH227298   2.835   6.692  15.576 -0.2709 -0.3488  0.8372
 1936TIP3    H127299   2.865   6.612  15.533  1.0535  0.4352  0.2358
 1936TIP3    H227300   2.808   6.749  15.505  1.2945  0.7015  1.0205
 1937TIP3   OH227301   5.080   1.726   5.064  0.8147 -0.7838  0.3306
 1937TIP3    H127302   5.018   1.737   5.135  0.0597 -2.4964 -0.0088
 1937TIP3    H227303   5.036   1.764   4.988  1.7353  1.3002  0.7686
 1938TIP3   OH227304   6.517   6.179  14.334 -0.2517 -0.1557 -0.2179
 1938TIP3    H127305   6.565   6.154  14.413  0.1112  1.9820  0.2839
 1938TIP3    H227306   6.426   6.189  14.363 -0.6272 -1.8810 -0.6690
 1939TIP3   OH227307   1.749   5.686   3.451  0.0114  0.4736  0.0476
 1939TIP3    H127308   1.713   5.606   3.412 -2.4007  0.7116  1.5939
 1939TIP3    H227309   1.839   5.663   3.474 -0.8169 -2.0622  1.0854
 1940TIP3   OH227310   2.236   1.243  14.672 -0.7573  0.4305 -0.4125
 1940TIP3    H127311   2.216   1.261  14.580 -1.2369  1.2703 -0.1507
 1940TIP3    H227312   2.327   1.215  14.672 -1.3294 -1.6743 -1.4054
 1941TIP3   OH227313   1.026   4.580  16.781 -0.1516  0.3623 -0.5462
 1941TIP3    H127314   0.964   4.645  16.748  0.4597  0.3474 -1.7751
 1941TIP3    H227315   0.987   4.496  16.759 -1.0022  0.2719  1.1544
 1942TIP3   OH227316   0.874   6.207  12.834  0.3305 -0.5579 -0.0354
 1942TIP3    H127317   0.870   6.139  12.767  0.7527  0.3534 -1.0088
 1942TIP3    H227318   0.789   6.250  12.830  0.7523  0.2354 -0.8008
 1943TIP3   OH227319   2.261   0.186  14.820  0.2197 -0.0956 -0.1414
 1943TIP3    H127320   2.173   0.217  14.840  0.5173  2.3994 -2.1267
 1943TIP3    H227321   2.316   0.221  14.890  0.0067  0.8035 -0.4139
 1944TIP3   OH227322   0.629   1.720  15.997  0.1836 -0.0752  0.1016
 1944TIP3    H127323   0.688   1.744  15.925  0.4896 -1.3416 -0.1021
 1944TIP3    H227324   0.578   1.647  15.962  0.1042 -0.4835  1.0522
 1945TIP3   OH227325   0.073   5.464   5.732  0.1394  0.1136  0.3586
 1945TIP3    H127326   0.039   5.390   5.781  0.5467  0.3697  1.0381
 1945TIP3    H227327   0.041   5.451   5.643  1.4338 -1.6755  0.1169
 1946TIP3   OH227328   5.084   1.049   3.733 -0.0565 -0.3276 -0.5836
 1946TIP3    H127329   5.087   1.143   3.716 -0.5392 -0.3581 -0.8822
 1946TIP3    H227330   5.137   1.010   3.664 -1.4738 -0.4032 -1.6910
 1947TIP3   OH227331   0.147   1.243   2.471  0.1518  0.2313  0.0059
 1947TIP3    H127332   0.165   1.314   2.409  2.6616  0.1228  0.4829
 1947TIP3    H227333   0.177   1.164   2.426 -1.1962 -0.3375  0.0714
 1948TIP3   OH227334   2.287   1.026   2.727  0.1048  0.1116  0.1603
 1948TIP3    H127335   2.311   0.941   2.764 -0.9926  0.1191  0.9216
 1948TIP3    H227336   2.260   1.006   2.637  1.4805 -0.0871 -0.2422
 1949TIP3   OH227337   2.994   2.916  11.709 -0.5347  0.0169  0.2482
 1949TIP3    H127338   3.059   2.870  11.762  0.7286  1.0937 -0.3065
 1949TIP3    H227339   2.934   2.847  11.681  0.6582 -1.1186  0.3391
 1950TIP3   OH227340   5.253   1.367   4.627 -0.6125 -0.5016 -0.0111
 1950TIP3    H127341   5.189   1.303   4.657 -1.0326 -0.2602 -0.3824
 1950TIP3    H227342   5.206   1.421   4.564  0.3595 -1.2524 -1.4357
 1951TIP3   OH227343   2.844   5.255   4.651 -0.2408  0.0957 -0.2633
 1951TIP3    H127344   2.892   5.307   4.715 -0.0839  1.0356 -1.1265
 1951TIP3    H227345   2.765   5.306   4.632 -1.1886 -1.0179  0.4810
 1952TIP3   OH227346   5.647   6.585  14.870 -0.5146  0.1802  0.1761
 1952TIP3    H127347   5.740   6.607  14.871 -0.5305  0.3272 -0.5958
 1952TIP3    H227348   5.637   6.516  14.936  0.2800 -0.3664 -0.2544
 1953TIP3   OH227349   3.549   5.918  14.988  0.1862 -0.0957  0.1695
 1953TIP3    H127350   3.473   5.959  15.029 -0.3363 -1.2678  0.4186
 1953TIP3    H227351   3.518   5.832  14.961  1.7369 -1.0736  1.3571
 1954TIP3   OH227352   0.315   3.253   4.188  0.1299  0.1174  0.6123
 1954TIP3    H127353   0.318   3.234   4.282 -0.2344 -1.2149  0.3820
 1954TIP3    H227354   0.290   3.169   4.148 -2.7662  1.3473 -0.4388
 1955TIP3   OH227355   6.769   6.643  17.204  0.1678  0.2395  0.9402
 1955TIP3    H127356   6.710   6.718  17.192  0.5155  0.3468 -0.3053
 1955TIP3    H227357   6.761   6.593  17.122  2.7115  0.9502  0.1547
 1956TIP3   OH227358   0.232   0.737  11.199 -0.1202 -0.1167 -0.4179
 1956TIP3    H127359   0.222   0.790  11.119  1.7029  0.9982  0.0517
 1956TIP3    H227360   0.290   0.666  11.173  1.3048  0.8085  0.1182
 1957TIP3   OH227361   4.045   3.914  12.715 -0.0657 -0.8248  0.2021
 1957TIP3    H127362   4.132   3.876  12.711  0.2593 -0.1257  0.3746
 1957TIP3    H227363   3.987   3.841  12.733  0.6679 -1.0838  1.6867
 1958TIP3   OH227364   6.087   2.484  14.629 -0.1882  0.1529 -0.1283
 1958TIP3    H127365   5.994   2.503  14.636  0.0207  1.7543 -1.0886
 1958TIP3    H227366   6.099   2.453  14.539  0.3700  1.2429 -0.4542
 1959TIP3   OH227367   4.059   3.284  15.377  0.0344 -0.1142 -0.0180
 1959TIP3    H127368   4.137   3.239  15.346  1.8436  1.3311  2.0751
 1959TIP3    H227369   4.070   3.375  15.348 -0.3865  0.2933  1.0244
 1960TIP3   OH227370   4.740   2.193   3.736 -0.0073  0.2420  0.0074
 1960TIP3    H127371   4.685   2.267   3.709  0.2621 -0.0365 -1.4304
 1960TIP3    H227372   4.818   2.234   3.775 -0.2507  0.7006  0.0248
 1961TIP3   OH227373   2.523   0.325  15.665 -0.4511  0.1080 -0.0307
 1961TIP3    H127374   2.568   0.243  15.645 -0.4805  0.0470  0.1512
 1961TIP3    H227375   2.481   0.310  15.750 -0.9170  0.1244 -0.2554
 1962TIP3   OH227376   1.897   2.260  17.042  0.0502 -0.3420 -0.0227
 1962TIP3    H127377   1.868   2.171  17.061 -0.0656 -0.1946  0.5087
 1962TIP3    H227378   1.942   2.253  16.958  0.7121 -1.0518  0.3678
 1963TIP3   OH227379   3.652   3.324   6.071 -0.3545 -0.4457  0.1378
 1963TIP3    H127380   3.598   3.271   6.130  0.9668 -1.6002  0.3745
 1963TIP3    H227381   3.590   3.382   6.027 -2.0362 -2.6982 -0.6863
 1964TIP3   OH227382   4.674   3.908   1.917 -0.1003 -0.0369 -0.6096
 1964TIP3    H127383   4.606   3.923   1.984 -0.6608 -0.0895 -1.1580
 1964TIP3    H227384   4.748   3.960   1.947  0.0646 -0.9638  0.6554
 1965TIP3   OH227385   0.160   2.398   2.211  0.3811  0.1484 -0.3005
 1965TIP3    H127386   0.205   2.477   2.240  1.1913 -0.7367  1.0082
 1965TIP3    H227387   0.079   2.396   2.262 -1.7837  2.2187 -3.3061
 1966TIP3   OH227388   6.042   2.616  10.308  0.1072 -0.3184  0.2263
 1966TIP3    H127389   6.033   2.534  10.357 -0.5506 -1.8205 -2.2223
 1966TIP3    H227390   6.097   2.593  10.233  2.7015  2.3437  1.1165
 1967TIP3   OH227391   2.161   5.668   5.370  0.9005 -0.4371 -0.7142
 1967TIP3    H127392   2.228   5.681   5.437 -0.3907 -0.8462  0.7240
 1967TIP3    H227393   2.167   5.576   5.348  0.8690 -0.4585 -0.6352
 1968TIP3   OH227394   4.430   4.242  13.458 -0.1028  0.0771  0.2068
 1968TIP3    H127395   4.479   4.321  13.434 -0.4177 -0.2372 -1.6023
 1968TIP3    H227396   4.496   4.181  13.490  0.1825  0.9375  1.3327
 1969TIP3   OH227397   4.287   4.282   1.270 -0.2806  0.5667  0.8102
 1969TIP3    H127398   4.338   4.216   1.316 -1.3387  0.6475  2.2011
 1969TIP3    H227399   4.339   4.362   1.278  1.1523 -0.1151 -1.1558
 1970TIP3   OH227400   3.002   5.788  16.711 -0.4852  0.0136 -0.1852
 1970TIP3    H127401   2.970   5.702  16.683  0.2445  0.0379 -1.1508
 1970TIP3    H227402   3.094   5.773  16.732 -0.5424  0.4151  0.3579
 1971TIP3   OH227403   0.226   1.279   1.362 -0.3972  0.0604  0.3338
 1971TIP3    H127404   0.181   1.360   1.339  1.2548  1.3219  1.3476
 1971TIP3    H227405   0.302   1.276   1.304  0.2392 -0.0854  1.1568
 1972TIP3   OH227406   2.408   6.051  11.190 -0.4239 -0.2925  0.2367
 1972TIP3    H127407   2.420   6.123  11.128  1.0462 -0.5124  0.2327
 1972TIP3    H227408   2.372   6.092  11.268 -2.3675 -0.0180 -0.7431
 1973TIP3   OH227409   5.948   4.726  17.004  0.0553  0.1241  0.4193
 1973TIP3    H127410   6.041   4.733  17.022  0.2379 -2.4893  0.9859
 1973TIP3    H227411   5.943   4.673  16.925 -0.9717  3.0154 -1.6189
 1974TIP3   OH227412   2.616   4.982  11.910  0.2449 -0.2787  0.2354
 1974TIP3    H127413   2.599   4.891  11.886 -0.2116 -0.6806  1.9553
 1974TIP3    H227414   2.549   5.003  11.975  1.3547  0.7241  1.1133
 1975TIP3   OH227415   4.995   1.319   3.137  0.3630  0.3506  0.4743
 1975TIP3    H127416   4.907   1.353   3.118  0.4663  2.2407  2.8956
 1975TIP3    H227417   5.053   1.394   3.127  1.8162 -0.9156 -1.2770
 1976TIP3   OH227418   6.018   2.713  14.975 -0.5197 -0.2359 -0.0400
 1976TIP3    H127419   6.054   2.643  15.029  0.4280  1.5725  1.8630
 1976TIP3    H227420   6.094   2.746  14.926 -1.4122 -2.0125 -2.8447
 1977TIP3   OH227421   0.690   6.298  12.367 -0.5367 -0.6061  0.3301
 1977TIP3    H127422   0.661   6.208  12.355 -2.5960 -0.1326  1.2527
 1977TIP3    H227423   0.722   6.324  12.280 -0.0656 -2.1405  0.0114
 1978TIP3   OH227424   0.211   4.435  17.251 -0.1951  0.5247 -0.4504
 1978TIP3    H127425   0.171   4.513  17.288 -3.3381 -1.5833  1.0212
 1978TIP3    H227426   0.200   4.445  17.156 -1.0917  1.5864 -0.2566
 1979TIP3   OH227427   4.471   6.469  14.078  0.0603 -0.4244 -0.2068
 1979TIP3    H127428   4.561   6.447  14.055  0.0272 -1.8176  0.9111
 1979TIP3    H227429   4.479   6.521  14.158 -0.1024  0.0516 -0.4953
 1980TIP3   OH227430   2.330   0.833  16.536 -0.3055  0.2262 -0.0424
 1980TIP3    H127431   2.242   0.819  16.572 -0.5194  2.3615  0.3770
 1980TIP3    H227432   2.334   0.774  16.461 -2.9724  1.6326 -1.4488
 1981TIP3   OH227433   0.772   1.398  16.287 -0.1011 -0.2199  0.3204
 1981TIP3    H127434   0.797   1.489  16.301  0.4159 -0.2057 -0.6703
 1981TIP3    H227435   0.711   1.379  16.359  0.2913  0.7005  0.9111
 1982TIP3   OH227436   2.013   5.273  14.763 -0.2799  0.3844 -0.0582
 1982TIP3    H127437   1.931   5.312  14.733 -1.9712 -0.4053  3.1489
 1982TIP3    H227438   2.042   5.331  14.834  0.1023 -1.1756  1.0953
 1983TIP3   OH227439   5.899   5.549  12.955 -0.1307 -0.2464  0.1637
 1983TIP3    H127440   5.931   5.460  12.940  1.2442  0.2341  0.1485
 1983TIP3    H227441   5.917   5.595  12.873 -0.0720  0.2638  0.4616
 1984TIP3   OH227442   4.933   3.014   3.352 -0.1341 -0.1194 -0.0081
 1984TIP3    H127443   4.984   3.088   3.384  0.1854  0.3472 -1.5187
 1984TIP3    H227444   4.843   3.034   3.379 -0.2854  1.5616 -1.6102
 1985TIP3   OH227445   1.616   0.116   2.192 -0.0778 -0.0649  0.5381
 1985TIP3    H127446   1.572   0.036   2.223 -0.2222 -0.0616  0.3377
 1985TIP3    H227447   1.579   0.132   2.106  1.2295 -0.7763 -0.1887
 1986TIP3   OH227448   0.990   3.311   2.057 -0.5534  0.7746  0.1724
 1986TIP3    H127449   0.972   3.291   1.965  1.1390  1.7221 -0.3994
 1986TIP3    H227450   0.917   3.271   2.104 -0.8263 -0.8146 -1.4623
 1987TIP3   OH227451   4.957   0.306   1.583 -0.2238 -0.5564 -0.3726
 1987TIP3    H127452   4.962   0.400   1.601 -1.2122 -0.5650  0.0236
 1987TIP3    H227453   4.951   0.265   1.669  0.4663 -1.0115 -0.5314
 1988TIP3   OH227454   1.813   0.228   5.606  0.3545 -0.4705  0.0841
 1988TIP3    H127455   1.729   0.271   5.622  0.4016 -0.1925 -0.4110
 1988TIP3    H227456   1.840   0.260   5.520  0.8868 -0.6928  0.1704
 1989TIP3   OH227457   3.561   6.550  12.424 -0.2141 -0.1611  0.1761
 1989TIP3    H127458   3.637   6.544  12.482 -0.5545 -0.3258  0.6121
 1989TIP3    H227459   3.504   6.478  12.451 -0.5420 -0.0186 -0.1226
 1990TIP3   OH227460   1.323   1.597   0.589 -0.2060  0.1508 -0.2049
 1990TIP3    H127461   1.257   1.557   0.646 -1.4419  1.5851 -0.5629
 1990TIP3    H227462   1.308   1.557   0.504 -0.8870  0.7516 -0.3731
 1991TIP3   OH227463   1.181   0.604  16.644 -0.3144 -0.0534  0.3886
 1991TIP3    H127464   1.215   0.562  16.565 -0.3056 -0.1202  0.4277
 1991TIP3    H227465   1.115   0.543  16.677  1.2763 -1.2013  1.7167
 1992TIP3   OH227466   2.924   5.641  14.952  0.4854  0.3699 -0.0240
 1992TIP3    H127467   2.916   5.723  15.001 -0.3005 -0.0018  0.4772
 1992TIP3    H227468   2.925   5.573  15.019 -1.5421 -0.2138 -0.5361
 1993TIP3   OH227469   3.306   4.824   1.923 -0.0927 -0.8091  0.1855
 1993TIP3    H127470   3.389   4.779   1.938  0.3744 -0.4800 -1.2331
 1993TIP3    H227471   3.318   4.871   1.840 -1.0976  0.6587  0.8066
 1994TIP3   OH227472   4.847   0.581  16.216  0.3736  0.2950 -0.0172
 1994TIP3    H127473   4.847   0.609  16.124  1.5794 -0.1662 -0.1871
 1994TIP3    H227474   4.940   0.577  16.239  0.2143 -2.2105  0.4003
 1995TIP3   OH227475   4.645   1.268   6.027  0.0928 -0.8324 -0.1383
 1995TIP3    H127476   4.654   1.193   6.085  0.4410 -0.1615  0.7092
 1995TIP3    H227477   4.681   1.239   5.943  2.1093 -0.9985  0.7241
 1996TIP3   OH227478   5.845   1.221   2.647  0.4242  0.3889 -0.1719
 1996TIP3    H127479   5.787   1.220   2.723 -0.2192 -1.0250 -0.6571
 1996TIP3    H227480   5.914   1.283   2.671 -1.1550  1.9826  0.4934
 1997TIP3   OH227481   5.069   4.508   5.852  0.1875  0.0874 -1.0321
 1997TIP3    H127482   5.059   4.451   5.928  0.1802  1.4196 -0.0005
 1997TIP3    H227483   5.022   4.588   5.875  2.1156  1.4212 -1.4580
 1998TIP3   OH227484   0.665   5.142   3.579  0.1555 -0.2321 -0.1621
 1998TIP3    H127485   0.625   5.209   3.636 -0.5944 -0.7169 -0.1088
 1998TIP3    H227486   0.668   5.182   3.493  2.1321  0.8629  0.3496
 1999TIP3   OH227487   3.796   2.722  15.183 -0.2368 -0.1921 -0.2474
 1999TIP3    H127488   3.850   2.800  15.198  0.0941  0.0967 -2.5140
 1999TIP3    H227489   3.816   2.664  15.256  1.1295  1.0036  0.3695
 2000TIP3   OH227490   6.088   1.380  13.968 -0.5026  0.2432  0.4481
 2000TIP3    H127491   6.175   1.343  13.953 -1.4617 -2.0855  0.1936
 2000TIP3    H227492   6.083   1.391  14.063  0.1592  0.6733  0.4412
 2001TIP3   OH227493   6.027   3.416  13.844 -0.3519  0.2932  0.5082
 2001TIP3    H127494   5.958   3.473  13.811 -2.1581 -1.6865  0.6359
 2001TIP3    H227495   5.986   3.329  13.848  1.9047 -0.8020  1.4118
 2002TIP3   OH227496   6.101   3.784   4.968 -0.5967  0.6312 -0.6492
 2002TIP3    H127497   6.049   3.851   4.922 -0.6619  0.6894 -0.4910
 2002TIP3    H227498   6.087   3.802   5.061 -0.4458  0.5271 -0.6058
 2003TIP3   OH227499   1.634   2.855  15.696  0.0250  0.5074 -0.5724
 2003TIP3    H127500   1.638   2.936  15.645 -0.1829  0.2720 -0.9745
 2003TIP3    H227501   1.640   2.883  15.787  1.4543  0.8742 -0.7474
 2004TIP3   OH227502   2.233   0.817   0.612 -0.6878  0.1253 -0.2253
 2004TIP3    H127503   2.286   0.751   0.658 -0.5144  1.1082  1.0322
 2004TIP3    H227504   2.153   0.770   0.588 -0.2361 -0.7595 -0.0529
 2005TIP3   OH227505   5.758   1.215   1.205  0.9160  0.3338  0.0692
 2005TIP3    H127506   5.698   1.272   1.157  0.1971  0.6810  1.3283
 2005TIP3    H227507   5.712   1.194   1.287  2.3298  0.2728  0.8951
 2006TIP3   OH227508   2.868   4.378   0.572 -0.4803 -0.1705 -0.0938
 2006TIP3    H127509   2.792   4.380   0.515  0.0886  0.3143 -0.8496
 2006TIP3    H227510   2.852   4.303   0.630 -0.6004 -1.3203 -1.5508
 2007TIP3   OH227511   5.058   2.085   4.623 -0.0012  0.3111 -0.2909
 2007TIP3    H127512   5.029   2.000   4.590 -1.6751  0.9764 -0.6543
 2007TIP3    H227513   4.998   2.148   4.583  1.0675  1.6458  0.1385
 2008TIP3   OH227514   5.520   6.590   0.734  0.7787 -0.4240 -0.0002
 2008TIP3    H127515   5.565   6.673   0.746  1.4149 -0.7261 -0.2816
 2008TIP3    H227516   5.428   6.610   0.754  0.7393  0.5896 -1.0727
 2009TIP3   OH227517   5.004   5.736   2.447 -0.0864  0.2944 -0.3292
 2009TIP3    H127518   4.937   5.697   2.390 -3.0634  1.5728  1.9875
 2009TIP3    H227519   4.970   5.824   2.467  1.0357  0.1321  2.8438
 2010TIP3   OH227520   1.372   5.931  14.802 -0.0632  0.1621  0.2491
 2010TIP3    H127521   1.415   5.890  14.877 -0.0678 -0.1237  0.0961
 2010TIP3    H227522   1.438   5.930  14.733  0.5212  1.9550  0.7388
 2011TIP3   OH227523   1.465   2.494   0.791  0.7211  0.4739  0.0655
 2011TIP3    H127524   1.388   2.550   0.796  2.5094  3.1427 -0.5358
 2011TIP3    H227525   1.434   2.415   0.746 -1.2774  2.1568 -1.6967
 2012TIP3   OH227526   2.180   5.136  15.384 -0.9007 -0.3951 -0.2215
 2012TIP3    H127527   2.202   5.090  15.465 -1.7228 -1.4326 -0.5613
 2012TIP3    H227528   2.087   5.119  15.372 -0.9364  0.3194 -1.0326
 2013TIP3   OH227529   1.037   1.367  15.042 -0.5172  0.2238 -0.0001
 2013TIP3    H127530   1.066   1.385  14.952  1.8414 -1.2474  0.3836
 2013TIP3    H227531   1.084   1.287  15.066  0.3439  1.5676  3.1882
 2014TIP3   OH227532   6.545   4.965  12.240 -0.4013  0.5069  0.2231
 2014TIP3    H127533   6.638   4.986  12.252  0.0272 -1.3909  0.5350
 2014TIP3    H227534   6.515   4.938  12.326 -1.2039  0.8721  0.0691
 2015TIP3   OH227535   3.394   4.072  12.845 -0.8156 -0.3603 -0.0839
 2015TIP3    H127536   3.341   3.999  12.876 -1.0057 -0.7662 -1.2883
 2015TIP3    H227537   3.472   4.031  12.807 -1.0541  0.0258 -1.0202
 2016TIP3   OH227538   1.382   4.966   1.092  0.2609  0.5114 -0.5749
 2016TIP3    H127539   1.400   4.873   1.078  0.6111  0.5098 -0.1373
 2016TIP3    H227540   1.442   4.992   1.163 -2.4835  0.1569  2.0675
 2017TIP3   OH227541   3.537   5.324  14.253  0.1730  0.0148  0.0522
 2017TIP3    H127542   3.469   5.389  14.237 -1.3123 -1.4649  0.1905
 2017TIP3    H227543   3.576   5.309  14.167 -1.4321 -1.0118 -0.5249
 2018TIP3   OH227544   0.071   5.554  15.081 -0.4109 -0.5965 -0.2206
 2018TIP3    H127545   0.041   5.471  15.119  0.4003 -1.1876 -0.8289
 2018TIP3    H227546   0.114   5.599  15.153 -0.7606 -0.7433  0.0884
 2019TIP3   OH227547   4.525   0.056  16.566  0.3096  0.0023 -0.0606
 2019TIP3    H127548   4.480   0.009  16.637  0.1709  1.4411  0.8586
 2019TIP3    H227549   4.466   0.048  16.491  0.2839 -1.2429  0.0794
 2020TIP3   OH227550   1.085   6.123  13.270  0.1262  0.5324  0.1540
 2020TIP3    H127551   1.129   6.057  13.217  0.2182 -0.9473  1.9556
 2020TIP3    H227552   1.028   6.073  13.329 -0.7071  2.1414  0.7901
 2021TIP3   OH227553   6.116   5.868   2.643 -0.3983 -0.0951  0.1941
 2021TIP3    H127554   6.057   5.925   2.594 -0.8082  0.3751  1.2064
 2021TIP3    H227555   6.099   5.781   2.608  2.2939  0.6072 -3.4603
 2022TIP3   OH227556   4.820   3.047  14.780 -0.1439  0.1960  0.4959
 2022TIP3    H127557   4.764   3.116  14.815 -1.2574  0.1245 -1.0439
 2022TIP3    H227558   4.875   3.091  14.715 -0.4560 -0.2501 -0.0821
 2023TIP3   OH227559   1.134   5.811  13.607  0.5261 -0.5426 -0.2997
 2023TIP3    H127560   1.179   5.888  13.642 -1.2492 -0.0502  1.0886
 2023TIP3    H227561   1.203   5.747  13.591  1.7864  0.4149  1.0753
 2024TIP3   OH227562   6.383   1.871  14.805  0.2850 -0.0189 -0.1164
 2024TIP3    H127563   6.468   1.881  14.849  0.9551 -0.6619 -1.2283
 2024TIP3    H227564   6.356   1.961  14.786  1.0332  0.1682 -0.3292
 2025TIP3   OH227565   4.250   0.714  11.246  0.1558 -0.2658 -0.0444
 2025TIP3    H127566   4.184   0.783  11.235  1.0092  0.5633 -0.1503
 2025TIP3    H227567   4.258   0.675  11.159 -0.1186 -0.2996 -0.0551
 2026TIP3   OH227568   3.526   6.616   1.672 -0.0667 -0.4636  0.2744
 2026TIP3    H127569   3.488   6.597   1.586 -1.6765 -0.9880  1.0529
 2026TIP3    H227570   3.501   6.541   1.726 -0.2522  0.4859  1.5432
 2027TIP3   OH227571   4.880   6.709   4.217  0.4698  0.2337  0.7196
 2027TIP3    H127572   4.888   6.667   4.302 -3.5531  0.8919  1.6514
 2027TIP3    H227573   4.850   6.798   4.237  0.6464  0.8175 -1.3660
 2028TIP3   OH227574   2.585   5.830   2.979 -0.3550 -0.4265 -0.6175
 2028TIP3    H127575   2.527   5.851   2.906 -0.6142  0.6436 -0.1178
 2028TIP3    H227576   2.547   5.751   3.017 -0.3415 -0.8720 -1.4933
 2029TIP3   OH227577   2.102   3.619  14.960  0.4887 -0.2407 -0.0394
 2029TIP3    H127578   2.022   3.599  15.008  0.8356 -0.0491  0.6262
 2029TIP3    H227579   2.134   3.534  14.930  1.4069 -0.6201  1.8953
 2030TIP3   OH227580   2.939   1.029  13.573 -0.0963 -0.5256 -0.1213
 2030TIP3    H127581   2.935   1.115  13.530  1.6197 -1.0132 -1.3736
 2030TIP3    H227582   2.852   0.992  13.560 -0.5460  0.6005 -0.5007
 2031TIP3   OH227583   0.191   1.647   1.508  0.3111 -0.0639  0.4177
 2031TIP3    H127584   0.135   1.725   1.504  1.0943  0.4847 -0.0036
 2031TIP3    H227585   0.256   1.660   1.440  1.2211 -0.4907  1.1835
 2032TIP3   OH227586   6.708   5.854  15.476 -0.0336  0.1016  0.0562
 2032TIP3    H127587   6.717   5.949  15.476 -0.8099  0.2054 -1.4783
 2032TIP3    H227588   6.636   5.837  15.536  0.0033  0.4956  0.2151
 2033TIP3   OH227589   6.438   1.839   0.275 -0.8557  0.3180  0.2969
 2033TIP3    H127590   6.359   1.785   0.283 -0.3393 -1.0229 -2.4334
 2033TIP3    H227591   6.507   1.787   0.316 -1.0442  0.7139  1.1410
 2034TIP3   OH227592   2.848   1.605   3.520 -0.0873 -0.5662  0.5212
 2034TIP3    H127593   2.770   1.584   3.469  0.3431 -0.1960 -0.3129
 2034TIP3    H227594   2.919   1.559   3.476  0.4650  0.6309  0.1198
 2035TIP3   OH227595   4.588   5.288   5.619 -0.4360  0.3138 -0.0311
 2035TIP3    H127596   4.676   5.257   5.599 -0.6186 -1.0254  1.0558
 2035TIP3    H227597   4.533   5.249   5.551 -0.4199 -0.3579  0.3290
 2036TIP3   OH227598   2.680   1.406   3.740 -0.2126  0.0037  0.7391
 2036TIP3    H127599   2.692   1.482   3.797 -1.5690  0.4192  0.4991
 2036TIP3    H227600   2.760   1.354   3.753  0.9744  1.6994  0.5064
 2037TIP3   OH227601   3.209   0.226   0.438 -0.1650 -0.3727 -0.3049
 2037TIP3    H127602   3.174   0.311   0.467 -1.5509 -0.5729 -1.3355
 2037TIP3    H227603   3.253   0.191   0.516  0.5875  1.3527  0.0994
 2038TIP3   OH227604   0.312   6.581  16.455  0.1204  0.1755  0.2742
 2038TIP3    H127605   0.220   6.602  16.473  0.2718  2.8100 -1.4120
 2038TIP3    H227606   0.320   6.592  16.360  2.0843 -0.4509  0.3370
 2039TIP3   OH227607   4.097   3.413  17.090 -0.0520  0.5340 -0.5670
 2039TIP3    H127608   4.051   3.481  17.137 -0.2583  1.4826 -2.0801
 2039TIP3    H227609   4.190   3.433  17.104 -0.0738  2.2430 -2.4422
 2040TIP3   OH227610   5.427   1.659  12.312 -0.0842 -0.1945  0.1865
 2040TIP3    H127611   5.420   1.696  12.399 -0.5591  0.3845 -0.0907
 2040TIP3    H227612   5.512   1.688  12.279  1.2269 -2.4125  1.3484
 2041TIP3   OH227613   4.674   1.000  15.701  0.0512  1.2027 -0.2258
 2041TIP3    H127614   4.734   0.940  15.658 -2.0716 -1.0918 -0.2256
 2041TIP3    H227615   4.659   0.961  15.787 -1.9398  1.3012 -0.4815
 2042TIP3   OH227616   6.395   6.004   3.369  0.6174 -0.6062  0.6404
 2042TIP3    H127617   6.331   6.003   3.441  1.1673 -0.0221  1.1582
 2042TIP3    H227618   6.478   6.024   3.413  0.8168  0.6559 -0.2715
 2043TIP3   OH227619   3.731   1.060  15.428 -0.1555  0.2492 -0.2835
 2043TIP3    H127620   3.725   1.118  15.504  0.6946 -1.3530  1.0748
 2043TIP3    H227621   3.822   1.030  15.429 -0.2703 -0.1986 -1.6523
 2044TIP3   OH227622   0.463   0.861   1.034  0.9239 -0.5265 -0.1702
 2044TIP3    H127623   0.530   0.890   1.096  0.1661  0.8805  0.0308
 2044TIP3    H227624   0.475   0.918   0.957 -0.9533  0.8036  0.4516
 2045TIP3   OH227625   1.887   5.319   2.494 -0.2302  0.1044 -0.1126
 2045TIP3    H127626   1.848   5.376   2.560 -2.5010  0.5956 -1.7304
 2045TIP3    H227627   1.858   5.357   2.410  2.1270 -0.7380 -1.4215
 2046TIP3   OH227628   1.012   3.159  12.157  0.0096 -0.1646 -0.7113
 2046TIP3    H127629   0.936   3.155  12.215 -0.0878  0.2941 -0.7982
 2046TIP3    H227630   0.976   3.137  12.070  0.1856 -1.0100 -0.5796
 2047TIP3   OH227631   6.395   3.943  17.087 -0.0716 -0.3571 -0.3914
 2047TIP3    H127632   6.313   3.971  17.127 -0.3561  0.6066 -1.5897
 2047TIP3    H227633   6.369   3.874  17.025 -0.1987  0.8560 -1.7410
 2048TIP3   OH227634   0.278   2.524   1.398  0.2986 -0.2386  0.1050
 2048TIP3    H127635   0.212   2.521   1.467  1.0487 -3.5642  0.8752
 2048TIP3    H227636   0.340   2.592   1.427 -0.5940  0.0018  1.5304
 2049TIP3   OH227637   5.382   1.932   1.156  0.5339  0.7585  0.1566
 2049TIP3    H127638   5.348   1.892   1.236  2.8462  1.5142  1.6236
 2049TIP3    H227639   5.374   1.864   1.090  0.2014 -0.5414  1.4744
 2050TIP3   OH227640   0.142   3.312   3.517 -0.3967  0.3684  0.0954
 2050TIP3    H127641   0.109   3.401   3.505 -0.2694  0.7091  1.9555
 2050TIP3    H227642   0.233   3.316   3.486 -0.0062  1.2234  1.3143
 2051TIP3   OH227643   1.683   6.666  13.482 -0.2123 -0.4641  0.5457
 2051TIP3    H127644   1.609   6.696  13.430  0.7136 -0.7651 -0.9912
 2051TIP3    H227645   1.710   6.743  13.532 -1.5894 -0.3730  1.2039
 2052TIP3   OH227646   2.735   0.640   3.211 -0.2480 -0.0264 -0.2432
 2052TIP3    H127647   2.728   0.674   3.300 -1.3093 -1.8070  0.4274
 2052TIP3    H227648   2.745   0.545   3.222 -0.3970 -0.2958 -2.0195
 2053TIP3   OH227649   0.024   4.343  14.063 -0.3544 -0.8657 -0.5519
 2053TIP3    H127650   0.023   4.253  14.031  0.5055 -0.6528 -1.2308
 2053TIP3    H227651  -0.068   4.367  14.069 -0.5805 -1.4201 -1.4646
 2054TIP3   OH227652   1.450   3.391  14.564 -0.9116 -0.0126 -0.1582
 2054TIP3    H127653   1.477   3.303  14.537 -0.6468  0.1273 -0.3475
 2054TIP3    H227654   1.516   3.418  14.627 -1.6483 -0.4269  0.8199
 2055TIP3   OH227655   6.073   3.299   6.550 -0.7168  0.2281 -0.4049
 2055TIP3    H127656   6.132   3.297   6.625  1.0815 -0.5261 -1.7646
 2055TIP3    H227657   6.056   3.392   6.536  0.0148  0.4528  0.1269
 2056TIP3   OH227658   2.289   5.398  12.055  0.5960 -0.0656 -0.0823
 2056TIP3    H127659   2.239   5.346  11.991  0.7081 -0.4484  0.1398
 2056TIP3    H227660   2.232   5.473  12.074 -0.9782 -1.6623  1.9335
 2057TIP3   OH227661   2.323   3.100  11.087 -0.1902 -0.2711  0.1237
 2057TIP3    H127662   2.416   3.109  11.069  0.0846 -0.6080  1.3225
 2057TIP3    H227663   2.308   3.006  11.096 -0.3636 -0.1432  1.3177
 2058TIP3   OH227664   5.794   4.470  11.871  1.0638  0.0484  0.6279
 2058TIP3    H127665   5.783   4.387  11.825  0.8690  0.3509  0.1119
 2058TIP3    H227666   5.793   4.536  11.801 -0.1217  0.5946  1.1230
 2059TIP3   OH227667   0.055   4.617   3.307 -0.2754 -0.5569  0.7130
 2059TIP3    H127668   0.138   4.569   3.303  0.4240  0.6427  0.2441
 2059TIP3    H227669   0.025   4.607   3.397  0.3997 -0.9867  0.8962
 2060TIP3   OH227670   5.774   2.930   0.350 -0.1556 -0.2248  0.7188
 2060TIP3    H127671   5.758   2.917   0.444 -0.8728 -2.2917  0.3594
 2060TIP3    H227672   5.762   3.024   0.336  0.3544  0.1937  2.7550
 2061TIP3   OH227673   2.999   2.767  15.247  0.1184  0.2519  0.5100
 2061TIP3    H127674   3.017   2.860  15.263 -0.8850  0.5402  0.0698
 2061TIP3    H227675   2.905   2.764  15.229  0.1899 -0.8177  0.2666
 2062TIP3   OH227676   6.457   2.961  13.516 -0.4485 -0.8078 -0.0617
 2062TIP3    H127677   6.387   2.992  13.459  0.1179 -0.8982 -0.8078
 2062TIP3    H227678   6.534   3.012  13.491 -0.7462  0.9957  2.3457
 2063TIP3   OH227679   5.013   2.951   1.705 -0.7302  0.4726  0.1294
 2063TIP3    H127680   5.046   2.900   1.779 -1.5665  0.7696  0.7169
 2063TIP3    H227681   4.990   2.886   1.639  2.2634  0.2683 -0.8820
 2064TIP3   OH227682   6.089   4.870  14.405  0.1190 -0.6946 -0.8587
 2064TIP3    H127683   6.071   4.923  14.483 -0.3440 -1.2581 -0.5716
 2064TIP3    H227684   6.163   4.914  14.362  0.3006 -0.3077 -0.1649
 2065TIP3   OH227685   4.806   2.480  15.814  0.3281  0.6833 -0.3171
 2065TIP3    H127686   4.840   2.520  15.734  0.5970 -0.1228 -0.6140
 2065TIP3    H227687   4.826   2.543  15.882  2.7646  0.1167 -0.4242
 2066TIP3   OH227688   5.388   4.770   2.102 -0.0878  0.4508 -0.2077
 2066TIP3    H127689   5.371   4.685   2.062 -0.3348  0.7721 -0.8117
 2066TIP3    H227690   5.305   4.797   2.139  0.2026  0.0431  0.7567
 2067TIP3   OH227691   2.873   4.175  15.414  0.3629  0.7996 -0.0373
 2067TIP3    H127692   2.807   4.146  15.351  1.2799 -1.0303 -0.2252
 2067TIP3    H227693   2.956   4.166  15.367  1.0576 -0.5312  1.3578
 2068TIP3   OH227694   2.743   5.331   0.838  0.9889  0.0944 -0.3604
 2068TIP3    H127695   2.713   5.301   0.924 -0.2472  1.1733 -0.3851
 2068TIP3    H227696   2.752   5.251   0.787  0.8465 -0.4911  0.5041
 2069TIP3   OH227697   0.414   3.152  16.231  0.1659  0.1566 -0.1607
 2069TIP3    H127698   0.434   3.245  16.220 -1.8640  0.5999 -0.5136
 2069TIP3    H227699   0.408   3.139  16.325  0.7708  0.2972 -0.0989
 2070TIP3   OH227700   1.156   0.242  16.298  0.1074  0.0868  0.0238
 2070TIP3    H127701   1.093   0.191  16.348  0.0164  0.8371  0.7035
 2070TIP3    H227702   1.101   0.300  16.244  0.1857 -1.1994 -1.5171
 2071TIP3   OH227703   0.876   5.747  16.663 -0.2072  0.0917  0.1294
 2071TIP3    H127704   0.831   5.828  16.689 -0.8283 -0.8487  2.1296
 2071TIP3    H227705   0.837   5.725  16.578  0.5694  2.2876 -0.8966
 2072TIP3   OH227706   1.933   0.663   5.385  0.3246  0.1182  0.4355
 2072TIP3    H127707   1.943   0.758   5.382  1.4781 -0.0013 -2.2027
 2072TIP3    H227708   1.862   0.649   5.448 -0.3149  2.7450  0.4334
 2073TIP3   OH227709   1.224   5.208   1.533  0.1968 -0.1645 -0.1584
 2073TIP3    H127710   1.130   5.192   1.533 -0.2648  1.8248  2.5845
 2073TIP3    H227711   1.261   5.139   1.588  0.0415  0.1911  0.4031
 2074TIP3   OH227712   1.407   0.463  11.884  0.2609  0.4085 -0.0994
 2074TIP3    H127713   1.350   0.389  11.901  0.6753  0.0879 -0.0916
 2074TIP3    H227714   1.385   0.491  11.795  0.7982 -0.3514 -0.4758
 2075TIP3   OH227715   4.094   3.277   0.282 -0.1633 -0.5852 -0.1152
 2075TIP3    H127716   4.188   3.290   0.267 -0.1185  0.2028  0.7791
 2075TIP3    H227717   4.087   3.254   0.374 -0.8103 -1.2170 -0.3101
 2076TIP3   OH227718   2.286   4.906  15.527 -0.2549 -0.4375  0.1461
 2076TIP3    H127719   2.280   4.842  15.599 -0.2949  0.6372  1.1301
 2076TIP3    H227720   2.223   4.875  15.462  1.0565 -2.4229 -0.2433
 2077TIP3   OH227721   2.377   4.528  17.080 -0.0240 -0.0377  0.2224
 2077TIP3    H127722   2.298   4.577  17.056  1.1213  1.4402 -0.6351
 2077TIP3    H227723   2.388   4.546  17.173 -0.1343  0.5675  0.1228
 2078TIP3   OH227724   4.447   4.893  11.528 -0.3319 -0.3289 -0.3003
 2078TIP3    H127725   4.502   4.946  11.586 -2.4177  0.5464  0.9758
 2078TIP3    H227726   4.364   4.885  11.575 -2.0119  0.1051 -3.0328
 2079TIP3   OH227727   0.736   6.036  13.719  0.5863  0.1758 -0.0128
 2079TIP3    H127728   0.729   6.129  13.695  0.9504  0.3518  0.5338
 2079TIP3    H227729   0.670   6.024  13.787  1.8512  0.5263  1.3180
 2080TIP3   OH227730   3.669   1.474   5.814  0.1972 -0.0849 -0.2558
 2080TIP3    H127731   3.693   1.438   5.899 -0.1954 -0.7349 -0.4106
 2080TIP3    H227732   3.587   1.429   5.791 -0.5237  1.2118 -0.2815
 2081TIP3   OH227733   1.640   4.310  16.937 -0.6235 -0.2694 -0.3173
 2081TIP3    H127734   1.625   4.266  17.021  0.2217 -0.9739 -0.5227
 2081TIP3    H227735   1.552   4.332  16.905 -0.9736 -0.4307  0.5179
 2082TIP3   OH227736   2.143   1.246  16.561 -0.3645  0.4756 -0.3148
 2082TIP3    H127737   2.058   1.207  16.547 -0.9129  1.7992 -0.8563
 2082TIP3    H227738   2.189   1.237  16.477  0.2850 -0.7600  0.1414
 2083TIP3   OH227739   3.600   4.789   5.571 -0.3749 -0.3317  0.0658
 2083TIP3    H127740   3.657   4.739   5.512  1.4657  1.6618  0.0162
 2083TIP3    H227741   3.639   4.777   5.658  0.2773  1.1672  0.0137
 2084TIP3   OH227742   6.576   4.061  10.194 -0.3125 -0.4752  0.2365
 2084TIP3    H127743   6.612   4.046  10.106 -0.0729 -1.0108  0.4177
 2084TIP3    H227744   6.635   4.124  10.234  0.2479 -1.0923  0.4109
 2085TIP3   OH227745   5.780   6.693  12.320 -0.4614 -0.2577 -0.1562
 2085TIP3    H127746   5.838   6.683  12.245 -2.7846  0.5617 -2.1869
 2085TIP3    H227747   5.723   6.616  12.317 -1.3940  0.4035 -0.0420
 2086TIP3   OH227748   5.266   5.338  12.013 -0.6556  0.6793  0.5416
 2086TIP3    H127749   5.175   5.333  11.983 -0.4167 -2.2972  0.0443
 2086TIP3    H227750   5.309   5.396  11.950 -0.9971 -2.4468 -2.9452
 2087TIP3   OH227751   4.192   0.033   1.849 -0.1433  0.4843  0.1197
 2087TIP3    H127752   4.109   0.055   1.807  1.0910  1.2078 -2.1130
 2087TIP3    H227753   4.235   0.117   1.861  0.8008  0.0146  0.0782
 2088TIP3   OH227754   2.701   3.070   5.001 -0.2857  0.4338  0.6615
 2088TIP3    H127755   2.656   3.154   5.002  0.9875  1.2063 -1.1045
 2088TIP3    H227756   2.794   3.092   4.990  0.0889 -1.1894  0.2114
 2089TIP3   OH227757   3.498   0.085  12.249 -0.2472 -0.4835  0.5744
 2089TIP3    H127758   3.512   0.081  12.344  1.3405 -1.5475  0.3206
 2089TIP3    H227759   3.584   0.067  12.211 -0.6383  0.8953 -1.0839
 2090TIP3   OH227760   0.784   2.145  13.412 -0.0792 -0.1101 -0.1573
 2090TIP3    H127761   0.689   2.153  13.421 -0.1164 -0.5493 -0.0985
 2090TIP3    H227762   0.807   2.200  13.338 -0.2026  1.0591  0.6421
 2091TIP3   OH227763   6.033   1.381  15.557 -0.7283 -0.1462 -0.5900
 2091TIP3    H127764   6.008   1.455  15.502 -0.1736  0.6488  0.1991
 2091TIP3    H227765   5.975   1.387  15.633 -1.2854 -1.0580 -0.9260
 2092TIP3   OH227766   0.084   4.613   2.979  0.0537  0.0349 -0.4757
 2092TIP3    H127767   0.087   4.517   2.982  0.0390  0.0108 -1.1945
 2092TIP3    H227768   0.106   4.640   3.068 -0.0806 -0.6391 -0.2311
 2093TIP3   OH227769   0.050   0.708   0.459  0.4435  0.7391  0.4637
 2093TIP3    H127770  -0.016   0.712   0.528 -0.2292  2.2497 -0.2308
 2093TIP3    H227771   0.130   0.681   0.504 -0.7620 -1.9700  1.2011
 2094TIP3   OH227772   2.561   6.243  14.630  0.0675 -0.1894 -0.1277
 2094TIP3    H127773   2.551   6.156  14.667 -0.3435  0.3177  1.0108
 2094TIP3    H227774   2.580   6.228  14.538 -0.8050 -1.4625 -0.1322
 2095TIP3   OH227775   3.649   3.870   3.329 -0.3533  0.0188 -0.4290
 2095TIP3    H127776   3.574   3.827   3.287 -0.6156 -1.0636  1.0544
 2095TIP3    H227777   3.682   3.804   3.391  0.3443  1.3465  0.6561
 2096TIP3   OH227778   2.496   5.626   5.976  0.0452  0.0729 -0.4366
 2096TIP3    H127779   2.480   5.541   6.017  1.2214 -0.0283 -0.1352
 2096TIP3    H227780   2.412   5.672   5.982 -0.3822 -0.7520  0.1443
 2097TIP3   OH227781   2.122   6.774  16.290  0.4131 -0.3952  0.3718
 2097TIP3    H127782   2.166   6.706  16.239 -0.6134  0.1119 -1.2815
 2097TIP3    H227783   2.068   6.820  16.226  0.0162  1.0909  1.7170
 2098TIP3   OH227784   5.974   2.353  15.760 -0.0803 -0.3490  0.0589
 2098TIP3    H127785   5.963   2.430  15.703 -1.0767  0.1005  0.8195
 2098TIP3    H227786   6.066   2.357  15.787 -0.2656  0.9493  0.5818
 2099TIP3   OH227787   1.119   0.521  12.401  0.3671 -0.6923  0.5786
 2099TIP3    H127788   1.024   0.512  12.407  0.2027 -0.3207 -1.0414
 2099TIP3    H227789   1.135   0.543  12.309  1.7286  2.8426  1.4991
 2100TIP3   OH227790   1.630   3.675  12.622 -0.0329 -0.0323  0.1841
 2100TIP3    H127791   1.538   3.685  12.597 -0.0068  0.3004  0.2180
 2100TIP3    H227792   1.627   3.654  12.715 -0.0256  1.2419  0.4855
 2101TIP3   OH227793   4.202   5.052  12.658 -0.0342  0.2228  0.2661
 2101TIP3    H127794   4.134   5.070  12.593 -0.2424  0.2322  0.4797
 2101TIP3    H227795   4.272   5.009  12.610 -0.4247 -0.2813  0.1387
 2102TIP3   OH227796   0.176   1.411   0.588  0.7702  0.3827  0.1411
 2102TIP3    H127797   0.089   1.429   0.554  0.3037  0.8358  1.5078
 2102TIP3    H227798   0.204   1.494   0.627  0.9639 -0.2854  1.4920
 2103TIP3   OH227799   5.833   2.639  16.850  0.8537  0.2539 -0.1324
 2103TIP3    H127800   5.746   2.656  16.886  0.9886 -1.8604  1.4089
 2103TIP3    H227801   5.879   2.722  16.856  0.0359  0.5841  2.3458
 2104TIP3   OH227802   4.129   1.762   2.644 -0.8955  0.0633 -0.6766
 2104TIP3    H127803   4.223   1.754   2.655 -0.3812 -3.8165 -5.0080
 2104TIP3    H227804   4.114   1.856   2.631  2.4756  0.7358 -0.4964
 2105TIP3   OH227805   4.835   4.105  12.882  0.1148 -0.1170  0.3166
 2105TIP3    H127806   4.846   4.199  12.896 -2.1198  0.3297 -0.5604
 2105TIP3    H227807   4.760   4.081  12.936 -1.2151 -0.7388 -1.7013
 2106TIP3   OH227808   5.284   5.708   2.388 -0.1829  0.2690 -0.0616
 2106TIP3    H127809   5.289   5.774   2.319 -0.5267  1.3358  0.9007
 2106TIP3    H227810   5.193   5.712   2.418  0.0828  0.1935  0.7835
 2107TIP3   OH227811   6.362   1.952   2.542  0.3036 -0.0819  0.5782
 2107TIP3    H127812   6.302   2.026   2.531  0.7564  0.2710  0.4960
 2107TIP3    H227813   6.305   1.881   2.572 -0.0630  0.4167  1.0940
 2108TIP3   OH227814   1.965   0.813  16.202  0.3030 -0.0578 -0.0668
 2108TIP3    H127815   2.013   0.865  16.138  1.4967  0.4428  1.2033
 2108TIP3    H227816   1.914   0.876  16.252 -0.5082 -0.4313 -0.3953
 2109TIP3   OH227817   0.244   4.621   2.121  0.0472 -0.9350 -0.3761
 2109TIP3    H127818   0.299   4.684   2.168  0.2284 -0.9751 -0.5366
 2109TIP3    H227819   0.187   4.585   2.189 -2.1655  1.5919 -0.7362
 2110TIP3   OH227820   5.201   1.057  13.183  0.0939  0.8140  0.0806
 2110TIP3    H127821   5.282   1.069  13.132 -0.8930  2.3350 -1.2439
 2110TIP3    H227822   5.138   1.022  13.120 -0.3913 -0.0746  1.0280
 2111TIP3   OH227823   5.569   3.279   5.267  0.0026  0.0438 -0.0185
 2111TIP3    H127824   5.602   3.283   5.357 -0.7707  0.0867  0.2726
 2111TIP3    H227825   5.611   3.201   5.230  1.1474  0.6149  0.0260
 2112TIP3   OH227826   4.214   5.094   2.324 -0.1235 -0.2144  0.3979
 2112TIP3    H127827   4.241   5.003   2.326  1.2849  0.1882  1.6750
 2112TIP3    H227828   4.143   5.097   2.259  0.1572 -2.0923 -0.0470
 2113TIP3   OH227829   3.605   5.261   1.099 -0.2941 -0.1987 -0.0815
 2113TIP3    H127830   3.613   5.321   1.173 -1.0805 -1.4169  1.0408
 2113TIP3    H227831   3.571   5.180   1.138 -0.2241 -1.0396 -1.7021
 2114TIP3   OH227832   2.312   6.546   3.664  0.4682  0.2563 -0.4418
 2114TIP3    H127833   2.326   6.452   3.656  0.7032  0.1662  0.8395
 2114TIP3    H227834   2.217   6.557   3.660  0.4553  0.0047 -0.8868
 2115TIP3   OH227835   6.392   6.678   0.051 -0.3550 -0.3520  0.3464
 2115TIP3    H127836   6.310   6.696   0.003  0.5235  0.4454 -0.9290
 2115TIP3    H227837   6.428   6.600   0.009 -0.4363 -0.6800  0.8814
 2116TIP3   OH227838   4.930   2.327   5.365  0.4011 -0.2406  0.1750
 2116TIP3    H127839   4.946   2.387   5.438  1.3259 -0.0803 -0.1472
 2116TIP3    H227840   4.898   2.382   5.294 -1.7624 -0.5609  0.8191
 2117TIP3   OH227841   1.964   2.185  16.786  0.5652 -0.5124  0.1984
 2117TIP3    H127842   2.041   2.216  16.739 -0.3661  1.3266 -0.2068
 2117TIP3    H227843   1.898   2.254  16.772 -0.6274 -1.2545  1.8693
 2118TIP3   OH227844   3.437   1.772  12.719 -0.0566 -0.6521 -0.3910
 2118TIP3    H127845   3.460   1.792  12.810 -0.3822 -0.8901 -0.2579
 2118TIP3    H227846   3.521   1.778  12.672  0.1085 -0.5086 -0.0826
 2119TIP3   OH227847   0.315   0.137  15.995 -0.3354 -0.2846 -0.2131
 2119TIP3    H127848   0.387   0.082  16.027 -0.1798 -0.7560 -1.3345
 2119TIP3    H227849   0.344   0.227  16.013  0.1970 -0.5013  0.0360
 2120TIP3   OH227850   3.844   4.022   4.161  0.0179 -0.1423  0.0637
 2120TIP3    H127851   3.787   3.968   4.215 -0.2962  0.5039  0.4021
 2120TIP3    H227852   3.891   4.077   4.225 -1.2932  1.5463 -0.3299
 2121TIP3   OH227853   6.720   2.929  11.338  0.2483  0.1310  0.1355
 2121TIP3    H127854   6.652   2.920  11.404 -1.2337  3.0545 -0.8261
 2121TIP3    H227855   6.794   2.969  11.384 -0.6099  1.7199  0.2155
 2122TIP3   OH227856   3.336   0.935   5.983 -0.0257 -0.3538  0.3449
 2122TIP3    H127857   3.325   0.907   6.074  1.4533  0.9376  0.9729
 2122TIP3    H227858   3.328   1.030   5.987 -2.2039 -0.4007 -1.2876
 2123TIP3   OH227859   6.801   1.306  15.946 -0.2713 -0.2837  0.5972
 2123TIP3    H127860   6.826   1.216  15.968 -0.1560 -0.1519  1.0090
 2123TIP3    H227861   6.871   1.336  15.888  1.7912  0.8189  3.4118
 2124TIP3   OH227862   0.765   5.757  10.461  0.0237  0.0355  0.3752
 2124TIP3    H127863   0.792   5.715  10.379 -0.0485 -1.5503  1.1212
 2124TIP3    H227864   0.742   5.846  10.435  4.3107  1.1165 -0.6343
 2125TIP3   OH227865   3.301   6.544  16.412 -0.4486  0.1655  0.3716
 2125TIP3    H127866   3.366   6.475  16.428  0.4595  0.8264 -0.4011
 2125TIP3    H227867   3.294   6.589  16.496 -0.4771 -0.3819  0.6695
 2126TIP3   OH227868   0.013   6.377  13.524  0.2956  0.2055  0.3895
 2126TIP3    H127869  -0.032   6.442  13.470  0.6632  0.1768  0.0448
 2126TIP3    H227870   0.088   6.351  13.471  0.5232 -0.0007  0.8176
 2127TIP3   OH227871   1.116   6.400  13.574  0.4101  0.1142  0.2742
 2127TIP3    H127872   1.161   6.317  13.589  2.1386  1.0109  0.3042
 2127TIP3    H227873   1.070   6.417  13.656 -0.0547 -0.8498  0.2279
 2128TIP3   OH227874   2.189   4.989  16.311 -0.5892 -0.2298  0.2975
 2128TIP3    H127875   2.210   4.900  16.341 -0.5188 -0.3715 -0.1604
 2128TIP3    H227876   2.228   4.995  16.223  1.6663  1.1315  1.3068
 2129TIP3   OH227877   4.703   2.868   6.240 -0.4536  1.0496 -0.7827
 2129TIP3    H127878   4.620   2.825   6.261 -0.2714  0.5725 -1.0246
 2129TIP3    H227879   4.686   2.961   6.254 -0.5192  0.8145  0.9246
 2130TIP3   OH227880   3.227   2.981  13.198  0.1927 -0.1661 -0.3466
 2130TIP3    H127881   3.147   3.027  13.170  0.9183  0.3933 -1.5919
 2130TIP3    H227882   3.236   2.910  13.134 -0.6071 -1.7670  1.2180
 2131TIP3   OH227883   3.528   3.137  14.613  0.3765  0.7887 -0.5605
 2131TIP3    H127884   3.464   3.126  14.544  1.7284 -0.7596 -1.6275
 2131TIP3    H227885   3.607   3.094  14.581  1.9673  2.5693  0.7176
 2132TIP3   OH227886   2.853   2.920   5.493  0.6250 -0.0469  0.1838
 2132TIP3    H127887   2.940   2.955   5.475 -0.4807  1.9512 -1.7255
 2132TIP3    H227888   2.826   2.878   5.411 -0.3553 -0.2959  0.6121
 2133TIP3   OH227889   4.262   0.348  13.991  0.2169 -0.8369  0.0439
 2133TIP3    H127890   4.174   0.309  13.987 -0.6373  0.9698  0.2474
 2133TIP3    H227891   4.254   0.418  14.056  1.3438  0.4922 -1.1964
 2134TIP3   OH227892   5.437   5.358  15.721  0.1730  0.2286 -0.1281
 2134TIP3    H127893   5.457   5.449  15.741 -0.4023  0.3476 -0.0545
 2134TIP3    H227894   5.350   5.344  15.760  0.9070 -0.8012  1.1879
 2135TIP3   OH227895   6.628   2.100   5.201  0.5202  0.5993  0.0958
 2135TIP3    H127896   6.563   2.051   5.250  0.0408  1.0902 -0.0305
 2135TIP3    H227897   6.711   2.059   5.222  0.0973 -0.4714 -0.2651
 2136TIP3   OH227898   2.250   3.023   3.043 -0.5201  0.0676  0.1104
 2136TIP3    H127899   2.289   2.991   3.124 -2.3360 -1.2828  0.5182
 2136TIP3    H227900   2.178   3.080   3.072 -0.7665  0.1020 -0.5526
 2137TIP3   OH227901   2.190   0.277  16.060 -0.3908  0.4670  0.2393
 2137TIP3    H127902   2.180   0.372  16.054  1.8161  0.6740 -2.1840
 2137TIP3    H227903   2.101   0.244  16.062 -1.2320  2.5575  0.3028
 2138TIP3   OH227904   0.071   6.781  11.422 -0.1960  0.3062  0.2101
 2138TIP3    H127905   0.011   6.711  11.448  0.7982 -0.0639  1.6229
 2138TIP3    H227906   0.099   6.757  11.333  0.1035 -1.0922  0.6580
 2139TIP3   OH227907   5.326   2.115   4.650  0.0569 -0.5321  0.2649
 2139TIP3    H127908   5.371   2.098   4.567  0.0856  3.0288 -0.6023
 2139TIP3    H227909   5.234   2.094   4.633 -0.3045  2.0309 -1.4522
 2140TIP3   OH227910   6.808   0.634  11.299  0.1592 -0.0022  0.1010
 2140TIP3    H127911   6.757   0.664  11.224  0.0292  1.2887  0.6804
 2140TIP3    H227912   6.897   0.665  11.281  0.5486 -1.3346 -0.4011
 2141TIP3   OH227913   5.668   5.427  13.076 -0.1188  0.1945 -0.1549
 2141TIP3    H127914   5.592   5.462  13.124  0.2656  0.6470  0.1265
 2141TIP3    H227915   5.723   5.503  13.059  0.5521 -0.2164  0.1399
 2142TIP3   OH227916   1.259   0.392  14.849 -0.9879  0.3930 -0.1215
 2142TIP3    H127917   1.259   0.334  14.773 -3.0897  0.9885 -0.6496
 2142TIP3    H227918   1.236   0.478  14.813 -0.9674  0.9008  1.0498
 2143TIP3   OH227919   1.587   2.016   6.119 -0.1339  0.2074 -0.0103
 2143TIP3    H127920   1.492   2.004   6.126 -0.3444  1.5915 -0.2055
 2143TIP3    H227921   1.624   1.943   6.170 -1.2884 -0.4406 -0.0648
 2144TIP3   OH227922   1.803   5.749   2.720  0.6959 -0.0883 -0.2748
 2144TIP3    H127923   1.754   5.776   2.643  0.7856  0.1467 -0.2497
 2144TIP3    H227924   1.749   5.776   2.794  1.1473  0.7355 -0.2348
 2145TIP3   OH227925   0.710   6.636  13.713  0.8440  0.5950 -0.0246
 2145TIP3    H127926   0.731   6.718  13.668  0.2677  0.4808 -0.5191
 2145TIP3    H227927   0.615   6.638  13.721  0.8288 -0.0200 -0.0309
 2146TIP3   OH227928   0.013   6.602   1.659 -0.7585 -0.3448 -0.4660
 2146TIP3    H127929   0.105   6.588   1.639 -0.9430 -0.3573 -1.3466
 2146TIP3    H227930   0.013   6.642   1.746 -0.0301 -2.0717  0.3815
 2147TIP3   OH227931   3.651   1.672  15.311  0.0501 -0.3608  0.4291
 2147TIP3    H127932   3.617   1.645  15.226 -0.6244  2.1493 -0.1658
 2147TIP3    H227933   3.587   1.637  15.374 -0.7555 -0.2174 -0.2863
 2148TIP3   OH227934   1.045   0.587  12.791  0.1578 -0.2487  0.4333
 2148TIP3    H127935   1.112   0.591  12.723 -0.9333  0.7915 -0.6151
 2148TIP3    H227936   0.964   0.611  12.747 -1.0490 -2.0066  1.5505
 2149TIP3   OH227937   6.686   1.246  10.404  1.0104 -0.1862  0.2814
 2149TIP3    H127938   6.740   1.194  10.463  2.3112  1.6147  0.7945
 2149TIP3    H227939   6.611   1.274  10.456 -0.9684 -3.3136 -0.6415
 2150TIP3   OH227940   4.975   3.475  15.290 -0.4434 -0.1666  0.2329
 2150TIP3    H127941   5.027   3.496  15.367 -1.5912 -0.4639  1.1255
 2150TIP3    H227942   4.907   3.543  15.288  0.1444  0.4163 -1.1022
 2151TIP3   OH227943   2.761   6.677   2.463  0.0919  0.1710 -0.1249
 2151TIP3    H127944   2.852   6.654   2.485 -0.0400 -0.3034 -0.0560
 2151TIP3    H227945   2.747   6.639   2.376 -0.0448  0.2255 -0.1270
 2152TIP3   OH227946   5.039   3.951  14.110  0.3354  0.1165 -0.0426
 2152TIP3    H127947   4.969   4.016  14.112  1.4173  1.3108 -0.0356
 2152TIP3    H227948   5.093   3.972  14.186  0.2162 -1.3711  0.4808
 2153TIP3   OH227949   4.274   4.078   5.083 -0.1766 -0.3642 -0.1898
 2153TIP3    H127950   4.326   4.119   5.014  1.1969  0.4971  1.2877
 2153TIP3    H227951   4.315   4.108   5.164 -1.5951 -1.5311  1.0006
 2154TIP3   OH227952   4.676   0.662  11.176 -0.4553  0.9892  0.5868
 2154TIP3    H127953   4.584   0.638  11.183 -0.6334  1.3453 -0.3528
 2154TIP3    H227954   4.676   0.741  11.122  0.3903  1.0817  0.7120
 2155TIP3   OH227955   4.711   1.769   0.341 -0.0928 -0.1327  0.0189
 2155TIP3    H127956   4.706   1.686   0.389 -1.8300  0.8862  1.6939
 2155TIP3    H227957   4.772   1.822   0.391 -1.9940  0.9740  1.2795
 2156TIP3   OH227958   2.904   6.556   6.624 -0.0076 -0.2728 -0.4124
 2156TIP3    H127959   2.885   6.608   6.701 -1.9439 -0.4355 -0.7292
 2156TIP3    H227960   2.907   6.619   6.552  3.9854  0.2136 -0.0508
 2157TIP3   OH227961   2.234   4.309   2.927 -0.2242 -0.0076  0.1562
 2157TIP3    H127962   2.330   4.304   2.927 -0.2552 -1.6206 -0.8800
 2157TIP3    H227963   2.213   4.369   2.856  0.0289 -0.3724 -0.2364
 2158TIP3   OH227964   0.327   4.486   6.132 -0.3375 -0.3189 -0.0803
 2158TIP3    H127965   0.367   4.514   6.214  0.2543  1.2407 -0.8599
 2158TIP3    H227966   0.261   4.552   6.113  0.1763 -0.1215 -1.3087
 2159TIP3   OH227967   4.386   5.302  14.490 -0.1688 -0.9100 -0.1881
 2159TIP3    H127968   4.437   5.259  14.422 -1.2593 -2.4889 -0.0388
 2159TIP3    H227969   4.447   5.367  14.527  0.7017 -0.5695 -2.0780
 2160TIP3   OH227970   5.817   3.779  15.053  0.0396  0.2609 -0.0742
 2160TIP3    H127971   5.898   3.831  15.055  1.3913 -1.7209  2.9082
 2160TIP3    H227972   5.820   3.735  14.968  1.1391  1.5731 -0.7742
 2161TIP3   OH227973   0.154   2.186  16.519  0.1127  0.2747 -0.2510
 2161TIP3    H127974   0.150   2.191  16.614 -1.3532  2.8354 -0.3683
 2161TIP3    H227975   0.090   2.119  16.495  0.1680 -0.0593  0.5119
 2162TIP3   OH227976   2.155   4.369   3.775  0.3042 -0.4296 -0.1128
 2162TIP3    H127977   2.095   4.424   3.726  0.5904 -0.0807 -0.0753
 2162TIP3    H227978   2.125   4.280   3.758  0.1999 -0.2955 -0.6495
 2163TIP3   OH227979   2.396   5.335  14.875 -0.7984  0.2983  0.3527
 2163TIP3    H127980   2.423   5.365  14.788 -2.8803  0.3693 -0.3101
 2163TIP3    H227981   2.465   5.367  14.933  1.0047 -0.3205 -1.3102
 2164TIP3   OH227982   3.557   0.262  16.958  0.1198  0.1001  0.1655
 2164TIP3    H127983   3.490   0.281  17.023 -0.6607 -2.1369  0.0999
 2164TIP3    H227984   3.606   0.188  16.994 -0.0334 -0.9013 -1.5426
 2165TIP3   OH227985   0.668   0.296   0.402 -0.2800  0.2719 -0.5893
 2165TIP3    H127986   0.747   0.340   0.434 -0.0602 -1.0733  0.8432
 2165TIP3    H227987   0.596   0.344   0.445 -0.1050  0.0074  0.0137
 2166TIP3   OH227988   0.615   0.695   5.714 -0.0300 -0.4054 -0.6045
 2166TIP3    H127989   0.587   0.768   5.769 -0.7317 -0.5282 -0.7799
 2166TIP3    H227990   0.654   0.737   5.637 -0.8549 -0.1877 -0.9240
 2167TIP3   OH227991   4.839   0.147   5.732 -0.0453 -0.4141  0.2024
 2167TIP3    H127992   4.864   0.072   5.785 -0.5758 -0.9673 -0.3120
 2167TIP3    H227993   4.819   0.216   5.796 -0.4395 -0.9949  0.7162
 2168TIP3   OH227994   1.878   1.568  16.814 -0.2396 -0.2669  0.0845
 2168TIP3    H127995   1.932   1.647  16.826  0.5796 -0.9688  1.1684
 2168TIP3    H227996   1.859   1.538  16.903 -0.3103 -1.4531 -0.3128
 2169TIP3   OH227997   1.948   0.384   2.659 -0.3004  0.4157  0.2449
 2169TIP3    H127998   1.863   0.397   2.617 -0.4471 -0.3285  0.3070
 2169TIP3    H227999   1.942   0.299   2.702  0.3283  0.5474  0.6144
 2170TIP3   OH228000   0.094   2.288   2.726 -0.3994 -0.2100 -0.0654
 2170TIP3    H128001   0.170   2.230   2.722 -0.6919 -0.6818  0.9491
 2170TIP3    H228002   0.111   2.355   2.660  0.8717 -0.3443  0.1098
 2171TIP3   OH228003   0.172   6.509  15.861 -0.4003 -0.6729  0.3812
 2171TIP3    H128004   0.242   6.573  15.847 -0.0928 -0.2432  3.2598
 2171TIP3    H228005   0.091   6.559  15.850 -0.2252 -0.5558 -0.4296
 2172TIP3   OH228006   1.240   2.139  10.858  0.4243 -0.3324  0.3645
 2172TIP3    H128007   1.212   2.121  10.948  0.5175 -0.6893  0.3226
 2172TIP3    H228008   1.268   2.054  10.824  1.4224 -0.0119  0.3486
 2173TIP3   OH228009   5.159   3.764   3.404  0.3656 -0.2224 -0.4362
 2173TIP3    H128010   5.120   3.851   3.398  0.0608 -0.3083  0.1866
 2173TIP3    H228011   5.087   3.707   3.431  0.6928 -0.5578 -0.2633
 2174TIP3   OH228012   0.172   0.584  15.796 -0.0171  0.3542 -0.2260
 2174TIP3    H128013   0.263   0.590  15.766  0.0912 -0.4085 -0.0773
 2174TIP3    H228014   0.125   0.548  15.721 -0.0066 -0.1869  0.0168
 2175TIP3   OH228015   3.496   0.265   2.591  0.1704  0.1911  0.1947
 2175TIP3    H128016   3.498   0.267   2.495 -0.1998 -1.7074  0.1070
 2175TIP3    H228017   3.417   0.315   2.614  0.6092  1.2157 -0.4290
 2176TIP3   OH228018   1.621   6.476  13.680 -0.0694  0.0794  0.2663
 2176TIP3    H128019   1.615   6.560  13.633  2.7575 -0.4417 -1.2182
 2176TIP3    H228020   1.707   6.442  13.657 -1.3247 -3.5288  0.4053
 2177TIP3   OH228021   5.722   0.289  16.512  0.1685 -0.4056 -0.4059
 2177TIP3    H128022   5.772   0.272  16.432  0.3668  0.0134 -0.3708
 2177TIP3    H228023   5.666   0.363  16.491  1.7923  1.1620  0.4950
 2178TIP3   OH228024   6.166   3.972   3.632 -0.2898 -0.1651  0.2885
 2178TIP3    H128025   6.223   3.898   3.613 -0.5562 -0.1454 -0.6595
 2178TIP3    H228026   6.079   3.933   3.641 -0.8716  0.2106 -2.5846
 2179TIP3   OH228027   3.483   6.251   6.629 -0.4392 -0.5992 -1.1176
 2179TIP3    H128028   3.487   6.187   6.700  0.6393 -0.4998 -1.0776
 2179TIP3    H228029   3.479   6.336   6.672  1.2891 -0.4765 -1.1511
 2180TIP3   OH228030   3.639   6.085   4.199 -0.0217 -0.1964 -0.0537
 2180TIP3    H128031   3.577   6.017   4.173 -0.2043 -0.3634  0.8003
 2180TIP3    H228032   3.610   6.163   4.151 -0.2858 -0.5190 -0.4242
 2181TIP3   OH228033   5.146   6.206  17.172  0.0336  0.3010  0.3978
 2181TIP3    H128034   5.234   6.196  17.134 -0.3558  2.5877 -1.3373
 2181TIP3    H228035   5.104   6.122  17.156  1.1437 -0.0441 -0.9462
 2182TIP3   OH228036   6.599   2.874  11.094  0.2934  0.2722  0.3000
 2182TIP3    H128037   6.541   2.799  11.110  1.3114 -0.7290 -0.5752
 2182TIP3    H228038   6.652   2.880  11.173  2.2489 -1.8534 -0.7454
 2183TIP3   OH228039   5.843   0.271  10.536  0.3725 -0.1073 -0.1809
 2183TIP3    H128040   5.810   0.228  10.615  1.3299 -3.4454 -1.4193
 2183TIP3    H228041   5.782   0.246  10.467  0.6941  1.0268 -0.9165
 2184TIP3   OH228042   1.083   5.012  13.542  0.6228 -0.0691 -0.3537
 2184TIP3    H128043   1.119   4.931  13.506 -0.6437 -1.0885  0.6111
 2184TIP3    H228044   1.160   5.062  13.568  1.4255 -1.9370  1.1239
 2185TIP3   OH228045   4.274   2.811  11.290 -0.0719  0.7919 -0.0973
 2185TIP3    H128046   4.214   2.758  11.237  0.4936 -0.8111  0.7874
 2185TIP3    H228047   4.218   2.849  11.358 -0.3583  0.6406 -0.2456
 2186TIP3   OH228048   0.949   2.506  15.257  0.4486 -0.0345  0.0416
 2186TIP3    H128049   0.860   2.539  15.245 -0.0892 -0.7642  1.6462
 2186TIP3    H228050   1.005   2.574  15.220 -0.7816  0.1181 -1.6289
 2187TIP3   OH228051   3.319   4.565  14.893 -0.2789 -0.0766  0.0048
 2187TIP3    H128052   3.363   4.634  14.844 -1.5962  0.4558 -0.4638
 2187TIP3    H228053   3.251   4.610  14.943 -0.9775 -0.9935 -0.0950
 2188TIP3   OH228054   2.724   3.747  16.544 -0.2009 -0.2016  0.0441
 2188TIP3    H128055   2.793   3.787  16.491 -1.6372 -1.2590 -2.8029
 2188TIP3    H228056   2.744   3.654  16.544 -0.8273 -0.3431  0.4719
 2189TIP3   OH228057   0.322   3.614  13.842 -0.7574  0.2080  0.1612
 2189TIP3    H128058   0.370   3.541  13.802  0.7863  1.1391  0.2815
 2189TIP3    H228059   0.325   3.684  13.777  1.4282  1.6072  1.6504
 2190TIP3   OH228060   6.006   6.653   0.340  0.2151  1.0426  0.2101
 2190TIP3    H128061   6.046   6.601   0.270  0.7832 -0.7351  1.7630
 2190TIP3    H228062   5.915   6.625   0.341  0.3825  0.4776  0.6443
 2191TIP3   OH228063   0.051   5.956  14.056  0.4991  0.3793  0.2480
 2191TIP3    H128064   0.002   6.010  13.995 -0.8678 -3.3249 -2.2898
 2191TIP3    H228065  -0.007   5.947  14.132 -0.0453  0.9390 -0.0903
 2192TIP3   OH228066   0.141   6.058  12.577  0.4764  0.6568 -0.6143
 2192TIP3    H128067   0.066   6.079  12.521 -0.7507  0.5973  0.9454
 2192TIP3    H228068   0.137   5.962  12.586  1.7062  0.4636 -1.7841
 2193TIP3   OH228069   2.648   2.962   5.912 -0.4171 -0.6597 -0.2407
 2193TIP3    H128070   2.710   2.944   5.982 -1.5648 -3.4639  0.1661
 2193TIP3    H228071   2.616   3.051   5.931  1.5907 -0.1053  0.9115
 2194TIP3   OH228072   5.414   2.610   5.507 -0.4318 -0.1025  0.4303
 2194TIP3    H128073   5.471   2.605   5.584 -0.4837 -1.4094  0.4014
 2194TIP3    H228074   5.464   2.662   5.444  0.4446 -0.6316  0.6646
 2195TIP3   OH228075   2.060   4.024  14.168  0.8910  0.8680 -0.4188
 2195TIP3    H128076   2.117   3.948  14.170  0.5792  0.6437  0.0352
 2195TIP3    H228077   2.099   4.085  14.231  0.6165  0.7038 -0.0883
 2196TIP3   OH228078   2.497   0.219  15.015 -0.8375  0.2741  0.2292
 2196TIP3    H128079   2.430   0.181  15.071 -0.4351 -0.5839  0.1383
 2196TIP3    H228080   2.555   0.265  15.076 -1.4975  1.0340  0.3053
 2197TIP3   OH228081   4.696   1.108   0.613 -0.4179  0.0009  0.0365
 2197TIP3    H128082   4.639   1.090   0.538 -0.3632  0.3938 -0.1025
 2197TIP3    H228083   4.636   1.142   0.680 -0.7759 -2.1146  0.8524
 2198TIP3   OH228084   5.573   0.866  16.999 -0.3107 -0.6590  0.4971
 2198TIP3    H128085   5.592   0.817  16.919  1.7368  1.7622 -0.6088
 2198TIP3    H228086   5.653   0.859  17.051  0.3102  1.9791  0.0015
 2199TIP3   OH228087   0.977   2.460  11.968  0.2584  0.0393 -0.0052
 2199TIP3    H128088   0.995   2.423  11.881  0.2931  1.0376 -0.4351
 2199TIP3    H228089   1.034   2.412  12.027  0.1933 -0.6958 -0.5252
 2200TIP3   OH228090   6.273   5.970  10.522 -0.4581 -0.0643  0.4383
 2200TIP3    H128091   6.224   5.901  10.479 -0.1142 -0.4382  0.6360
 2200TIP3    H228092   6.211   6.009  10.584 -0.9282  0.4272 -0.3290
 2201TIP3   OH228093   0.818   5.724   2.497  0.4742 -0.1726 -0.3537
 2201TIP3    H128094   0.842   5.637   2.467 -0.1681 -0.6659  0.5026
 2201TIP3    H228095   0.728   5.715   2.529  1.1683  0.2035  1.9415
 2202TIP3   OH228096   5.007   3.924   3.735  0.1241  0.0790 -0.1525
 2202TIP3    H128097   4.920   3.962   3.751 -0.5550 -0.8780 -1.3593
 2202TIP3    H228098   5.009   3.846   3.789  0.9392  0.9971  1.1932
 2203TIP3   OH228099   3.649   2.322   3.428  0.5288  0.1886  0.3892
 2203TIP3    H128100   3.691   2.392   3.377 -0.3669  0.7844  0.4537
 2203TIP3    H228101   3.585   2.367   3.483 -1.9116 -0.8809 -1.3996
 2204TIP3   OH228102   6.768   0.462  12.376 -0.4334 -0.3902 -0.8567
 2204TIP3    H128103   6.738   0.515  12.450  0.1223 -1.4485  0.1541
 2204TIP3    H228104   6.704   0.480  12.307 -0.6912  0.9918 -0.2973
 2205TIP3   OH228105   1.249   0.706  15.022 -0.1841  0.3148  0.2167
 2205TIP3    H128106   1.323   0.760  14.993 -0.3253  0.0277 -0.7123
 2205TIP3    H228107   1.280   0.666  15.104 -0.7591  3.2068  1.9849
 2206TIP3   OH228108   6.738   2.103  10.485 -0.0621  0.3901 -0.0962
 2206TIP3    H128109   6.646   2.126  10.491  0.0807  0.6580  1.5167
 2206TIP3    H228110   6.780   2.180  10.446 -0.4964  0.3243 -0.6911
 2207TIP3   OH228111   4.479   0.821  11.041  0.2803  0.4400 -0.4146
 2207TIP3    H128112   4.423   0.818  10.963 -0.9155  1.1791  0.3916
 2207TIP3    H228113   4.483   0.914  11.064  2.4238  0.4948 -0.8400
 2208TIP3   OH228114   1.143   5.885   2.256 -0.3533 -0.2605 -0.1210
 2208TIP3    H128115   1.071   5.843   2.210 -0.2330 -0.8021  0.1625
 2208TIP3    H228116   1.160   5.827   2.331 -1.3371  1.2036  1.3025
 2209TIP3   OH228117   2.730   4.839  12.874 -0.0787  0.1241 -1.0320
 2209TIP3    H128118   2.767   4.856  12.961  1.5156 -1.9715 -1.2362
 2209TIP3    H228119   2.795   4.874  12.813 -1.2414  1.6845 -1.4515
 2210TIP3   OH228120   4.184   6.649  14.906 -0.1785 -0.4310 -0.1081
 2210TIP3    H128121   4.229   6.733  14.918 -0.7386  0.0939 -1.5335
 2210TIP3    H228122   4.110   6.654  14.966 -0.6831  0.4678 -0.7712
 2211TIP3   OH228123   2.604   1.441  10.922  0.0710 -0.3214  0.1603
 2211TIP3    H128124   2.681   1.495  10.939  0.5759 -0.8099 -0.5014
 2211TIP3    H228125   2.529   1.498  10.939  0.5800  0.2014  0.6791
 2212TIP3   OH228126   3.833   1.254  14.193  0.3093  0.5786  0.3453
 2212TIP3    H128127   3.913   1.263  14.140  0.4177 -2.1072 -0.0777
 2212TIP3    H228128   3.863   1.218  14.276 -0.3898 -0.0022  0.3574
 2213TIP3   OH228129   5.618   3.151  14.924 -0.2525  0.0467 -0.0812
 2213TIP3    H128130   5.684   3.095  14.966 -0.3205  0.5672  0.7476
 2213TIP3    H228131   5.594   3.104  14.844  0.3647 -0.6540  0.1311
 2214TIP3   OH228132   0.586   3.092  16.021  0.0205 -0.4986  0.2469
 2214TIP3    H128133   0.669   3.066  16.062  1.3420  3.1308  0.2544
 2214TIP3    H228134   0.527   3.108  16.095  0.7663  1.0489  0.5571
 2215TIP3   OH228135   6.596   4.506   4.885 -0.1526 -0.2458 -0.2531
 2215TIP3    H128136   6.662   4.450   4.845  1.6986  0.8971  1.0957
 2215TIP3    H228137   6.607   4.591   4.843  0.3757  0.3881  1.1073
 2216TIP3   OH228138   3.006   3.321  14.047  0.1178  0.3465 -0.4082
 2216TIP3    H128139   2.974   3.273  13.971 -2.8760 -0.0685  0.9606
 2216TIP3    H228140   2.982   3.412  14.030 -0.5984  0.2463  0.0160
 2217TIP3   OH228141   5.818   6.514  14.305 -0.4123 -0.2546 -0.1867
 2217TIP3    H128142   5.852   6.426  14.289 -1.6878 -0.6900 -0.6204
 2217TIP3    H228143   5.804   6.517  14.400 -1.5597 -0.9854 -0.3200
 2218TIP3   OH228144   4.173   6.559   2.115  0.4655  0.3329  0.1588
 2218TIP3    H128145   4.092   6.608   2.130  0.1142 -0.6091  1.5973
 2218TIP3    H228146   4.235   6.596   2.179 -0.4258 -2.3714  2.8447
 2219TIP3   OH228147   3.971   3.971   0.895  0.0109 -0.0521 -0.7486
 2219TIP3    H128148   3.904   4.039   0.890  0.8685  0.7420 -1.6250
 2219TIP3    H228149   4.041   4.009   0.948  0.7066 -0.0642 -1.6448
 2220TIP3   OH228150   5.053   3.002  12.034  0.2555 -0.1250 -0.3107
 2220TIP3    H128151   5.050   3.094  12.010 -0.2657 -0.2424 -0.6977
 2220TIP3    H228152   5.138   2.971  12.001 -0.2934 -0.1982 -1.6963
 2221TIP3   OH228153   3.016   5.527  13.044 -1.0469 -0.4053  0.2092
 2221TIP3    H128154   3.102   5.524  13.002  1.0665  2.3585  3.7452
 2221TIP3    H228155   2.981   5.613  13.020 -2.3890 -1.0797 -0.3327
 2222TIP3   OH228156   4.422   4.582   1.959 -1.3163 -0.3600  0.1421
 2222TIP3    H128157   4.464   4.570   1.874 -0.6306  1.7259  0.1205
 2222TIP3    H228158   4.408   4.494   1.992 -0.9215 -1.1955 -1.8091
 2223TIP3   OH228159   5.883   3.032  10.241  0.9008  0.1579 -0.4353
 2223TIP3    H128160   5.871   3.115  10.288  0.8526 -0.8087  1.3476
 2223TIP3    H228161   5.814   3.033  10.174  0.9863  1.6035 -0.5376
 2224TIP3   OH228162   4.615   4.885   3.943 -0.2453 -0.3072 -0.4100
 2224TIP3    H128163   4.700   4.870   3.984 -0.5909 -1.3141 -0.0380
 2224TIP3    H228164   4.635   4.899   3.851  0.3978  0.3698 -0.1767
 2225TIP3   OH228165   5.164   3.059   3.079 -0.2474 -0.2832 -0.1855
 2225TIP3    H128166   5.068   3.054   3.071 -0.3041  0.7348 -0.2510
 2225TIP3    H228167   5.194   2.970   3.059 -1.0513 -0.1820 -2.1171
 2226TIP3   OH228168   1.222   3.363  15.127  0.0070  0.1823 -0.1078
 2226TIP3    H128169   1.304   3.413  15.125 -0.1934  0.5137 -0.1384
 2226TIP3    H228170   1.196   3.364  15.219  0.6493 -0.9406  0.1051
 2227TIP3   OH228171   3.178   0.925   0.596  0.1753 -0.8245 -0.5996
 2227TIP3    H128172   3.256   0.979   0.613  0.6372 -1.9763  1.1726
 2227TIP3    H228173   3.107   0.973   0.638  0.2636 -0.7342 -0.5516
 2228TIP3   OH228174   5.234   0.616   0.785  0.2883 -0.0338 -0.4509
 2228TIP3    H128175   5.201   0.662   0.707  0.6878 -0.8995 -1.1458
 2228TIP3    H228176   5.156   0.578   0.825 -0.2357  2.1837  0.8199
 2229TIP3   OH228177   2.875   0.888  15.947 -0.2060 -0.0120 -0.0496
 2229TIP3    H128178   2.945   0.945  15.916 -0.0981 -0.8936 -1.5514
 2229TIP3    H228179   2.893   0.803  15.906 -0.7845 -0.9381  1.5034
 2230TIP3   OH228180   0.630   0.815  11.549  0.4781 -0.3492 -0.2645
 2230TIP3    H128181   0.577   0.848  11.621 -0.4305 -0.0203 -1.0582
 2230TIP3    H228182   0.590   0.732  11.526  0.5986 -0.3272 -0.5586
 2231TIP3   OH228183   1.019   4.174  10.260 -0.2370 -0.6527  0.2579
 2231TIP3    H128184   0.943   4.199  10.313  0.8652 -0.1516  1.6806
 2231TIP3    H228185   1.083   4.142  10.324  1.3412  0.4232 -0.7038
 2232TIP3   OH228186   6.731   1.309  15.421  0.1177  0.1444 -0.3477
 2232TIP3    H128187   6.666   1.246  15.451  0.6376  0.2054  0.9939
 2232TIP3    H228188   6.746   1.366  15.497  1.3410  0.4554 -0.7988
 2233TIP3   OH228189   5.102   2.442   1.343 -0.0442 -0.2107  0.0627
 2233TIP3    H128190   5.177   2.462   1.286  0.1977 -1.6409 -0.1725
 2233TIP3    H228191   5.028   2.435   1.284  0.0259 -0.7639  0.0356
 2234TIP3   OH228192   1.460   1.032   1.169  0.2676 -0.5438  0.0973
 2234TIP3    H128193   1.531   0.980   1.131  1.5062  1.2234 -0.1257
 2234TIP3    H228194   1.484   1.122   1.151 -1.2209  0.1880  1.4978
 2235TIP3   OH228195   6.518   2.668   6.060  0.1143  0.4239 -0.5175
 2235TIP3    H128196   6.614   2.671   6.055  0.1767 -1.3865 -1.0987
 2235TIP3    H228197   6.490   2.756   6.036  1.6489  1.3443  0.8331
 2236TIP3   OH228198   4.525   2.448  15.763 -0.1338 -0.1856 -0.0191
 2236TIP3    H128199   4.619   2.437  15.778  0.0290  1.3218  0.2025
 2236TIP3    H228200   4.508   2.398  15.683  0.8560 -0.4911 -0.0580
 2237TIP3   OH228201   0.395   4.026   0.160  0.0723 -0.4224 -0.0237
 2237TIP3    H128202   0.422   4.081   0.086 -2.2360 -0.0448 -0.6700
 2237TIP3    H228203   0.452   4.053   0.232 -1.5468  3.6759 -0.0106
 2238TIP3   OH228204   2.082   3.884  14.685  0.2300 -0.2842 -0.1236
 2238TIP3    H128205   2.031   3.804  14.674  0.2284 -0.2266 -0.5458
 2238TIP3    H228206   2.170   3.860  14.658  0.6787 -0.6624  1.5523
 2239TIP3   OH228207   0.690   3.165  14.119  0.7495 -0.5181 -0.1389
 2239TIP3    H128208   0.679   3.142  14.211 -0.9125 -0.1650 -0.2002
 2239TIP3    H228209   0.600   3.175  14.086  1.2758 -1.5418 -2.0426
 2240TIP3   OH228210   5.760   6.284  16.828  0.6058  0.2117  0.8116
 2240TIP3    H128211   5.675   6.323  16.850  0.6648  1.0866 -0.3900
 2240TIP3    H228212   5.747   6.246  16.741  1.4833  0.4748  0.5566
 2241TIP3   OH228213   1.651   0.746  12.559 -0.2084  0.6579 -0.2650
 2241TIP3    H128214   1.646   0.662  12.514 -0.1561 -0.3134  1.4272
 2241TIP3    H228215   1.582   0.799  12.520 -0.6699 -0.4046 -0.9342
 2242TIP3   OH228216   1.758   2.517  12.926 -0.0841 -0.1580 -0.2764
 2242TIP3    H128217   1.745   2.548  12.837 -0.3326  0.0415 -0.1736
 2242TIP3    H228218   1.670   2.511  12.963  0.0914  3.0607  1.0471
 2243TIP3   OH228219   4.756   3.176  15.980 -0.1677  0.0041 -0.3355
 2243TIP3    H128220   4.696   3.195  15.908 -0.8189 -1.7096 -0.3053
 2243TIP3    H228221   4.742   3.247  16.043 -1.6620  0.0233 -0.6483
 2244TIP3   OH228222   3.611   6.289  12.078  0.4870 -0.0986  0.3091
 2244TIP3    H128223   3.640   6.237  12.153  1.3757  0.5206  0.4062
 2244TIP3    H228224   3.624   6.231  12.003 -1.2918 -1.0735  0.6923
 2245TIP3   OH228225   3.332   3.466   6.434  0.1298  0.1305  0.0002
 2245TIP3    H128226   3.265   3.463   6.503  1.5017  0.0355  1.3748
 2245TIP3    H228227   3.336   3.558   6.408  0.9695  0.5298  1.4651
 2246TIP3   OH228228   2.684   4.842   6.735 -0.0063 -0.0793  0.0161
 2246TIP3    H128229   2.610   4.794   6.772 -0.7514  0.0033 -1.3006
 2246TIP3    H228230   2.708   4.905   6.802 -1.6577  0.4367  0.1599
 2247TIP3   OH228231   3.952   4.945   1.528 -0.2435 -0.4339 -0.3345
 2247TIP3    H128232   4.027   4.997   1.557 -0.1812 -0.3201 -0.6958
 2247TIP3    H228233   3.937   4.883   1.600  0.4410 -0.7177 -0.4222
 2248TIP3   OH228234   4.393   0.881   4.290  0.3331 -0.4062 -0.3242
 2248TIP3    H128235   4.348   0.854   4.370 -1.5012  2.3899 -0.2779
 2248TIP3    H228236   4.364   0.818   4.224  0.3494 -1.6085  0.7677
 2249TIP3   OH228237   5.575   4.073  12.026  0.4441  0.9229 -0.3666
 2249TIP3    H128238   5.495   4.070  11.973  0.8214 -1.4283 -0.9292
 2249TIP3    H228239   5.638   4.118  11.971  0.4746 -0.4064 -1.4857
 2250TIP3   OH228240   5.413   2.049  13.410  0.3803  0.1155 -0.9884
 2250TIP3    H128241   5.491   2.098  13.383  0.1754  1.0355 -0.0013
 2250TIP3    H228242   5.386   2.002  13.331  2.2291 -0.6487 -1.2139
 2251TIP3   OH228243   5.349   0.737  13.150 -0.4962 -0.0876  0.1700
 2251TIP3    H128244   5.263   0.698  13.134 -0.4404 -0.1926  0.1227
 2251TIP3    H228245   5.340   0.827  13.121 -0.2438 -0.4132 -0.9574
 2252TIP3   OH228246   3.755   5.447   3.485  0.3414  0.0769  0.4043
 2252TIP3    H128247   3.820   5.426   3.418  0.9404 -0.6098  1.1848
 2252TIP3    H228248   3.730   5.362   3.521  1.8943  0.5361  2.7655
 2253TIP3   OH228249   1.362   6.448  16.756 -0.0026 -0.2450  0.4622
 2253TIP3    H128250   1.391   6.381  16.818  0.1706 -0.7251 -0.1310
 2253TIP3    H228251   1.382   6.411  16.670 -1.4398 -0.1604  0.0687
 2254TIP3   OH228252   2.745   2.717   0.861 -0.0464  0.0111 -0.1128
 2254TIP3    H128253   2.736   2.689   0.952  0.2758 -0.6652 -0.2835
 2254TIP3    H228254   2.769   2.638   0.814  0.2771  0.4540 -0.7094
 2255TIP3   OH228255   2.752   2.772   3.757  0.0763  0.2408  0.2488
 2255TIP3    H128256   2.694   2.702   3.728  0.2277  1.0527 -2.2358
 2255TIP3    H228257   2.830   2.763   3.704  0.8873  1.1531  1.2334
 2256TIP3   OH228258   3.153   5.231   5.938 -0.5936  0.2587  0.5772
 2256TIP3    H128259   3.070   5.248   5.983 -1.1699  1.1723 -0.7961
 2256TIP3    H228260   3.134   5.158   5.879 -0.2669  0.1325  0.6227
 2257TIP3   OH228261   2.129   2.926  16.598 -0.0512  0.1548 -0.1211
 2257TIP3    H128262   2.058   2.884  16.648 -0.0462  1.2039  0.8048
 2257TIP3    H228263   2.104   2.912  16.506 -0.0350 -1.8556  0.1343
 2258TIP3   OH228264   0.442   0.787   4.722 -0.1003  0.6491  0.6662
 2258TIP3    H128265   0.474   0.877   4.729  1.1224  0.3390 -0.5219
 2258TIP3    H228266   0.374   0.781   4.788  0.6934  2.0662  1.6748
 2259TIP3   OH228267   3.591   1.611   1.159 -0.3507  0.3038 -0.0163
 2259TIP3    H128268   3.500   1.596   1.132 -0.6844  0.5848  0.8963
 2259TIP3    H228269   3.583   1.645   1.248  0.6411  0.6290 -0.0469
 2260TIP3   OH228270   2.896   0.474  14.310  0.3202 -0.6005  0.0971
 2260TIP3    H128271   2.899   0.451  14.403 -0.9208  1.4134  0.7212
 2260TIP3    H228272   2.806   0.452  14.284  0.4768 -0.5880 -0.4493
 2261TIP3   OH228273   5.256   0.235   1.527  0.3367  0.0447 -0.2998
 2261TIP3    H128274   5.293   0.262   1.443  0.6323  1.1387  0.1642
 2261TIP3    H228275   5.162   0.234   1.513  0.4254 -1.2889 -1.0609
 2262TIP3   OH228276   3.899   5.950  13.407  0.6469 -0.4453  0.7367
 2262TIP3    H128277   3.900   6.046  13.414 -0.4460 -0.4737  1.4049
 2262TIP3    H228278   3.853   5.933  13.324  0.6971 -0.3950  0.6978
 2263TIP3   OH228279   2.634   6.173  13.430 -0.5321 -0.2080 -0.0377
 2263TIP3    H128280   2.611   6.081  13.420 -0.9025  0.0272 -1.5028
 2263TIP3    H228281   2.661   6.181  13.522  1.9801 -2.3099 -0.4782
 2264TIP3   OH228282   1.134   6.030   3.736  0.1546 -0.0504 -0.3875
 2264TIP3    H128283   1.227   6.009   3.731  0.0741 -0.5895  0.1530
 2264TIP3    H228284   1.130   6.125   3.726  0.9316  0.1990  1.2047
 2265TIP3   OH228285   2.369   1.712   5.717 -0.4822  0.5740  0.6362
 2265TIP3    H128286   2.308   1.720   5.643  0.6416 -1.0610 -0.5444
 2265TIP3    H228287   2.453   1.694   5.676  0.0753 -0.9591  2.3454
 2266TIP3   OH228288   1.503   2.334  14.377 -0.2572 -0.1773  0.3735
 2266TIP3    H128289   1.567   2.301  14.441 -0.5478  0.1833  0.8539
 2266TIP3    H228290   1.455   2.256  14.348 -2.0443 -0.0372  2.6960
 2267TIP3   OH228291   5.380   6.599  17.193 -0.4904 -0.0165  0.2653
 2267TIP3    H128292   5.438   6.528  17.166 -1.4953 -0.6095 -0.3879
 2267TIP3    H228293   5.312   6.603  17.125 -0.7953  1.1744  0.5998
 2268TIP3   OH228294   1.114   3.693   3.561 -0.7200  0.2861 -0.2323
 2268TIP3    H128295   1.200   3.720   3.595 -0.8553  1.4859 -0.7886
 2268TIP3    H228296   1.135   3.651   3.477 -0.6009 -0.3438  0.1073
 2269TIP3   OH228297   6.501   2.275  13.469  0.1352  0.5334 -0.2659
 2269TIP3    H128298   6.566   2.343  13.484 -0.0907  0.6320  0.2747
 2269TIP3    H228299   6.478   2.244  13.556  1.3246 -1.2823 -0.5421
 2270TIP3   OH228300   4.787   4.729  16.749  0.4497  0.0646 -0.7066
 2270TIP3    H128301   4.746   4.659  16.801  2.1873  0.9946  2.1470
 2270TIP3    H228302   4.862   4.686  16.708  0.8504 -0.0236  0.0983
 2271TIP3   OH228303   6.279   1.397  12.871  0.9694 -0.3965 -0.6071
 2271TIP3    H128304   6.267   1.360  12.958  2.4707 -1.5734 -0.8635
 2271TIP3    H228305   6.196   1.378  12.826 -0.1102  0.8975  0.7468
 2272TIP3   OH228306   0.061   3.966  14.954  0.6869  0.2514  0.2840
 2272TIP3    H128307   0.043   4.022  15.030  0.0158 -0.2231  0.4815
 2272TIP3    H228308   0.115   4.021  14.897  0.8298  0.7699  0.9018
 2273TIP3   OH228309   5.590   4.737   2.704  0.2230 -0.2818  0.2805
 2273TIP3    H128310   5.564   4.828   2.724  1.2157  0.3640 -1.1925
 2273TIP3    H228311   5.534   4.713   2.630  0.6552 -0.4944  0.0189
 2274TIP3   OH228312   5.327   4.718  13.112 -0.0963  0.0280  0.4032
 2274TIP3    H128313   5.240   4.748  13.084  0.2364  0.5158 -0.1217
 2274TIP3    H228314   5.374   4.703  13.030  0.5531  0.4685  0.6947
 2275TIP3   OH228315   5.411   4.792   3.343 -0.0553 -0.6506 -0.1845
 2275TIP3    H128316   5.361   4.746   3.411 -0.3890 -0.3799 -0.2405
 2275TIP3    H228317   5.351   4.796   3.268  0.5802 -1.6186 -0.7707
 2276TIP3   OH228318   1.062   2.995   6.221 -0.2634 -0.2769  0.5702
 2276TIP3    H128319   1.118   2.963   6.150  0.0026 -1.3039  1.2166
 2276TIP3    H228320   1.031   2.916   6.264 -0.0057  0.3260  1.9073
 2277TIP3   OH228321   1.771   1.187   1.307 -0.2354  0.5759  0.1958
 2277TIP3    H128322   1.742   1.098   1.290 -0.0145  0.2105  1.5610
 2277TIP3    H228323   1.866   1.185   1.294 -0.1560  0.4600  0.7546
 2278TIP3   OH228324   5.045   4.555  12.054  0.1848 -0.0277  0.0065
 2278TIP3    H128325   5.123   4.501  12.067 -0.2774 -0.1645  2.6855
 2278TIP3    H228326   5.061   4.634  12.105 -0.6848  0.7625 -0.8924
 2279TIP3   OH228327   1.408   2.566   4.944 -0.4640  0.4347 -0.1710
 2279TIP3    H128328   1.360   2.503   4.999  0.1683 -0.0863 -0.1981
 2279TIP3    H228329   1.360   2.567   4.861 -1.5036  1.3278  0.4215
 2280TIP3   OH228330   5.909   6.773  17.056 -0.5710  0.1224 -0.1626
 2280TIP3    H128331   5.947   6.861  17.058  0.4053 -0.2600 -0.9090
 2280TIP3    H228332   5.815   6.787  17.049 -0.4150  1.1098 -0.3988
 2281TIP3   OH228333   2.502   4.106  11.181 -0.1791 -0.6338  0.6716
 2281TIP3    H128334   2.536   4.126  11.094 -0.1704 -0.5170  0.7024
 2281TIP3    H228335   2.565   4.042  11.217 -1.3096 -2.3290 -0.2198
 2282TIP3   OH228336   0.505   3.207  10.796 -0.0263  0.1772 -0.1233
 2282TIP3    H128337   0.537   3.145  10.861  0.7366 -0.0239 -0.6762
 2282TIP3    H228338   0.581   3.263  10.778 -0.4561  0.7139 -0.2703
 2283TIP3   OH228339   1.277   5.391   6.123  0.5469  0.2048  0.4736
 2283TIP3    H128340   1.292   5.343   6.042  0.1174  1.2939 -0.2707
 2283TIP3    H228341   1.357   5.376   6.175  0.3322 -1.4600  0.3645
 2284TIP3   OH228342   3.460   1.956  15.515  0.0705  0.2074  0.1122
 2284TIP3    H128343   3.430   2.044  15.538 -1.8864 -0.2906 -0.3279
 2284TIP3    H228344   3.442   1.903  15.592  1.0625  0.1282  0.3063
 2285TIP3   OH228345   0.348   4.524  10.527 -0.0178  0.0576 -0.4014
 2285TIP3    H128346   0.334   4.438  10.487  0.6272  0.1225 -0.8004
 2285TIP3    H228347   0.262   4.566  10.527 -0.2262 -0.3643 -0.7500
 2286TIP3   OH228348   6.506   2.107   2.271  0.2262  0.2821  0.5367
 2286TIP3    H128349   6.573   2.087   2.336 -0.9295 -0.2602  1.6090
 2286TIP3    H228350   6.447   2.032   2.274 -0.3886  0.7057 -0.4373
 2287TIP3   OH228351   4.032   1.766   5.404 -0.3186 -0.2784 -0.3517
 2287TIP3    H128352   4.076   1.847   5.381  1.9150 -1.3187  0.0172
 2287TIP3    H228353   3.944   1.775   5.367  0.5483  1.4232 -2.1516
 2288TIP3   OH228354   5.457   4.583  11.524  0.4090  0.5596  0.2000
 2288TIP3    H128355   5.466   4.521  11.451 -0.9282 -0.0625  0.5372
 2288TIP3    H228356   5.363   4.591  11.537  0.6179  1.0796  1.5132
 2289TIP3   OH228357   0.816   3.314  13.613 -0.3239 -0.5426  0.3330
 2289TIP3    H128358   0.894   3.284  13.565 -1.1236 -0.7570 -0.8852
 2289TIP3    H228359   0.801   3.245  13.678 -0.5039 -1.4177 -0.5970
 2290TIP3   OH228360   4.842   4.885  15.717  0.2204 -0.3996  0.4550
 2290TIP3    H128361   4.897   4.812  15.687 -1.6276 -0.7832 -2.4019
 2290TIP3    H228362   4.863   4.957  15.656  0.0860  0.6173  1.5690
 2291TIP3   OH228363   3.788   4.467   3.103  0.2604 -0.5331  0.0156
 2291TIP3    H128364   3.768   4.378   3.129  0.4930 -0.8725 -0.9351
 2291TIP3    H228365   3.779   4.468   3.007  1.8117  0.0356 -0.1607
 2292TIP3   OH228366   1.047   6.580   6.377 -0.0874  0.1205 -0.1784
 2292TIP3    H128367   1.003   6.663   6.398 -0.4955  0.0306 -0.6613
 2292TIP3    H228368   0.987   6.513   6.409  0.0164  0.0046 -0.2297
 2293TIP3   OH228369   5.046   6.155  12.407  0.7616  0.0485 -0.2619
 2293TIP3    H128370   5.033   6.231  12.463 -0.0623 -0.2177 -0.0788
 2293TIP3    H228371   5.101   6.096  12.459 -0.9037 -0.6824  0.7716
 2294TIP3   OH228372   3.436   1.618   0.297  0.5844  0.5322 -0.4502
 2294TIP3    H128373   3.500   1.598   0.365  1.1304 -0.6053 -1.2656
 2294TIP3    H228374   3.364   1.556   0.314  0.8062  0.1147 -1.0095
 2295TIP3   OH228375   0.946   5.313  15.646  0.2180 -0.2658  0.6771
 2295TIP3    H128376   0.965   5.406  15.637  0.2047 -0.2219  1.0849
 2295TIP3    H228377   0.958   5.277  15.558  0.9110 -0.0053  0.6589
 2296TIP3   OH228378   1.448   5.138   3.967  0.1994  0.3085  0.1081
 2296TIP3    H128379   1.436   5.218   3.915 -1.5870  0.9895  1.4881
 2296TIP3    H228380   1.440   5.167   4.058 -1.0120 -1.4953  0.6224
 2297TIP3   OH228381   0.817   4.373  11.525 -0.4084  0.4928  0.1662
 2297TIP3    H128382   0.842   4.338  11.611 -0.5667  0.1927  0.0907
 2297TIP3    H228383   0.865   4.319  11.463 -1.2874 -0.1435  0.0150
 2298TIP3   OH228384   4.429   6.749  11.391  0.1776  0.1448  0.0685
 2298TIP3    H128385   4.438   6.729  11.485  0.0722  0.2445  0.0985
 2298TIP3    H228386   4.347   6.796  11.384  1.0807  1.8084  0.1891
 2299TIP3   OH228387   6.096   5.788  12.182  0.4892 -0.7854 -0.1658
 2299TIP3    H128388   6.179   5.821  12.148 -0.3892  0.8047 -0.8794
 2299TIP3    H228389   6.037   5.789  12.106 -0.5116 -0.6784  0.5964
 2300TIP3   OH228390   0.877   1.984   2.057  0.3135 -0.1455  0.3620
 2300TIP3    H128391   0.953   1.975   2.114  0.4772 -0.0314  0.1634
 2300TIP3    H228392   0.813   1.921   2.092 -0.8931  2.1939  2.7577
 2301TIP3   OH228393   0.030   3.359  10.966 -0.0848 -0.1081  0.2123
 2301TIP3    H128394   0.122   3.364  10.940 -0.7805  1.5284 -2.2989
 2301TIP3    H228395   0.014   3.266  10.982  2.1039 -0.3634  1.2448
 2302TIP3   OH228396   0.635   1.437  10.654 -0.3013  0.0896 -0.1208
 2302TIP3    H128397   0.709   1.465  10.601 -0.8101 -1.2055 -1.6099
 2302TIP3    H228398   0.559   1.477  10.613 -0.4966  0.9800  1.0757
 2303TIP3   OH228399   3.336   5.266   2.597  0.2974 -0.4001 -0.0737
 2303TIP3    H128400   3.355   5.177   2.625 -0.7298 -0.9154 -0.9499
 2303TIP3    H228401   3.270   5.298   2.659  0.7589 -0.1875  0.3177
 2304TIP3   OH228402   6.588   4.469  15.662  0.3751  0.2621 -0.1368
 2304TIP3    H128403   6.534   4.536  15.704  0.1803  0.0906 -0.1113
 2304TIP3    H228404   6.662   4.518  15.626  1.8208  0.1214  2.4459
 2305TIP3   OH228405   1.617   1.772  15.422 -0.4297  0.1215  0.0922
 2305TIP3    H128406   1.695   1.718  15.434 -0.0954  0.4701 -0.4262
 2305TIP3    H228407   1.641   1.832  15.351 -1.3852 -0.1634 -0.4921
 2306TIP3   OH228408   5.777   4.674  14.743 -0.4175  0.3888  0.9709
 2306TIP3    H128409   5.818   4.759  14.728 -0.6357  0.4409  0.6572
 2306TIP3    H228410   5.685   4.694  14.756 -0.6661  0.1043 -0.2416
 2307TIP3   OH228411   2.696   6.237   1.098 -0.3166 -0.1086 -0.9397
 2307TIP3    H128412   2.651   6.320   1.083  0.5365  0.5043 -0.1903
 2307TIP3    H228413   2.625   6.173   1.106 -1.0557  0.7742 -0.1544
 2308TIP3   OH228414   3.041   1.901  11.395  0.2879 -0.0398  0.6445
 2308TIP3    H128415   3.065   1.909  11.302  0.3065  0.4265  0.6862
 2308TIP3    H228416   2.947   1.882  11.394  0.4735 -0.9858  0.5076
 2309TIP3   OH228417   3.773   1.278  14.474 -0.6195  1.1946  0.3531
 2309TIP3    H128418   3.739   1.299  14.561 -0.2086  1.1237  0.5342
 2309TIP3    H228419   3.695   1.252  14.424 -0.7054 -0.0291  1.0793
 2310TIP3   OH228420   3.889   1.585   5.628 -0.0700 -0.0189 -0.3753
 2310TIP3    H128421   3.804   1.562   5.667  0.1865 -0.4572 -0.0741
 2310TIP3    H228422   3.876   1.674   5.596 -0.8585 -0.3267 -0.9394
 2311TIP3   OH228423   1.768   0.987  12.678  0.0611 -0.7052 -0.8172
 2311TIP3    H128424   1.763   0.901  12.637 -0.0467 -0.4317 -1.4011
 2311TIP3    H228425   1.812   1.042  12.613  0.2540 -0.3519 -0.3954
 2312TIP3   OH228426   5.613   5.641   2.511  0.4897 -0.3170  0.3807
 2312TIP3    H128427   5.617   5.701   2.436  0.8999  0.5299  1.0663
 2312TIP3    H228428   5.645   5.558   2.476 -0.0416 -0.1354 -0.5737
 2313TIP3   OH228429   6.401   4.275  12.939 -0.4859  0.3104  0.2526
 2313TIP3    H128430   6.356   4.191  12.931 -0.6074  0.3517  0.4978
 2313TIP3    H228431   6.452   4.282  12.858  0.2293 -0.4122  0.6261
 2314TIP3   OH228432   6.382   1.044  13.421 -0.0261  0.3458  0.2078
 2314TIP3    H128433   6.408   1.022  13.332 -0.3710 -0.5998  0.3274
 2314TIP3    H228434   6.291   1.071  13.413  0.1654  0.9881  0.1722
 2315TIP3   OH228435   6.317   0.946   3.549 -0.7288  0.5104 -0.0401
 2315TIP3    H128436   6.330   1.006   3.475  1.6960 -0.2006 -0.3027
 2315TIP3    H228437   6.240   0.895   3.525  0.0330  0.2282 -2.2096
 2316TIP3   OH228438   5.267   2.686   4.204  0.8164 -0.0522  0.2891
 2316TIP3    H128439   5.307   2.623   4.145 -1.2972  0.0322 -1.3311
 2316TIP3    H228440   5.252   2.637   4.285 -0.1800 -1.4579 -0.7158
 2317TIP3   OH228441   1.363   1.173  11.098  0.5169 -0.0940 -0.1631
 2317TIP3    H128442   1.373   1.182  11.193  0.8002  0.6564 -0.2506
 2317TIP3    H228443   1.452   1.158  11.066  0.3013 -1.3222 -0.2296
 2318TIP3   OH228444   5.812   5.997   3.469  0.4298  0.0980 -0.4650
 2318TIP3    H128445   5.722   5.970   3.489  0.6890  0.7509  1.9195
 2318TIP3    H228446   5.824   6.079   3.518  2.7132 -0.6258  0.3290
 2319TIP3   OH228447   3.517   2.491   3.087  0.5351 -0.0579 -0.2451
 2319TIP3    H128448   3.597   2.529   3.124 -0.2919 -0.0587  1.6664
 2319TIP3    H228449   3.448   2.518   3.147 -0.7023 -1.2027 -1.0972
 2320TIP3   OH228450   1.254   3.527   2.984  0.1207 -0.1255 -0.3156
 2320TIP3    H128451   1.202   3.589   2.932 -0.5230  1.7211  2.3128
 2320TIP3    H228452   1.189   3.468   3.022  0.4578 -0.7194 -0.6510
 2321TIP3   OH228453   3.230   6.124   6.095  0.2960  0.2946 -0.5288
 2321TIP3    H128454   3.205   6.216   6.090 -0.3948  0.1756  0.4144
 2321TIP3    H228455   3.151   6.080   6.128  0.9509 -0.4727  0.0438
 2322TIP3   OH228456   4.463   3.333   5.954 -0.3715 -0.7548  0.2191
 2322TIP3    H128457   4.476   3.263   6.018  1.5113  0.3926  1.1990
 2322TIP3    H228458   4.450   3.288   5.871  3.3856 -2.3866  0.3020
 2323TIP3   OH228459   3.925   2.161  16.727 -0.0467 -0.1463  0.0938
 2323TIP3    H128460   3.901   2.177  16.819  0.7194  0.8415  0.1295
 2323TIP3    H228461   4.007   2.209  16.714  0.0306 -0.5501 -1.0180
 2324TIP3   OH228462   6.636   2.643  13.997 -0.2351 -0.3288 -0.2753
 2324TIP3    H128463   6.628   2.714  13.934  1.0621 -0.4677 -0.6181
 2324TIP3    H228464   6.546   2.612  14.010 -1.1201  2.5954  1.3642
 2325TIP3   OH228465   0.678   1.344   3.748 -0.3518 -0.1379 -0.2993
 2325TIP3    H128466   0.734   1.307   3.681 -1.6497  0.7350 -1.9385
 2325TIP3    H228467   0.590   1.343   3.710 -0.7803  2.5863  0.3992
 2326TIP3   OH228468   4.299   3.507   2.384 -0.5125 -0.1732 -0.4542
 2326TIP3    H128469   4.233   3.475   2.445 -0.9412  1.8829  0.2416
 2326TIP3    H228470   4.383   3.488   2.427 -0.8114  2.7014  1.7237
 2327TIP3   OH228471   2.498   3.841   3.315 -0.5158  0.1549 -0.1545
 2327TIP3    H128472   2.509   3.757   3.359  0.1898 -0.4098 -1.3682
 2327TIP3    H228473   2.559   3.838   3.242 -0.3027  1.8396 -0.0770
 2328TIP3   OH228474   5.572   4.302  14.451  0.2565  0.7334 -0.1678
 2328TIP3    H128475   5.502   4.290  14.515 -2.0036  0.0875 -2.5569
 2328TIP3    H228476   5.529   4.344  14.376  2.5141  0.5784 -1.6621
 2329TIP3   OH228477   1.361   0.286  13.556  0.3388 -0.2371 -0.5052
 2329TIP3    H128478   1.386   0.363  13.608  0.1749 -2.0932  2.6004
 2329TIP3    H228479   1.417   0.216  13.588 -1.7841 -2.1743 -0.7363
 2330TIP3   OH228480   6.801   3.161  16.363  0.1706  0.0728 -0.0710
 2330TIP3    H128481   6.782   3.083  16.416 -1.8879  0.7490  0.2912
 2330TIP3    H228482   6.724   3.170  16.307  0.9122  1.1976 -0.9412
 2331TIP3   OH228483   0.036   3.813  11.421  0.1249 -0.2289 -0.6826
 2331TIP3    H128484   0.072   3.770  11.343  2.2954 -0.4485  0.3849
 2331TIP3    H228485   0.068   3.762  11.494 -2.0174 -0.1163  0.4087
 2332TIP3   OH228486   5.166   0.960   5.973 -0.2745 -0.4690 -0.2498
 2332TIP3    H128487   5.201   0.904   5.904  1.8538 -1.3047  1.3845
 2332TIP3    H228488   5.209   1.044   5.959 -1.4330  0.0138 -1.1104
 2333TIP3   OH228489   6.374   2.381  17.242 -0.1423  0.8505 -0.2068
 2333TIP3    H128490   6.338   2.296  17.215  2.3193 -0.3425 -0.0192
 2333TIP3    H228491   6.306   2.418  17.298 -1.0752 -1.2848  0.1988
 2334TIP3   OH228492   2.092   0.064  15.438 -0.2475  0.0268  0.1976
 2334TIP3    H128493   1.998   0.050  15.426  0.0764 -1.7632 -0.6253
 2334TIP3    H228494   2.109   0.149  15.399 -1.3863 -0.0411 -0.4988
 2335TIP3   OH228495   1.719   0.142   4.756  0.0665  0.9964  0.1685
 2335TIP3    H128496   1.791   0.092   4.717  0.0322  1.2535 -0.2379
 2335TIP3    H228497   1.742   0.152   4.848 -0.2071 -0.2683  0.3891
 2336TIP3   OH228498   5.310   3.541  11.889 -0.0308  0.3271  0.1283
 2336TIP3    H128499   5.384   3.592  11.923 -1.1749  2.1181  0.0909
 2336TIP3    H228500   5.236   3.567  11.945 -0.5895 -1.7005  0.4081
 2337TIP3   OH228501   2.559   1.318   3.407 -0.6657  0.3597 -0.4664
 2337TIP3    H128502   2.596   1.290   3.323 -1.3548 -0.2177 -0.5916
 2337TIP3    H228503   2.531   1.237   3.448 -0.4867  0.6597  0.2578
 2338TIP3   OH228504   2.937   3.737   0.563 -0.3234  0.5872  0.0623
 2338TIP3    H128505   3.030   3.762   0.567 -0.3620  0.5851  1.5373
 2338TIP3    H228506   2.899   3.775   0.643 -0.8382 -2.3318  1.3368
 2339TIP3   OH228507   1.810   4.769  11.054 -0.8413  0.0633 -0.3555
 2339TIP3    H128508   1.863   4.791  10.978 -1.1028  1.0575 -0.2696
 2339TIP3    H228509   1.721   4.763  11.021 -0.6949 -1.7113 -0.5192
 2340TIP3   OH228510   1.576   2.162  13.786  0.1859 -0.7114 -0.3742
 2340TIP3    H128511   1.590   2.189  13.695  1.7207 -1.1622 -0.2959
 2340TIP3    H228512   1.661   2.174  13.828 -0.4901 -0.5489  1.0069
 2341TIP3   OH228513   5.191   3.507  14.086 -0.0562  0.0459  0.0249
 2341TIP3    H128514   5.266   3.550  14.126 -0.9539 -0.7393  2.7507
 2341TIP3    H228515   5.118   3.567  14.101 -0.4679 -0.4014 -0.1774
 2342TIP3   OH228516   0.745   0.821  12.402 -0.1271 -0.4576 -0.2543
 2342TIP3    H128517   0.664   0.855  12.365 -0.2554  0.0808  0.5149
 2342TIP3    H228518   0.732   0.726  12.406 -0.5116 -0.4217 -0.6183
 2343TIP3   OH228519   6.192   2.874   4.783 -0.0458  0.1511  0.0631
 2343TIP3    H128520   6.254   2.805   4.807  0.6451  0.9036  0.4691
 2343TIP3    H228521   6.202   2.941   4.850  0.5877  1.4583 -1.2784
 2344TIP3   OH228522   1.827   2.504  17.134 -0.3804  0.3690 -0.2018
 2344TIP3    H128523   1.833   2.482  17.227 -1.3999  1.3921  0.1305
 2344TIP3    H228524   1.846   2.422  17.089  1.0437  0.0803  0.8778
 2345TIP3   OH228525   5.477   2.642  14.117  0.0664  0.3347 -0.2387
 2345TIP3    H128526   5.538   2.642  14.043  0.1258  0.5689 -0.1900
 2345TIP3    H228527   5.458   2.550  14.133  2.7447  0.0354  1.7085
 2346TIP3   OH228528   2.655   6.810   0.220 -0.3113  0.9444  0.2416
 2346TIP3    H128529   2.677   6.903   0.217  0.0765  0.8378 -0.2075
 2346TIP3    H228530   2.599   6.801   0.298 -0.9820  1.6844 -0.1433
 2347TIP3   OH228531   3.898   0.775   0.976  0.3510  0.1170 -0.1691
 2347TIP3    H128532   3.884   0.862   0.940  0.7852  0.4071  0.3580
 2347TIP3    H228533   3.863   0.716   0.909  1.1663  0.6403 -1.0693
 2348TIP3   OH228534   1.084   2.677   3.288 -0.1337 -0.1377  0.5676
 2348TIP3    H128535   1.122   2.591   3.306  0.5987 -0.2708 -1.3698
 2348TIP3    H228536   1.147   2.739   3.325 -0.0409 -0.3992  0.8611
 2349TIP3   OH228537   0.031   2.911  15.316  0.1341 -0.7385 -0.7563
 2349TIP3    H128538  -0.059   2.943  15.311 -0.2156 -1.8460 -2.5339
 2349TIP3    H228539   0.032   2.853  15.391 -0.8214 -1.1872 -1.0755
 2350TIP3   OH228540   5.433   3.783  13.675 -0.2992  0.2027 -0.0789
 2350TIP3    H128541   5.349   3.746  13.702  0.4649 -0.9200  0.8829
 2350TIP3    H228542   5.494   3.755  13.743  1.3846 -1.2008 -2.0481
 2351TIP3   OH228543   3.819   2.171  17.065  0.1415  0.3011  0.7149
 2351TIP3    H128544   3.785   2.260  17.056 -0.6723 -0.0054  0.6740
 2351TIP3    H228545   3.801   2.147  17.156  0.6806  0.3002  0.8251
 2352TIP3   OH228546   2.795   6.462   3.096 -0.2382  0.4305 -0.2904
 2352TIP3    H128547   2.770   6.536   3.041 -0.7314  0.1656 -0.4262
 2352TIP3    H228548   2.722   6.452   3.157 -1.4832 -1.6395 -1.9935
 2353TIP3   OH228549   4.893   4.383   3.899  0.2736 -0.1483  0.0200
 2353TIP3    H128550   4.834   4.450   3.934  0.8049  0.3757 -0.0568
 2353TIP3    H228551   4.897   4.316   3.967  0.5984  0.4344  0.5861
 2354TIP3   OH228552   6.125   4.600  14.304 -0.6193  0.2544  0.0324
 2354TIP3    H128553   6.134   4.595  14.400  0.4717  0.4298 -0.0466
 2354TIP3    H228554   6.093   4.688  14.288 -0.4976  0.3337  0.2171
 2355TIP3   OH228555   4.618   6.763   4.866  0.1065 -0.5630 -0.8098
 2355TIP3    H128556   4.617   6.678   4.821  0.5592 -2.3929  2.3149
 2355TIP3    H228557   4.704   6.768   4.907 -0.1813  1.1081 -0.3376
 2356TIP3   OH228558   4.579   4.520   4.909  0.4559  0.2542  0.5294
 2356TIP3    H128559   4.591   4.598   4.854 -1.0753 -0.1249 -0.3760
 2356TIP3    H228560   4.486   4.519   4.930  0.6982 -0.6174  1.6431
 2357TIP3   OH228561   5.419   3.408  14.701  0.1172  0.5633  0.4482
 2357TIP3    H128562   5.331   3.432  14.731  0.2787  0.1034  1.3301
 2357TIP3    H228563   5.407   3.380  14.610 -0.6171  0.6598  0.5084
 2358TIP3   OH228564   4.653   0.001  16.936 -0.3874 -0.0586  0.0589
 2358TIP3    H128565   4.613   0.065  16.878  0.0857 -0.9193 -1.2723
 2358TIP3    H228566   4.695   0.053  17.004 -2.4114  0.9102  0.6232
 2359TIP3   OH228567   1.482   3.881   4.182  0.1977 -0.3198 -0.2791
 2359TIP3    H128568   1.572   3.895   4.211  0.6465 -1.1736 -1.1836
 2359TIP3    H228569   1.452   3.806   4.234 -0.5727  0.9337  1.1700
 2360TIP3   OH228570   3.630   1.076   5.483  0.1035 -0.3063  0.5050
 2360TIP3    H128571   3.590   1.088   5.397  1.4355  0.2560 -0.0586
 2360TIP3    H228572   3.557   1.050   5.540 -0.5532 -2.3044 -1.1044
 2361TIP3   OH228573   4.238   5.326  16.440 -0.5674 -0.4701  0.0319
 2361TIP3    H128574   4.225   5.379  16.519 -0.7349  0.7534 -0.7798
 2361TIP3    H228575   4.163   5.268  16.436  1.4346 -3.6089  3.0022
 2362TIP3   OH228576   1.346   5.405  15.932  1.1399  0.2495  0.6667
 2362TIP3    H128577   1.349   5.411  16.028  0.3460  1.2701  0.6467
 2362TIP3    H228578   1.271   5.349  15.914  1.8233 -0.6775  0.6451
 2363TIP3   OH228579   0.783   5.140   4.434  0.0449  0.1513 -0.0273
 2363TIP3    H128580   0.709   5.094   4.394  1.0689  0.4903 -2.4799
 2363TIP3    H228581   0.753   5.230   4.445  0.0007  0.2344 -0.7956
 2364TIP3   OH228582   3.705   3.419  13.972  0.3471 -0.1985  0.0812
 2364TIP3    H128583   3.659   3.392  14.052 -0.5641  1.6624  0.2421
 2364TIP3    H228584   3.645   3.479  13.929  2.2385  1.6652 -0.1493
 2365TIP3   OH228585   5.788   0.877   2.788  0.5307  1.0273 -0.1502
 2365TIP3    H128586   5.797   0.838   2.875 -0.4316  0.7822 -0.1473
 2365TIP3    H228587   5.873   0.917   2.771  0.6048  1.4355  1.0671
 2366TIP3   OH228588   2.063   2.970   4.136 -0.0351  0.4070  0.6404
 2366TIP3    H128589   1.970   2.975   4.115 -0.0380 -0.8017  0.3363
 2366TIP3    H228590   2.093   3.061   4.132 -0.5976  0.5614 -2.0698
 2367TIP3   OH228591   0.628   0.041   4.182  0.1107 -0.5037 -0.0430
 2367TIP3    H128592   0.588   0.049   4.096 -1.7945 -0.0688  0.8274
 2367TIP3    H228593   0.611  -0.049   4.210 -1.2639 -0.0229  0.7633
 2368TIP3   OH228594   2.178   3.664  16.676  0.6265 -0.2224  0.1800
 2368TIP3    H128595   2.152   3.680  16.586  1.3319  1.9178  0.2905
 2368TIP3    H228596   2.272   3.686  16.679  0.0851  2.4376  1.9063
 2369TIP3   OH228597   3.539   2.530   4.797  0.2963  0.2356 -0.0856
 2369TIP3    H128598   3.576   2.446   4.770 -0.2096  0.1010 -0.3847
 2369TIP3    H228599   3.521   2.519   4.890 -1.7301 -0.7739 -0.5245
 2370TIP3   OH228600   2.263   2.678  15.286 -0.3135  0.3315  0.1061
 2370TIP3    H128601   2.182   2.632  15.310 -1.1934  2.0775  0.6109
 2370TIP3    H228602   2.240   2.771  15.290  2.2106  0.9958  2.2757
 2371TIP3   OH228603   2.265   1.828   1.009  0.0722 -0.0338 -0.8525
 2371TIP3    H128604   2.262   1.840   1.104  0.6760  2.5059 -1.0928
 2371TIP3    H228605   2.187   1.776   0.989 -0.8637  0.6115  0.8684
 2372TIP3   OH228606   1.042   2.567   1.510 -0.1675  0.3074 -0.1757
 2372TIP3    H128607   0.976   2.515   1.556 -0.9202  1.1348 -0.3078
 2372TIP3    H228608   1.022   2.657   1.533  1.3644  0.5476  0.3652
 2373TIP3   OH228609   6.679   0.495  13.044 -0.3125 -0.1506  0.3143
 2373TIP3    H128610   6.702   0.461  13.131  1.3785  2.2576  0.9113
 2373TIP3    H228611   6.594   0.456  13.025 -1.2031 -0.0726  3.4881
 2374TIP3   OH228612   2.751   2.864  15.188  0.0444  0.3251  0.5071
 2374TIP3    H128613   2.672   2.917  15.174  0.7547  1.2506 -0.0919
 2374TIP3    H228614   2.798   2.868  15.105 -0.1237 -1.6971  0.2632
 2375TIP3   OH228615   5.118   2.826   5.567  0.0157 -0.5333 -1.0051
 2375TIP3    H128616   5.067   2.746   5.561 -0.8393 -0.2927  1.6500
 2375TIP3    H228617   5.122   2.845   5.661  1.9814  1.4041 -1.3935
 2376TIP3   OH228618   1.689   6.577  11.597 -0.1140 -0.4960  0.1329
 2376TIP3    H128619   1.771   6.549  11.637 -0.7831 -1.0910  1.1176
 2376TIP3    H228620   1.628   6.586  11.670 -0.8640  0.2012 -0.5563
 2377TIP3   OH228621   3.644   1.718  14.626 -0.2517 -0.7748  0.6334
 2377TIP3    H128622   3.566   1.673  14.659 -0.0604 -0.2186  1.8975
 2377TIP3    H228623   3.717   1.677  14.674  0.0985 -0.3882  0.4343
 2378TIP3   OH228624   5.208   3.853  16.138  0.2104 -0.2694 -0.6287
 2378TIP3    H128625   5.135   3.825  16.194  0.6757  0.9843  0.6741
 2378TIP3    H228626   5.251   3.771  16.112 -0.3420 -0.9205  0.4105
 2379TIP3   OH228627   0.225   3.200   5.705  0.2481  0.0466 -0.3619
 2379TIP3    H128628   0.276   3.137   5.757  1.9077  2.2021  0.8097
 2379TIP3    H228629   0.253   3.185   5.615  3.7636  1.6070  0.2862
 2380TIP3   OH228630   5.446   6.147   4.274  0.2006  0.3677  0.6444
 2380TIP3    H128631   5.431   6.057   4.244 -0.6304 -0.0668  2.2455
 2380TIP3    H228632   5.487   6.191   4.199  1.2118 -1.5060  0.0229
 2381TIP3   OH228633   3.733   2.203  11.629 -0.8621 -0.2230 -0.3258
 2381TIP3    H128634   3.695   2.135  11.685 -0.6100 -1.1553 -1.2615
 2381TIP3    H228635   3.749   2.159  11.546 -1.3422  1.1749 -1.1805
 2382TIP3   OH228636   0.588   1.510   1.519 -0.2139 -0.1509  0.0317
 2382TIP3    H128637   0.663   1.523   1.578 -0.2089  0.5294 -0.1192
 2382TIP3    H228638   0.512   1.536   1.571 -0.0748  1.8552 -0.7169
 2383TIP3   OH228639   4.150   5.499  14.882  0.0845  0.6850 -0.5388
 2383TIP3    H128640   4.171   5.586  14.846 -0.1751  1.1238  0.3303
 2383TIP3    H228641   4.226   5.477  14.936  0.8195 -0.3178 -1.9041
 2384TIP3   OH228642   0.053   1.890   3.962 -0.3308  0.3941  0.6138
 2384TIP3    H128643   0.119   1.911   4.027 -0.0873  1.6117  0.0008
 2384TIP3    H228644  -0.006   1.966   3.962  0.9054  1.5158 -2.0866
 2385TIP3   OH228645   0.202   0.198  12.896 -0.4320  0.3697 -0.3647
 2385TIP3    H128646   0.120   0.165  12.930 -2.4688  3.6704 -1.5725
 2385TIP3    H228647   0.255   0.217  12.973 -0.3331 -2.6030  0.4038
 2386TIP3   OH228648   1.042   5.162  12.209  0.2856 -0.2784  0.2347
 2386TIP3    H128649   1.071   5.244  12.170 -0.3953 -0.2304 -0.1817
 2386TIP3    H228650   1.122   5.123  12.245  0.2888  1.6227  2.4885
 2387TIP3   OH228651   4.779   5.642   1.132  0.4023 -0.0984 -1.7138
 2387TIP3    H128652   4.705   5.654   1.072 -0.9162  0.2320 -0.0988
 2387TIP3    H228653   4.748   5.577   1.195  0.0920  2.4938  1.0268
 2388TIP3   OH228654   4.692   2.969   5.081  0.0419  0.2807 -0.5054
 2388TIP3    H128655   4.718   2.914   5.007 -0.5535 -0.0849 -0.4456
 2388TIP3    H228656   4.597   2.963   5.084  0.1226 -1.9223  1.9212
 2389TIP3   OH228657   5.416   5.426  16.967  0.5261  0.7683  0.2696
 2389TIP3    H128658   5.454   5.485  16.903 -1.0147 -1.0192 -2.5127
 2389TIP3    H228659   5.420   5.340  16.925 -0.4152 -0.5651  2.6976
 2390TIP3   OH228660   4.983   6.673  17.237  0.2959  0.1186  0.5293
 2390TIP3    H128661   4.943   6.612  17.299 -2.4752  2.2820  1.1054
 2390TIP3    H228662   5.006   6.749  17.291  0.8348  0.7837 -0.6087
 2391TIP3   OH228663   0.172   6.806  17.193  0.1125  0.7721  0.1159
 2391TIP3    H128664   0.086   6.763  17.191  1.0430 -1.4027  1.9616
 2391TIP3    H228665   0.163   6.875  17.259 -0.1821  0.4398  0.4273
 2392TIP3   OH228666   1.491   5.026   5.615 -0.1525  0.1231 -0.2059
 2392TIP3    H128667   1.584   5.011   5.634 -0.0729  0.9786  0.1177
 2392TIP3    H228668   1.475   4.977   5.534  0.6909  0.3083 -0.4979
 2393TIP3   OH228669   5.035   4.352   1.853 -0.4301 -0.6916  0.4060
 2393TIP3    H128670   5.045   4.434   1.804  0.1421 -0.4045  0.9896
 2393TIP3    H228671   4.953   4.363   1.901  0.6740  0.4441  2.1360
 2394TIP3   OH228672   2.226   0.374  16.877  0.1210 -0.2933 -0.4354
 2394TIP3    H128673   2.202   0.465  16.889  0.7409 -0.2772  0.7706
 2394TIP3    H228674   2.143   0.327  16.876 -0.2269  0.3156 -1.5045
 2395TIP3   OH228675   1.342   1.524  11.217 -0.1769  0.4637  0.2146
 2395TIP3    H128676   1.396   1.531  11.138 -1.1253  1.7390 -0.3554
 2395TIP3    H228677   1.402   1.493  11.284  0.8167  0.0252 -0.8352
 2396TIP3   OH228678   2.173   6.336   5.690 -0.1895 -0.0560  0.1742
 2396TIP3    H128679   2.142   6.259   5.642  0.2814 -0.6325  0.7720
 2396TIP3    H228680   2.093   6.377   5.723 -0.5321  0.4269 -1.1795
 2397TIP3   OH228681   5.086   3.043  11.262  0.3001  0.8284  0.0693
 2397TIP3    H128682   5.083   2.948  11.248 -1.2098  0.7651  0.7312
 2397TIP3    H228683   5.087   3.054  11.357 -2.3007  1.4921  0.0922
 2398TIP3   OH228684   2.342   0.085   3.659 -0.1630  0.0434  0.1426
 2398TIP3    H128685   2.407   0.063   3.725  0.6099  0.6086 -0.4156
 2398TIP3    H228686   2.262   0.043   3.689  0.5140 -0.8663  0.7132
 2399TIP3   OH228687   4.380   1.025   3.362 -0.2082  0.0903 -0.6792
 2399TIP3    H128688   4.439   0.976   3.306 -1.1914 -0.2729 -1.4236
 2399TIP3    H228689   4.354   0.963   3.430  1.4198  0.6915  0.5524
 2400TIP3   OH228690   5.491   4.123  16.817 -0.5168 -0.0098  0.4262
 2400TIP3    H128691   5.496   4.136  16.722  1.3434  0.5891  0.5546
 2400TIP3    H228692   5.447   4.039  16.827 -2.1858  0.6528 -0.8926
 2401TIP3   OH228693   4.185   0.412  11.586 -0.4260  0.6502  0.7613
 2401TIP3    H128694   4.207   0.319  11.575 -2.0407  0.2651  0.5229
 2401TIP3    H228695   4.145   0.417  11.672  0.8945  1.4138  1.3687
 2402TIP3   OH228696   5.276   6.576   2.920 -0.6060 -0.5831 -0.1245
 2402TIP3    H128697   5.219   6.501   2.899 -1.6988  0.4999 -1.2222
 2402TIP3    H228698   5.217   6.651   2.918  1.0350  0.7666 -2.4620
 2403TIP3   OH228699   4.411   4.365  12.742  0.6909 -0.0974 -0.0971
 2403TIP3    H128700   4.430   4.383  12.650  1.8609 -0.6309  0.0215
 2403TIP3    H228701   4.435   4.273  12.754  2.4955  0.4785  1.1834
 2404TIP3   OH228702   6.648   2.803   2.997  0.2751 -0.3173  0.1081
 2404TIP3    H128703   6.668   2.786   2.906  1.3795 -0.4174  0.3600
 2404TIP3    H228704   6.731   2.790   3.043 -0.5771 -1.8063  1.3437
 2405TIP3   OH228705   5.472   1.411  15.256 -0.3266 -0.3362 -0.7402
 2405TIP3    H128706   5.493   1.334  15.309  0.6155 -0.3573 -1.1301
 2405TIP3    H228707   5.510   1.485  15.304 -1.2961 -0.0915 -0.3260
 2406TIP3   OH228708   4.396   5.137  15.030 -0.0821 -0.2633 -0.0899
 2406TIP3    H128709   4.438   5.112  14.948  0.7439  2.7766 -0.7293
 2406TIP3    H228710   4.392   5.233  15.026 -5.1037 -0.1658  0.9142
 2407TIP3   OH228711   6.134   1.840  16.763 -0.2835 -0.0644 -0.1109
 2407TIP3    H128712   6.177   1.896  16.827  1.4955 -0.4741 -0.9067
 2407TIP3    H228713   6.089   1.774  16.816  2.5114 -1.3999  0.7965
 2408TIP3   OH228714   6.144   1.305   3.468  0.2207 -0.2734 -0.0170
 2408TIP3    H128715   6.198   1.274   3.541 -0.8666 -0.9661  0.5013
 2408TIP3    H228716   6.056   1.312   3.504  0.1019  1.8019 -0.5744
 2409TIP3   OH228717   5.377   3.155  13.329 -0.0726  0.0123 -0.5113
 2409TIP3    H128718   5.336   3.102  13.398  2.9866 -1.1502  0.5682
 2409TIP3    H228719   5.382   3.097  13.254 -0.4459  0.1889 -0.6763
 2410TIP3   OH228720   6.220   6.467   2.458  0.4708  0.2852  0.2055
 2410TIP3    H128721   6.255   6.546   2.499  2.6956  0.0329 -1.0168
 2410TIP3    H228722   6.292   6.403   2.465 -0.4849 -0.9342 -0.7117
 2411TIP3   OH228723   1.637   4.208   4.040 -0.3482 -0.0942  0.1220
 2411TIP3    H128724   1.696   4.206   3.965 -1.4193  0.4423 -0.7638
 2411TIP3    H228725   1.550   4.216   4.002 -0.9432 -0.1568  1.4191
 2412TIP3   OH228726   2.177   0.858  11.450  0.4525  0.2525 -0.7713
 2412TIP3    H128727   2.084   0.855  11.426  0.3397 -0.6183 -0.2564
 2412TIP3    H228728   2.220   0.801  11.388  1.0233  2.4268 -2.4988
 2413TIP3   OH228729   0.228   4.768  17.132  0.3923  0.8102 -0.0874
 2413TIP3    H128730   0.244   4.693  17.074  1.0267  1.1610 -0.3811
 2413TIP3    H228731   0.310   4.818  17.129  0.9032  0.2258  2.0516
 2414TIP3   OH228732   2.720   4.082   2.611 -0.2562  0.0625  0.0668
 2414TIP3    H128733   2.665   4.024   2.664  0.2350 -0.4492  0.0268
 2414TIP3    H228734   2.802   4.033   2.599 -0.3273  0.1972 -1.0873
 2415TIP3   OH228735   3.344   2.920  14.884  0.0051  0.0962  0.0047
 2415TIP3    H128736   3.344   2.826  14.868 -1.4937  0.1007 -0.1743
 2415TIP3    H228737   3.352   2.959  14.797  2.6110  0.1881  0.2069
 2416TIP3   OH228738   4.338   0.786   4.546  0.0341  0.1433 -0.4199
 2416TIP3    H128739   4.357   0.694   4.563 -1.0640 -0.2566 -1.1993
 2416TIP3    H228740   4.300   0.819   4.628 -0.7356 -0.4550 -0.5186
 2417TIP3   OH228741   1.389   4.131   4.981  0.6827  0.3573 -0.0827
 2417TIP3    H128742   1.308   4.101   5.023  0.2559  1.7036  0.0908
 2417TIP3    H228743   1.458   4.112   5.045  0.8738 -2.7374 -1.0499
 2418TIP3   OH228744   3.124   6.354   0.789  0.2791  0.3594 -0.1897
 2418TIP3    H128745   3.077   6.344   0.872 -0.8461  1.7849 -0.6146
 2418TIP3    H228746   3.072   6.417   0.740  0.6954 -0.7571 -2.1614
 2419TIP3   OH228747   0.309   6.159   5.810 -0.9493 -0.2716  0.3548
 2419TIP3    H128748   0.368   6.234   5.805  0.1807 -1.1982 -1.4097
 2419TIP3    H228749   0.352   6.099   5.872 -0.3891 -0.6325 -0.3697
 2420TIP3   OH228750   1.639   2.684   2.490 -0.6408 -0.3817 -0.3644
 2420TIP3    H128751   1.591   2.762   2.518 -0.4491 -0.6712  0.8308
 2420TIP3    H228752   1.731   2.710   2.493 -0.5828 -0.6115 -0.0680
 2421TIP3   OH228753   5.439   1.176   3.995 -0.5077  0.0087  0.1186
 2421TIP3    H128754   5.496   1.176   3.918 -0.4367 -1.2523  0.1399
 2421TIP3    H228755   5.391   1.258   3.990  0.4286  0.5383 -0.5640
 2422TIP3   OH228756   3.652   1.843  16.974  0.2609  0.0332 -0.4649
 2422TIP3    H128757   3.607   1.761  16.996  1.1112 -0.5263 -0.7412
 2422TIP3    H228758   3.582   1.903  16.949 -0.2852 -1.0194 -1.5799
 2423TIP3   OH228759   6.348   3.738   4.877 -0.0424 -0.2764  0.1853
 2423TIP3    H128760   6.264   3.765   4.914  0.0940  0.0261  0.2788
 2423TIP3    H228761   6.366   3.652   4.916 -1.1632 -1.1788 -1.1960
 2424TIP3   OH228762   6.414   4.102  15.610 -0.1164  0.1789 -0.9240
 2424TIP3    H128763   6.506   4.088  15.635 -0.1077  2.1879  0.3496
 2424TIP3    H228764   6.366   4.038  15.663  0.5016 -0.5994 -1.2814
 2425TIP3   OH228765   1.948   1.930   2.832  0.1192 -0.3296 -0.2964
 2425TIP3    H128766   2.031   1.914   2.877 -1.1823  0.7696  2.7911
 2425TIP3    H228767   1.893   1.973   2.898 -2.1269  1.1721 -2.9425
 2426TIP3   OH228768   4.220   6.436  16.432 -0.3491  0.3096  0.1472
 2426TIP3    H128769   4.259   6.366  16.379 -1.1799  0.3558 -0.5528
 2426TIP3    H228770   4.132   6.404  16.452  0.2683 -0.1851  2.4352
 2427TIP3   OH228771   4.247   0.262  16.096 -0.0589  0.6180  0.1896
 2427TIP3    H128772   4.155   0.239  16.083  0.1806  0.1357 -0.8008
 2427TIP3    H228773   4.294   0.211  16.029  1.4214 -2.4462  3.2622
 2428TIP3   OH228774   0.168   0.400   5.653  0.4189  0.2895  1.0110
 2428TIP3    H128775   0.250   0.448   5.665  0.1245  0.7569  1.1999
 2428TIP3    H228776   0.106   0.445   5.710  0.2004 -0.4934  1.4073
 2429TIP3   OH228777   3.634   4.393   2.281 -0.3110 -0.2013 -0.3942
 2429TIP3    H128778   3.629   4.298   2.287 -3.4300 -0.1163  0.0790
 2429TIP3    H228779   3.704   4.417   2.341 -0.0594 -2.1480  0.1647
 2430TIP3   OH228780   3.883   5.986   4.279  0.0233  0.0519  0.8173
 2430TIP3    H128781   3.794   5.998   4.245 -0.4649  0.2940  2.1172
 2430TIP3    H228782   3.939   5.997   4.203 -0.9832  1.1719  0.1933
 2431TIP3   OH228783   5.783   1.345   1.622 -0.1028  0.2015 -0.3628
 2431TIP3    H128784   5.708   1.351   1.681  0.8583 -0.7057  1.0084
 2431TIP3    H228785   5.767   1.413   1.556 -1.2034  1.2614  0.9393
 2432TIP3   OH228786   1.423   1.416   3.548  0.0457 -0.4255 -0.4973
 2432TIP3    H128787   1.461   1.329   3.560 -0.0341 -0.7094 -2.0877
 2432TIP3    H228788   1.497   1.471   3.521 -0.2212 -0.4518 -1.3296
 2433TIP3   OH228789   0.668   5.935   0.803 -0.2692  0.0553  0.6701
 2433TIP3    H128790   0.707   6.022   0.789  2.0733 -0.8909  0.8613
 2433TIP3    H228791   0.574   5.951   0.800  0.0760  2.4381 -0.3172
 2434TIP3   OH228792   3.710   3.074  13.604 -0.9225 -0.3376  0.1536
 2434TIP3    H128793   3.734   3.029  13.685  0.8122  1.6994  0.8669
 2434TIP3    H228794   3.781   3.053  13.544 -0.8921  0.2072 -0.0008
 2435TIP3   OH228795   0.556   4.809  15.755  0.3764 -0.2988  0.7519
 2435TIP3    H128796   0.602   4.777  15.677  1.0682  0.5063  0.8266
 2435TIP3    H228797   0.625   4.838  15.814 -0.1824 -0.0880  1.3139
 2436TIP3   OH228798   1.357   0.981   0.712  0.1840 -0.2637  0.0259
 2436TIP3    H128799   1.330   1.051   0.772 -0.1439 -0.5865  0.2636
 2436TIP3    H228800   1.356   1.022   0.626  1.1168  0.3310  0.2879
 2437TIP3   OH228801   3.813   5.106  14.309 -0.2281  0.2469  0.0554
 2437TIP3    H128802   3.880   5.142  14.368  0.2775  0.0336 -0.3802
 2437TIP3    H228803   3.834   5.013  14.304  0.3855  0.4447 -1.3004
 2438TIP3   OH228804   1.175   6.364  16.067 -0.7465  0.2744  0.3867
 2438TIP3    H128805   1.216   6.289  16.109  0.5508  1.1051  0.6755
 2438TIP3    H228806   1.202   6.439  16.121 -4.4947  0.7080  1.9444
 2439TIP3   OH228807   4.665   1.675   3.667  0.3902  0.1288 -0.9571
 2439TIP3    H128808   4.603   1.608   3.693  1.0370 -0.3888 -0.7142
 2439TIP3    H228809   4.619   1.758   3.680 -0.8600 -0.2958 -2.4628
 2440TIP3   OH228810   2.825   5.735  17.082 -0.3601 -0.1283 -0.4810
 2440TIP3    H128811   2.878   5.736  17.002  0.0882 -1.6937 -0.2573
 2440TIP3    H228812   2.889   5.734  17.153 -0.7593  1.9938 -0.0478
 2441TIP3   OH228813   6.046   2.831  17.091 -0.1320 -0.4283  0.4529
 2441TIP3    H128814   6.106   2.814  17.164 -1.1063 -0.4659  1.2669
 2441TIP3    H228815   6.032   2.926  17.094  0.9104 -0.2200 -0.5767
 2442TIP3   OH228816   3.115   6.375   6.138  0.4137 -0.0958  0.5512
 2442TIP3    H128817   3.120   6.403   6.230 -4.3608  2.1954  0.4050
 2442TIP3    H228818   3.054   6.302   6.139  0.6961 -0.3680 -0.7823
 2443TIP3   OH228819   1.275   0.262   4.469  0.0535 -0.0474  0.1819
 2443TIP3    H128820   1.209   0.239   4.535  0.1315 -2.2415 -0.4353
 2443TIP3    H228821   1.353   0.213   4.495  0.0258 -1.1090 -1.6061
 2444TIP3   OH228822   4.785   1.447   1.588 -0.3171  0.0803  0.5113
 2444TIP3    H128823   4.869   1.405   1.603 -1.0709 -1.5134  0.4573
 2444TIP3    H228824   4.772   1.443   1.493 -0.4530  0.3364  0.5177
 2445TIP3   OH228825   0.301   0.691   2.057  0.3568  0.2411  0.4412
 2445TIP3    H128826   0.381   0.708   2.008  0.7531 -0.0044  1.0031
 2445TIP3    H228827   0.300   0.596   2.070 -0.3777  0.1529 -0.1619
 2446TIP3   OH228828   5.957   1.550  11.759 -0.2430  0.0119 -0.0355
 2446TIP3    H128829   5.909   1.494  11.820 -0.0201  0.2107  0.3242
 2446TIP3    H228830   6.049   1.527  11.773 -0.2184 -0.2825 -0.6376
 2447TIP3   OH228831   3.957   4.247   6.527  0.6736  0.2167 -0.2963
 2447TIP3    H128832   4.016   4.319   6.505  1.3990  0.0550  1.0188
 2447TIP3    H228833   4.003   4.169   6.497  1.5298  0.0217  1.4173
 2448TIP3   OH228834   4.995   4.530  12.726  0.1192 -0.4547  0.0841
 2448TIP3    H128835   4.912   4.550  12.770  0.7889  0.6225  0.9244
 2448TIP3    H228836   5.062   4.566  12.785  1.1007  0.3921 -1.4778
 2449TIP3   OH228837   1.272   5.180   0.913  0.4114  0.8466 -0.8366
 2449TIP3    H128838   1.182   5.190   0.944 -1.1557  0.5204 -4.6651
 2449TIP3    H228839   1.283   5.085   0.901  1.0198  0.9273 -0.9813
 2450TIP3   OH228840   0.402   6.802   1.843  0.6310 -0.3221  0.4321
 2450TIP3    H128841   0.386   6.890   1.876  1.1963  0.1889 -0.5850
 2450TIP3    H228842   0.326   6.782   1.788 -0.9474 -1.6873  2.9191
 2451TIP3   OH228843   3.206   2.176   0.630  0.1629 -0.3902  0.2126
 2451TIP3    H128844   3.264   2.183   0.555 -0.9966  1.1643 -0.5942
 2451TIP3    H228845   3.119   2.158   0.592 -0.2824 -0.4866  1.2346
 2452TIP3   OH228846   4.795   1.530  17.049 -0.4609  0.2586  0.2307
 2452TIP3    H128847   4.859   1.462  17.070 -0.1828 -0.1111 -1.6473
 2452TIP3    H228848   4.824   1.566  16.965 -1.8624  1.1375  0.0785
 2453TIP3   OH228849   6.750   6.743  11.681  0.2567  0.1423  0.5784
 2453TIP3    H128850   6.667   6.722  11.725  1.3600 -1.9242  1.8204
 2453TIP3    H228851   6.782   6.658  11.648  1.3413  1.0743 -0.9094
 2454TIP3   OH228852   0.565   3.197  13.055 -0.2888  0.3146 -0.4835
 2454TIP3    H128853   0.546   3.287  13.031  3.7607  1.4988  0.0336
 2454TIP3    H228854   0.485   3.166  13.098 -1.5352  3.9001  0.0792
 2455TIP3   OH228855   4.534   3.022  15.649  0.3191 -0.0639 -1.0393
 2455TIP3    H128856   4.440   3.003  15.645  0.0554  1.0103 -0.4833
 2455TIP3    H228857   4.572   2.946  15.693 -0.5242  0.1852  0.1786
 2456TIP3   OH228858   4.877   5.324   0.313 -0.2932  0.1762  0.3459
 2456TIP3    H128859   4.865   5.275   0.232 -1.2129 -0.9085  1.1027
 2456TIP3    H228860   4.935   5.396   0.289 -1.0725  0.2705 -1.4234
 2457TIP3   OH228861   4.189   6.320   6.021 -0.1632 -0.2446 -0.1538
 2457TIP3    H128862   4.178   6.302   6.115 -1.4606 -0.0864 -0.2519
 2457TIP3    H228863   4.179   6.235   5.979  0.5284 -0.3331 -0.1585
 2458TIP3   OH228864   2.350   1.875   1.781  0.2792  0.0407 -0.4264
 2458TIP3    H128865   2.416   1.906   1.843 -0.0305 -0.4702  0.1721
 2458TIP3    H228866   2.287   1.948   1.774 -0.8887 -0.6902  1.6004
 2459TIP3   OH228867   1.375   5.750   4.543 -0.4383  0.6503  0.1474
 2459TIP3    H128868   1.366   5.715   4.631  0.2824 -0.8325 -0.3402
 2459TIP3    H228869   1.464   5.725   4.516 -0.9046  0.4119 -1.2657
 2460TIP3   OH228870   2.027   5.502  11.065 -0.1753  0.5459  0.2563
 2460TIP3    H128871   2.038   5.449  10.986  2.4982  1.1091  0.1595
 2460TIP3    H228872   1.954   5.560  11.046 -1.2691 -1.0615 -0.7490
 2461TIP3   OH228873   2.529   3.290  12.525  0.0023  0.8482 -0.0296
 2461TIP3    H128874   2.623   3.309  12.516  0.2187 -0.3207 -0.4597
 2461TIP3    H228875   2.511   3.226  12.456 -1.5271  2.3699 -1.1013
 2462TIP3   OH228876   1.316   3.063  14.585 -0.1596  0.6199 -0.0662
 2462TIP3    H128877   1.344   3.128  14.649  0.2813  0.7674 -0.3997
 2462TIP3    H228878   1.388   3.000  14.582  0.0506  0.8869 -0.7786
 2463TIP3   OH228879   5.986   1.614  13.882  0.2604  0.6857  0.2762
 2463TIP3    H128880   5.943   1.631  13.966 -1.4797 -1.1901 -0.1611
 2463TIP3    H228881   6.029   1.530  13.894  0.9201  0.9209 -0.3885
 2464TIP3   OH228882   3.082   4.727  17.007  0.3054  0.3874  1.0069
 2464TIP3    H128883   3.009   4.693  17.059  0.6252 -1.9892  0.0415
 2464TIP3    H228884   3.052   4.722  16.916  1.8707 -1.4239  0.5202
 2465TIP3   OH228885   1.062   6.606   2.115  0.5623 -0.3439 -0.6124
 2465TIP3    H128886   1.017   6.580   2.034 -0.9344 -0.9229  0.3683
 2465TIP3    H228887   0.996   6.651   2.166  1.5928  0.3454  0.1581
 2466TIP3   OH228888   2.954   5.500   4.367  0.1392  0.8375 -0.4636
 2466TIP3    H128889   3.027   5.497   4.429 -2.1590  0.4569  2.3803
 2466TIP3    H228890   2.906   5.580   4.389 -1.2411  0.2389 -1.1730
 2467TIP3   OH228891   0.024   4.577   1.463 -0.1297 -0.0537  0.5153
 2467TIP3    H128892   0.036   4.483   1.477  0.3429  0.1523  1.5101
 2467TIP3    H228893  -0.071   4.590   1.471 -0.1805 -0.4168  0.5314
 2468TIP3   OH228894   3.646   2.948   0.711 -0.3882  0.0840 -0.0652
 2468TIP3    H128895   3.602   2.873   0.752  2.3074 -1.9022 -0.4992
 2468TIP3    H228896   3.578   2.990   0.660 -2.4695 -0.9011  1.7282
 2469TIP3   OH228897   4.939   2.184   1.126  0.4838 -0.5731  0.0247
 2469TIP3    H128898   5.031   2.157   1.119  0.3494 -0.8416 -0.9853
 2469TIP3    H228899   4.934   2.266   1.078  0.2298 -0.4663  0.2305
 2470TIP3   OH228900   3.674   0.225   1.189  1.6808 -0.2027 -0.1413
 2470TIP3    H128901   3.626   0.203   1.109  2.4821 -0.4276 -0.5734
 2470TIP3    H228902   3.637   0.167   1.256  2.3631 -1.4492 -0.8052
 2471TIP3   OH228903   1.600   3.378  13.737  0.0743 -0.0587  0.2582
 2471TIP3    H128904   1.693   3.390  13.720  0.0449 -1.2184 -0.9195
 2471TIP3    H228905   1.595   3.294  13.783 -0.1875  1.3397  3.0164
 2472TIP3   OH228906   2.494   0.288  14.285 -0.2115  0.1469  0.4407
 2472TIP3    H128907   2.545   0.243  14.217  0.2941 -0.3957  1.1649
 2472TIP3    H228908   2.412   0.239  14.289  0.3398 -0.7542  1.2320
 2473TIP3   OH228909   6.042   1.557  16.890 -0.0869  0.0327 -0.1904
 2473TIP3    H128910   5.966   1.574  16.946  0.8450 -1.1560  1.5219
 2473TIP3    H228911   6.100   1.505  16.945  1.4770 -0.0355 -1.8518
 2474TIP3   OH228912   6.154   4.092   0.201 -0.1921 -0.1043  0.6191
 2474TIP3    H128913   6.168   4.000   0.222  0.5726 -0.0327  0.4544
 2474TIP3    H228914   6.119   4.131   0.281 -1.6207 -0.7614  0.3539
 2475TIP3   OH228915   4.936   6.635   1.350 -0.4962 -0.1141 -0.5733
 2475TIP3    H128916   4.997   6.691   1.302 -1.4572  1.2331 -0.2737
 2475TIP3    H228917   4.868   6.613   1.286 -0.2526 -0.7405 -0.6212
 2476TIP3   OH228918   5.788   5.041   0.921 -0.0484  0.1273 -0.1064
 2476TIP3    H128919   5.699   5.076   0.926  0.3115  0.8884  1.9436
 2476TIP3    H228920   5.782   4.970   0.857 -2.0723  0.2900 -0.1747
 2477TIP3   OH228921   4.938   4.923   1.857  0.0560  0.0146  0.2565
 2477TIP3    H128922   4.960   4.830   1.865 -0.6695 -0.0282  2.0996
 2477TIP3    H228923   4.858   4.934   1.908  0.2548  1.6954  0.2705
 2478TIP3   OH228924   2.966   4.051   0.528  0.3973  0.1439  0.2219
 2478TIP3    H128925   2.982   4.144   0.513  0.2013  0.4591  1.8805
 2478TIP3    H228926   2.874   4.047   0.555 -0.2033 -0.7835 -1.7566
 2479TIP3   OH228927   3.000   0.609   3.880 -0.1361 -0.3877 -0.7414
 2479TIP3    H128928   2.906   0.623   3.881 -0.3921 -1.9374 -1.2040
 2479TIP3    H228929   3.016   0.557   3.801  0.6874 -2.7598  0.9081
 2480TIP3   OH228930   4.218   2.310  16.075 -0.6302  0.1057 -0.0652
 2480TIP3    H128931   4.289   2.249  16.053  0.7367  1.1257  1.3141
 2480TIP3    H228932   4.173   2.268  16.148  0.5144  0.8303  1.1016
 2481TIP3   OH228933   5.889   5.359   4.177  0.7532  0.1020 -0.2382
 2481TIP3    H128934   5.868   5.270   4.205  0.4392  0.2079 -0.1314
 2481TIP3    H228935   5.831   5.375   4.102  1.1367  0.0510 -0.5479
 2482TIP3   OH228936   0.096   5.550   4.830 -0.3214 -0.3366  0.4143
 2482TIP3    H128937   0.041   5.628   4.845  0.2938 -0.1343  1.7053
 2482TIP3    H228938   0.165   5.556   4.896  1.6892 -0.2305 -1.5718
 2483TIP3   OH228939   1.009   5.450  14.798 -0.0129  0.2437  0.0877
 2483TIP3    H128940   0.995   5.543  14.814 -0.5921 -0.0099  1.0689
 2483TIP3    H228941   1.091   5.447  14.748  0.4454  1.2234  0.7457
 2484TIP3   OH228942   1.126   5.453   1.879 -0.4253 -0.6777  0.3328
 2484TIP3    H128943   1.108   5.492   1.794 -0.0631  1.7307  1.3014
 2484TIP3    H228944   1.197   5.391   1.862  1.9113  2.0552 -0.6537
 2485TIP3   OH228945   6.247   0.628  13.567  0.0646  0.2839 -0.4338
 2485TIP3    H128946   6.215   0.717  13.581 -0.4773  0.0706 -0.2749
 2485TIP3    H228947   6.312   0.636  13.498  0.5751  0.9180  0.1008
 2486TIP3   OH228948   1.127   2.142   2.987  0.1711 -0.3399 -0.1340
 2486TIP3    H128949   1.200   2.192   2.951  0.8832 -0.9919  0.3789
 2486TIP3    H228950   1.168   2.074   3.040 -0.8074 -0.7959  0.0627
 2487TIP3   OH228951   1.435   6.112   1.830 -0.2589 -0.5622 -0.2932
 2487TIP3    H128952   1.361   6.094   1.772  1.3259 -2.8510 -1.7807
 2487TIP3    H228953   1.429   6.045   1.898  0.6574 -1.0793 -0.6957
 2488TIP3   OH228954   6.359   5.618   1.967  0.2690  0.7596  0.1847
 2488TIP3    H128955   6.299   5.671   2.019 -0.5779  1.0581 -1.0537
 2488TIP3    H228956   6.433   5.676   1.948 -1.4624  2.2363 -2.7047
 2489TIP3   OH228957   2.930   2.059  12.516 -0.4638  0.4547 -0.6210
 2489TIP3    H128958   2.982   2.048  12.595 -2.1064  0.4488  0.5259
 2489TIP3    H228959   2.993   2.054  12.444  0.8190 -1.7479  0.5581
 2490TIP3   OH228960   2.212   5.512   1.627  0.1637  0.1437 -0.6281
 2490TIP3    H128961   2.139   5.495   1.687  0.7783 -1.0928 -0.2004
 2490TIP3    H228962   2.288   5.473   1.670  0.9508  0.7949 -1.3982
 2491TIP3   OH228963   6.815   0.108  13.025 -0.0939 -0.1498 -0.5272
 2491TIP3    H128964   6.737   0.094  12.971 -0.2295 -1.7463  0.0115
 2491TIP3    H228965   6.792   0.068  13.109  1.5663 -1.3345 -0.5950
 2492TIP3   OH228966   1.685   5.646   0.483  0.5001 -0.1252  0.2307
 2492TIP3    H128967   1.724   5.721   0.527 -0.4567 -0.0580  1.0039
 2492TIP3    H228968   1.600   5.635   0.525  0.5042 -1.4737 -0.0636
 2493TIP3   OH228969   5.301   3.708   2.649 -0.2531 -0.3411 -0.3671
 2493TIP3    H128970   5.296   3.799   2.621 -0.7835 -0.1528  0.3171
 2493TIP3    H228971   5.260   3.707   2.735  0.2646 -1.1217 -0.1161
 2494TIP3   OH228972   4.748   0.283   0.462  0.0360  0.4940 -0.2737
 2494TIP3    H128973   4.834   0.317   0.438  0.6518  1.4533  2.8583
 2494TIP3    H228974   4.710   0.351   0.518 -3.7581  1.1014 -3.1138
 2495TIP3   OH228975   3.251   3.780   3.664 -0.2839  0.1395 -0.5020
 2495TIP3    H128976   3.192   3.802   3.592 -0.7570  2.1755  0.4393
 2495TIP3    H228977   3.196   3.781   3.742  0.1252 -2.4683 -0.0756
 2496TIP3   OH228978   5.992   3.306   5.549  0.0097  0.1295 -0.3635
 2496TIP3    H128979   5.904   3.272   5.537 -0.2170  1.0077 -1.2686
 2496TIP3    H228980   5.980   3.391   5.591  0.4243  0.2069 -0.3938
 2497TIP3   OH228981   4.656   6.365  11.033  0.1572 -0.0437 -0.3091
 2497TIP3    H128982   4.733   6.396  11.081  0.3914  0.2080 -0.8283
 2497TIP3    H228983   4.673   6.392  10.942 -0.9287  0.7576 -0.2862
 2498TIP3   OH228984   5.004   3.248  10.606 -0.1153 -0.6520  0.1506
 2498TIP3    H128985   5.015   3.338  10.575  0.4897 -1.0034 -0.6907
 2498TIP3    H228986   4.947   3.256  10.683 -0.6427  0.3720 -0.3260
 2499TIP3   OH228987   1.829   6.676   1.384  0.4172  0.5352 -0.4308
 2499TIP3    H128988   1.915   6.693   1.422 -0.5310 -1.3262  2.9538
 2499TIP3    H228989   1.832   6.583   1.359 -1.0105 -0.0318  1.2618
 2500TIP3   OH228990   6.631   1.593  14.396 -0.1460  0.2795  0.3496
 2500TIP3    H128991   6.610   1.677  14.357  0.1650 -0.4519 -1.4786
 2500TIP3    H228992   6.670   1.615  14.481  0.9383  2.0185 -0.5516
 2501TIP3   OH228993   5.771   5.729  16.019 -0.7674 -0.4500  0.2034
 2501TIP3    H128994   5.685   5.711  16.057 -0.6466 -1.7264 -0.0663
 2501TIP3    H228995   5.828   5.744  16.094 -1.2956  0.9035  0.3757
 2502TIP3   OH228996   4.485   2.204   4.351  0.7317 -0.3701 -0.1717
 2502TIP3    H128997   4.440   2.151   4.417 -0.8230  1.0716 -0.0158
 2502TIP3    H228998   4.578   2.199   4.375  0.2213  0.0844  2.1365
 2503TIP3   OH228999   4.702   2.736   1.907  0.1274  0.0738  0.2333
 2503TIP3    H129000   4.795   2.749   1.886  0.1539 -1.5903 -0.8772
 2503TIP3    H229001   4.687   2.643   1.888 -1.3593 -0.0888  2.0442
 2504TIP3   OH229002   4.734   5.246   0.737  0.7211 -0.0173  0.0880
 2504TIP3    H129003   4.770   5.190   0.668 -0.6516 -0.7949 -0.0337
 2504TIP3    H229004   4.745   5.196   0.817  0.4124 -0.0360  0.1216
 2505TIP3   OH229005   5.071   0.091  11.824 -0.1626  1.1382 -0.2625
 2505TIP3    H129006   4.981   0.123  11.831 -1.3559 -1.4279 -2.3364
 2505TIP3    H229007   5.106   0.098  11.913 -2.6253  1.5727  0.7390
 2506TIP3   OH229008   1.080   2.533  16.060 -0.1745 -0.1294 -0.4093
 2506TIP3    H129009   1.098   2.603  15.998 -0.2006 -1.6576 -2.2634
 2506TIP3    H229010   1.138   2.462  16.033  0.5991 -0.5111  2.0478
 2507TIP3   OH229011   6.480   6.574  14.849  0.1829 -0.4194  0.4558
 2507TIP3    H129012   6.527   6.657  14.848 -1.9753  0.8910 -0.6888
 2507TIP3    H229013   6.544   6.510  14.816  1.3644  1.1201 -0.3880
 2508TIP3   OH229014   3.733   6.161  12.648 -0.6808  0.2031  0.6833
 2508TIP3    H129015   3.684   6.100  12.592  0.0155  0.6959 -0.4927
 2508TIP3    H229016   3.706   6.138  12.737 -2.1299 -0.3274  0.1416
 2509TIP3   OH229017   4.991   4.172  13.206  0.3337 -0.0220 -0.4402
 2509TIP3    H129018   5.052   4.227  13.256 -1.1264  0.9250  0.3761
 2509TIP3    H229019   4.971   4.223  13.128  0.6462 -0.3658 -0.7457
 2510TIP3   OH229020   1.112   5.349  16.374  0.0331  0.2404 -0.0931
 2510TIP3    H129021   1.142   5.438  16.391  0.1538  0.4434 -1.3096
 2510TIP3    H229022   1.087   5.349  16.282 -2.0627 -0.4059  0.4372
 2511TIP3   OH229023   1.794   2.952  15.187 -0.5815  0.1552 -0.3290
 2511TIP3    H129024   1.802   2.859  15.205  2.1017 -0.1461 -2.4819
 2511TIP3    H229025   1.701   2.964  15.166 -1.5883 -1.3794  2.6218
 2512TIP3   OH229026   4.054   1.121   5.321  0.0775  0.1304  0.0150
 2512TIP3    H129027   4.122   1.058   5.297  0.0620 -0.9991  2.6681
 2512TIP3    H229028   3.993   1.072   5.376  0.2887  2.4847  2.5751
 2513TIP3   OH229029   0.261   6.297   3.499 -0.2779  0.0237  0.0474
 2513TIP3    H129030   0.262   6.209   3.539  0.0761  0.2117  0.4631
 2513TIP3    H229031   0.169   6.317   3.489 -0.3656 -0.5468 -0.3903
 2514TIP3   OH229032   5.667   0.515   4.598 -0.2995 -0.2177  0.1345
 2514TIP3    H129033   5.649   0.606   4.622  0.7802  0.4534 -1.4147
 2514TIP3    H229034   5.657   0.466   4.680 -1.5596  1.1719  0.8708
 2515TIP3   OH229035   3.558   0.999   3.725  0.0158  0.7315  0.1848
 2515TIP3    H129036   3.486   0.953   3.682 -0.5035  0.2232  1.5442
 2515TIP3    H229037   3.598   1.051   3.655 -1.9487  1.4112 -0.5153
 2516TIP3   OH229038   5.411   5.849   5.763  0.0321  0.0822  0.3884
 2516TIP3    H129039   5.423   5.906   5.687 -0.3924  0.8505  0.8935
 2516TIP3    H229040   5.454   5.767   5.737  0.2374  0.4593 -0.5255
 2517TIP3   OH229041   1.978   5.044   1.383  0.5135 -0.0488 -0.4314
 2517TIP3    H129042   1.933   5.115   1.337 -0.6515  0.8612  1.9589
 2517TIP3    H229043   2.018   5.087   1.459 -0.4585 -1.9576  1.2457
 2518TIP3   OH229044   4.241   3.223   2.229  0.0600  0.2248  0.1778
 2518TIP3    H129045   4.203   3.244   2.314  3.5262 -0.0939  1.9905
 2518TIP3    H229046   4.329   3.190   2.249  0.7111 -0.7939 -3.4937
 2519TIP3   OH229047   3.266   1.391  15.384  0.4526  0.5172  0.6227
 2519TIP3    H129048   3.290   1.482  15.401  0.5059  0.5241  0.5109
 2519TIP3    H229049   3.174   1.386  15.410  0.2099  0.8152 -0.1513
 2520TIP3   OH229050   5.230   1.953   3.264  0.0707  1.0078 -0.1005
 2520TIP3    H129051   5.219   2.036   3.310 -1.1616 -0.6901  2.9574
 2520TIP3    H229052   5.211   1.886   3.329 -0.3348 -1.7173 -2.7613
 2521TIP3   OH229053   1.801   6.736  11.379 -0.1983  0.0944 -0.0855
 2521TIP3    H129054   1.714   6.712  11.349 -0.5161  0.8576  0.2130
 2521TIP3    H229055   1.791   6.752  11.473  0.3001  0.0198 -0.0168
 2522TIP3   OH229056   0.311   5.024  12.834 -0.1191 -0.2691  0.0800
 2522TIP3    H129057   0.216   5.037  12.844  0.0229  0.4412  0.5712
 2522TIP3    H229058   0.330   5.060  12.748 -0.1087  0.7464  0.4879
 2523TIP3   OH229059   4.844   0.878  12.954  0.3088 -1.0807  0.2445
 2523TIP3    H129060   4.875   0.919  13.035  0.0251 -1.0420  0.3324
 2523TIP3    H229061   4.902   0.802  12.942  0.4707 -0.9790  0.3832
 2524TIP3   OH229062   3.007   2.054  17.098  0.3693 -0.2420  0.2471
 2524TIP3    H129063   3.027   2.147  17.101 -1.2213  0.1039  0.9276
 2524TIP3    H229064   3.077   2.016  17.044  0.3364  1.5144 -1.1102
 2525TIP3   OH229065   3.120   1.588  17.086 -0.5556  0.5832 -0.5046
 2525TIP3    H129066   3.106   1.528  17.013  1.2735 -0.2165 -0.2411
 2525TIP3    H229067   3.032   1.609  17.116 -1.2829 -0.7134 -1.6111
 2526TIP3   OH229068   5.230   2.044   5.156 -0.5613  0.2592  0.3188
 2526TIP3    H129069   5.249   1.966   5.209  1.4573  0.3323 -0.2100
 2526TIP3    H229070   5.239   2.014   5.066 -1.9478  0.6266  0.0355
 2527TIP3   OH229071   4.999   4.585   3.413 -0.2930 -0.1917 -0.3914
 2527TIP3    H129072   5.006   4.648   3.341  1.4055  0.1652  0.0412
 2527TIP3    H229073   5.088   4.580   3.449 -0.8674 -1.2181  0.9625
 2528TIP3   OH229074   4.013   2.152  11.437 -0.3715 -0.2071 -0.4277
 2528TIP3    H129075   4.036   2.217  11.371  1.5068 -0.8898 -0.4880
 2528TIP3    H229076   3.919   2.139  11.426 -0.8049  2.4355 -0.4488
 2529TIP3   OH229077   6.389   4.207   1.014 -0.4055 -0.3429 -0.6581
 2529TIP3    H129078   6.371   4.230   0.923  1.6162  0.7738 -0.8226
 2529TIP3    H229079   6.369   4.286   1.064 -0.8219 -0.7204 -0.2140
 2530TIP3   OH229080   1.188   2.809   5.264  0.0067  0.1388 -0.0588
 2530TIP3    H129081   1.216   2.719   5.251  1.0420  0.6063 -1.2928
 2530TIP3    H229082   1.257   2.849   5.316 -0.6592  0.1339  0.8605
 2531TIP3   OH229083   6.762   1.004  16.900 -0.0915 -0.0950 -0.0903
 2531TIP3    H129084   6.807   0.982  16.818 -0.7340 -0.5584 -0.3245
 2531TIP3    H229085   6.723   1.090  16.883 -0.0935 -0.1197 -0.2137
 2532TIP3   OH229086   5.882   1.840  14.331 -0.0036  0.2023 -0.4189
 2532TIP3    H129087   5.894   1.812  14.421 -0.9242  0.1242 -0.3086
 2532TIP3    H229088   5.842   1.927  14.339 -1.4217 -0.3977 -0.7298
 2533TIP3   OH229089   4.064   6.276  11.665  0.0186 -0.0025  0.0835
 2533TIP3    H129090   4.131   6.239  11.608  0.3980  1.4818 -0.4916
 2533TIP3    H229091   4.111   6.301  11.745  0.7075  3.0893 -1.1630
 2534TIP3   OH229092   0.809   2.142  17.175  0.4475  0.2605  0.1484
 2534TIP3    H129093   0.853   2.212  17.224  0.9666  0.5924 -0.7780
 2534TIP3    H229094   0.764   2.091  17.242  0.2168  1.3706  0.8687
 2535TIP3   OH229095   6.631   2.856   3.874 -0.0368 -0.4568 -0.1545
 2535TIP3    H129096   6.600   2.773   3.910  2.5012 -1.9623 -1.1491
 2535TIP3    H229097   6.615   2.919   3.944 -0.3349 -2.1545  1.4087
 2536TIP3   OH229098   4.634   5.221   4.581  0.0803 -0.1021  0.4126
 2536TIP3    H129099   4.577   5.251   4.652  1.0628 -1.8982  2.0546
 2536TIP3    H229100   4.637   5.126   4.591  2.8759 -0.1377  0.0660
 2537TIP3   OH229101   0.113   6.649  11.195  0.5213 -0.0324  0.0045
 2537TIP3    H129102   0.051   6.604  11.139  0.0144  0.7191 -0.0475
 2537TIP3    H229103   0.171   6.579  11.228  2.3135 -0.2486 -3.2168
 2538TIP3   OH229104   1.746   1.104   1.613  0.1326  0.8573  0.0851
 2538TIP3    H129105   1.812   1.112   1.683 -1.6037 -0.7349  2.0525
 2538TIP3    H229106   1.789   1.050   1.547  1.3150  1.1094  0.6030
 2539TIP3   OH229107   4.347   2.368   3.281 -0.1070 -0.1224 -0.1103
 2539TIP3    H129108   4.358   2.461   3.299 -0.3362  0.7602 -3.7451
 2539TIP3    H229109   4.266   2.344   3.327 -1.7304  2.3223 -1.4480
 2540TIP3   OH229110   6.375   5.602   4.658  0.1568 -0.0746  0.7109
 2540TIP3    H129111   6.460   5.561   4.674  0.8473  1.1922  0.4810
 2540TIP3    H229112   6.394   5.696   4.659 -1.1305  0.2167 -0.0142
 2541TIP3   OH229113   6.373   2.256  12.911 -0.4833  0.0686 -1.2933
 2541TIP3    H129114   6.338   2.328  12.962 -1.1520  0.1793 -1.8858
 2541TIP3    H229115   6.320   2.180  12.936  0.7560 -0.4256 -0.0542
 2542TIP3   OH229116   2.669   3.273  16.710 -0.3835  0.4319 -0.0415
 2542TIP3    H129117   2.731   3.251  16.641 -0.2421 -1.8241  0.7350
 2542TIP3    H229118   2.638   3.361  16.687 -0.1922 -0.1399 -2.8389
 2543TIP3   OH229119   0.224   4.208   3.288  0.2948  0.4064  0.3915
 2543TIP3    H129120   0.257   4.129   3.246 -1.4583 -0.2999  0.2614
 2543TIP3    H229121   0.133   4.215   3.258  0.1638  2.0314  1.0375
 2544TIP3   OH229122   0.898   3.993   4.911 -0.1112 -0.5399  0.8369
 2544TIP3    H129123   0.948   3.923   4.870 -0.1998  0.3496 -0.8849
 2544TIP3    H229124   0.810   3.957   4.920 -0.4904 -0.2524 -1.2590
 2545TIP3   OH229125   6.214   4.094   3.354  0.0666 -0.4549 -0.1295
 2545TIP3    H129126   6.153   4.032   3.316 -0.3536  0.2893 -0.6943
 2545TIP3    H229127   6.252   4.048   3.429 -1.5623 -0.7603  0.5528
 2546TIP3   OH229128   6.247   6.539   0.709 -0.0737 -0.9363 -0.2410
 2546TIP3    H129129   6.329   6.577   0.679  0.6738 -0.2149  2.5085
 2546TIP3    H229130   6.266   6.445   0.717 -0.2422 -1.1221 -1.7219
 2547TIP3   OH229131   5.346   0.417   5.510  0.1960 -0.1471  0.0197
 2547TIP3    H129132   5.430   0.452   5.479  1.3728 -0.5641  2.4784
 2547TIP3    H229133   5.322   0.352   5.444  2.8126 -1.4036  0.1713
 2548TIP3   OH229134   5.048   6.341  12.825  0.1219 -0.0667  0.4703
 2548TIP3    H129135   5.077   6.356  12.735 -1.9112  4.2494  0.2963
 2548TIP3    H229136   5.120   6.373  12.879  0.7244 -1.2454  0.3909
 2549TIP3   OH229137   3.805   5.213   5.423 -0.0060  0.0629 -0.0018
 2549TIP3    H129138   3.784   5.257   5.505  1.2303  0.0307  0.3542
 2549TIP3    H229139   3.732   5.233   5.365 -0.2016  1.2810  0.6470
 2550TIP3   OH229140   1.411   0.159  11.246  0.9651 -0.8441  0.2899
 2550TIP3    H129141   1.417   0.122  11.158  1.9097 -1.9382  0.7906
 2550TIP3    H229142   1.408   0.083  11.304  0.3971 -0.1382  1.2096
 2551TIP3   OH229143   0.569   5.483  12.188  0.3729  0.3773  0.3167
 2551TIP3    H129144   0.491   5.443  12.227  1.0943 -0.8847  0.4960
 2551TIP3    H229145   0.642   5.445  12.235  1.1980  0.0993 -1.1168
 2552TIP3   OH229146   1.777   4.867  14.972 -0.0341 -0.3291 -0.4274
 2552TIP3    H129147   1.766   4.883  14.878  0.5113  2.5591 -0.1058
 2552TIP3    H229148   1.870   4.885  14.988  0.9410 -4.7587  0.1141
 2553TIP3   OH229149   4.759   0.684   3.117  0.1081  0.0238 -0.2033
 2553TIP3    H129150   4.826   0.747   3.143  0.6050 -0.6412  0.1522
 2553TIP3    H229151   4.745   0.630   3.195 -2.9801  1.9405  0.7875
 2554TIP3   OH229152   5.823   6.104   2.158 -0.9176 -0.1911 -0.2276
 2554TIP3    H129153   5.826   6.058   2.242 -0.9695 -0.8100 -0.5651
 2554TIP3    H229154   5.910   6.091   2.120 -0.2398  1.6782  0.5587
 2555TIP3   OH229155   6.481   5.702  16.035  0.0223 -0.1715  0.2163
 2555TIP3    H129156   6.468   5.676  15.944  1.0100  2.3341 -0.7146
 2555TIP3    H229157   6.544   5.773  16.032  0.4065 -0.2681  2.9301
 2556TIP3   OH229158   3.025   4.376  14.237  0.4216 -0.4950 -0.1429
 2556TIP3    H129159   3.020   4.471  14.245 -0.6897 -0.6044  0.4827
 2556TIP3    H229160   3.027   4.343  14.327  1.8512 -1.0315 -0.3381
 2557TIP3   OH229161   0.114   5.931  14.535 -0.3476 -0.0171 -0.0604
 2557TIP3    H129162   0.088   5.840  14.526 -1.7762  0.2902  0.5963
 2557TIP3    H229163   0.205   5.928  14.564 -0.8775 -1.3063  1.6318
 2558TIP3   OH229164   2.511   0.173   0.569  0.3492  0.1589  0.1872
 2558TIP3    H129165   2.549   0.090   0.597  1.0776 -0.4569 -2.3524
 2558TIP3    H229166   2.527   0.233   0.642 -0.4025 -1.9274  2.1802
 2559TIP3   OH229167   2.831   4.625  16.840 -0.2196  0.1319 -0.5661
 2559TIP3    H129168   2.813   4.706  16.888  0.5922 -1.0810  1.9152
 2559TIP3    H229169   2.761   4.566  16.866  1.4652 -1.2759  1.0086
 2560TIP3   OH229170   5.120   2.528  13.540  0.5680  0.0281  0.7212
 2560TIP3    H129171   5.199   2.480  13.515 -1.0850 -2.3405 -0.2591
 2560TIP3    H229172   5.078   2.473  13.606 -0.1921  1.3704  1.4096
 2561TIP3   OH229173   5.932   1.151  14.271  0.0760 -0.5661 -0.2123
 2561TIP3    H129174   6.013   1.125  14.226 -0.4235  0.2015 -1.6063
 2561TIP3    H229175   5.929   1.093  14.347  0.9853 -1.9062 -1.1192
 2562TIP3   OH229176   0.786   5.136   5.913  0.3663 -0.0170 -0.1434
 2562TIP3    H129177   0.869   5.089   5.921  0.7471  0.9777  2.8287
 2562TIP3    H229178   0.724   5.069   5.885  1.7787 -1.2137 -0.5433
 2563TIP3   OH229179   4.629   1.308  14.830 -0.3454  0.3791 -0.8571
 2563TIP3    H129180   4.572   1.260  14.770  0.8982 -1.3300 -0.7322
 2563TIP3    H229181   4.595   1.286  14.917  0.4935 -0.6726 -0.7811
 2564TIP3   OH229182   2.887   3.002   0.926  0.2386  0.2539 -0.0152
 2564TIP3    H129183   2.881   2.989   0.831  0.6506  0.1589 -0.0310
 2564TIP3    H229184   2.801   2.979   0.959  0.8479 -2.3601 -0.0558
 2565TIP3   OH229185   6.166   5.381   5.293  0.0887  0.0839  0.1914
 2565TIP3    H129186   6.072   5.385   5.310  0.1507 -1.6911  1.2100
 2565TIP3    H229187   6.173   5.372   5.198 -0.9281 -2.2261  0.2776
 2566TIP3   OH229188   2.732   2.902   5.236 -0.4215  0.4126 -0.1028
 2566TIP3    H129189   2.638   2.898   5.254  0.0951 -0.0382  3.1442
 2566TIP3    H229190   2.743   2.982   5.185 -2.4993  0.7349 -0.1491
 2567TIP3   OH229191   2.442   0.038  16.586  0.8585 -0.3725 -0.1158
 2567TIP3    H129192   2.365   0.022  16.639  1.2058 -1.8216 -0.0098
 2567TIP3    H229193   2.478   0.121  16.619  0.1153 -0.3778  0.7288
 2568TIP3   OH229194   4.172   4.559  15.813  0.2104 -0.0186 -0.5136
 2568TIP3    H129195   4.255   4.548  15.860  1.3084 -1.8610 -2.6757
 2568TIP3    H229196   4.147   4.470  15.787 -1.9586  0.5998 -0.7568
 2569TIP3   OH229197   2.644   2.181   5.094 -0.0956  0.4522 -0.4496
 2569TIP3    H129198   2.681   2.253   5.146 -0.3847 -0.3816  0.9853
 2569TIP3    H229199   2.716   2.118   5.086 -0.1261  0.4684 -0.8578
 2570TIP3   OH229200   1.046   2.285  15.416  0.1474  0.1595  0.4472
 2570TIP3    H129201   1.104   2.234  15.360  1.0413  2.6733 -1.0315
 2570TIP3    H229202   1.035   2.369  15.371 -1.2382  1.3335  2.7679
 2571TIP3   OH229203   6.327   2.885   2.341  0.7175 -0.2023  0.0530
 2571TIP3    H129204   6.270   2.961   2.336  0.5110 -0.3995 -0.7424
 2571TIP3    H229205   6.268   2.810   2.332  0.8425 -0.4917  1.4226
 2572TIP3   OH229206   1.496   6.753   2.366  0.6574  0.5885 -0.2731
 2572TIP3    H129207   1.420   6.791   2.410 -0.9358 -1.1722 -1.3168
 2572TIP3    H229208   1.571   6.777   2.420 -1.0519 -0.7659  2.9881
 2573TIP3   OH229209   1.453   6.358  16.520 -0.3905  0.5852  0.5479
 2573TIP3    H129210   1.493   6.271  16.522  0.0934  0.7985  2.4245
 2573TIP3    H229211   1.493   6.402  16.445 -0.2902 -0.6345 -0.1436
 2574TIP3   OH229212   0.890   2.459  12.906 -0.5547  0.0542 -0.1645
 2574TIP3    H129213   0.934   2.375  12.890  1.0352  0.2486  2.5226
 2574TIP3    H229214   0.803   2.435  12.936 -0.3947 -0.6250 -0.2186
 2575TIP3   OH229215   1.459   0.367  12.676  0.4204  0.2021  0.1620
 2575TIP3    H129216   1.529   0.305  12.698  0.4367  0.1460 -0.0389
 2575TIP3    H229217   1.485   0.448  12.719  1.9506  0.9256 -1.9487
 2576TIP3   OH229218   0.493   6.329   2.121  0.3205  0.5063  0.6331
 2576TIP3    H129219   0.563   6.389   2.095  0.9069 -0.4680 -0.1211
 2576TIP3    H229220   0.538   6.260   2.170 -0.5023  1.2644  2.5853
 2577TIP3   OH229221   6.803   1.090   3.448 -0.6659 -0.4343  0.1582
 2577TIP3    H129222   6.754   1.152   3.503 -0.6739 -1.1289  0.9449
 2577TIP3    H229223   6.864   1.145   3.400 -0.1649  0.1215  1.3916
 2578TIP3   OH229224   4.339   6.013   0.853 -0.3597 -0.4550  0.1690
 2578TIP3    H129225   4.262   5.988   0.801 -0.6272  0.6348  0.0207
 2578TIP3    H229226   4.409   6.024   0.788 -0.6559  0.7572  0.0317
 2579TIP3   OH229227   6.583   6.823  11.171 -0.4013 -0.4410 -0.2053
 2579TIP3    H129228   6.645   6.845  11.240 -0.2643  0.6044 -0.6472
 2579TIP3    H229229   6.597   6.730  11.155  0.3813 -0.4321  0.3591
 2580TIP3   OH229230   5.991   6.455  13.811  0.1061  0.3068 -0.6396
 2580TIP3    H129231   6.045   6.522  13.769 -1.6629  1.8579 -0.5204
 2580TIP3    H229232   5.915   6.446  13.754 -0.4025 -0.5371  0.1372
 2581TIP3   OH229233   3.965   6.313   1.989  0.1048 -0.2907  0.0421
 2581TIP3    H129234   3.959   6.407   2.005 -0.9364 -0.4226  0.5438
 2581TIP3    H229235   3.971   6.304   1.894  0.0270  0.2768 -0.0170
 2582TIP3   OH229236   0.890   0.425  14.706 -0.9801 -0.3399  0.2974
 2582TIP3    H129237   0.979   0.456  14.722 -0.6526 -1.5760  0.9991
 2582TIP3    H229238   0.900   0.335  14.675 -1.9937 -0.6045  0.6692
 2583TIP3   OH229239   5.251   2.495   6.118  0.3663 -0.0212  0.4703
 2583TIP3    H129240   5.207   2.546   6.185 -0.1888  0.7799 -0.4749
 2583TIP3    H229241   5.250   2.405   6.152  0.5085  0.4359  1.7194
 2584TIP3   OH229242   1.181   2.302  14.446  0.0994  0.0481 -0.2086
 2584TIP3    H129243   1.155   2.281  14.536  0.0251  0.1820 -0.1979
 2584TIP3    H229244   1.273   2.325  14.453  0.5677 -1.6069 -0.4321
 2585TIP3   OH229245   3.511   0.368  14.597  0.2013  0.5950 -0.1395
 2585TIP3    H129246   3.485   0.439  14.656 -2.3755 -0.6970  0.4624
 2585TIP3    H229247   3.436   0.359  14.538  1.1765 -0.5785 -1.2383
 2586TIP3   OH229248   0.708   3.828   2.310 -0.2854  0.7237 -0.2950
 2586TIP3    H129249   0.625   3.815   2.265 -0.1533 -0.3256 -0.2693
 2586TIP3    H229250   0.726   3.744   2.353  0.7341  0.9584 -0.2183
 2587TIP3   OH229251   0.747   4.440   1.305 -0.2581 -0.5652 -0.2287
 2587TIP3    H129252   0.830   4.393   1.308  0.3968  0.5823  0.7401
 2587TIP3    H229253   0.771   4.531   1.289 -1.3889 -0.3197 -0.6683
 2588TIP3   OH229254   5.042   4.789  12.204 -0.3732 -0.1306 -0.3538
 2588TIP3    H129255   5.086   4.856  12.256 -1.7011  1.9095 -1.7059
 2588TIP3    H229256   4.974   4.755  12.262  1.1571 -1.4113  0.8168
 2589TIP3   OH229257   3.798   0.075  14.346 -0.2082  0.0028 -0.0733
 2589TIP3    H129258   3.756   0.019  14.411  0.6530  1.0072  1.4168
 2589TIP3    H229259   3.886   0.038  14.337 -0.1974  0.1031 -0.3842
 2590TIP3   OH229260   0.012   0.347  14.005  0.5871  0.3405 -0.0898
 2590TIP3    H129261   0.028   0.435  13.970 -0.4078  1.1623  1.4296
 2590TIP3    H229262   0.098   0.304  14.002  1.1064  1.3914 -0.7642
 2591TIP3   OH229263   6.711   3.172   1.608 -0.0990 -0.0879  0.3471
 2591TIP3    H129264   6.769   3.160   1.533  0.9347  0.2791  1.0707
 2591TIP3    H229265   6.735   3.103   1.670 -1.3910 -0.8010  0.1026
 2592TIP3   OH229266   4.375   4.884   1.329  0.1823  0.2565  0.3108
 2592TIP3    H129267   4.305   4.851   1.273 -0.0059  0.1209  0.6246
 2592TIP3    H229268   4.433   4.809   1.342 -1.5542 -0.7650  3.1074
 2593TIP3   OH229269   4.504   2.345  11.676 -0.1854 -0.4384 -0.0634
 2593TIP3    H129270   4.563   2.364  11.750  1.4410 -1.2939 -1.0729
 2593TIP3    H229271   4.538   2.263  11.639 -1.7642 -0.7126 -0.9756
 2594TIP3   OH229272   5.871   0.379   0.570  0.7086  0.2066  0.4582
 2594TIP3    H129273   5.904   0.400   0.657  1.3099 -0.4883  0.4025
 2594TIP3    H229274   5.776   0.385   0.578  0.7873  1.0766  0.9161
 2595TIP3   OH229275   3.003   4.614  16.020 -0.6045  0.7796  0.1132
 2595TIP3    H129276   2.999   4.519  16.031 -1.7827  0.7413 -0.4165
 2595TIP3    H229277   3.013   4.649  16.108  1.7739  0.1161  0.1578
 2596TIP3   OH229278   5.895   6.065  14.729 -0.1617  0.5789  0.4576
 2596TIP3    H129279   5.873   5.977  14.761  2.1957  0.5386  2.1899
 2596TIP3    H229280   5.859   6.067  14.640  0.1285 -2.3244  0.1653
 2597TIP3   OH229281   6.743   2.926  11.651 -0.0723 -0.5986  0.0572
 2597TIP3    H129282   6.720   2.978  11.729 -3.1115  0.6973 -1.5196
 2597TIP3    H229283   6.805   2.981  11.603  0.1792 -0.4396  0.5565
 2598TIP3   OH229284   3.824   0.922   3.794 -0.2806 -0.2595  0.6986
 2598TIP3    H129285   3.890   0.991   3.783 -1.3407  0.7781  0.7244
 2598TIP3    H229286   3.743   0.960   3.762 -1.0187 -1.2842  1.2819
 2599TIP3   OH229287   1.188   1.472  15.533 -0.2403  0.1709 -0.1173
 2599TIP3    H129288   1.127   1.510  15.596  0.5551 -0.7448  1.2805
 2599TIP3    H229289   1.249   1.543  15.513 -0.4873  0.4714  0.1753
 2600TIP3   OH229290   3.133   5.651  15.393  0.0672 -0.2258 -0.1669
 2600TIP3    H129291   3.131   5.574  15.335 -0.0193 -0.4752  0.1604
 2600TIP3    H229292   3.042   5.661  15.421  0.0674  0.0391 -0.2634
 2601TIP3   OH229293   2.106   5.494   3.139 -0.5939  0.6292  0.1928
 2601TIP3    H129294   2.119   5.400   3.128 -2.8100  0.3174 -0.2623
 2601TIP3    H229295   2.063   5.502   3.224  0.3548  1.3312  0.6156
 2602TIP3   OH229296   3.520   5.587  14.674  0.5018 -0.3989  0.4191
 2602TIP3    H129297   3.556   5.502  14.649  1.6414  0.3521 -0.6388
 2602TIP3    H229298   3.432   5.588  14.636  0.8140 -0.7742 -0.3382
 2603TIP3   OH229299   1.255   0.975  13.654  1.2256  0.4893 -0.2450
 2603TIP3    H129300   1.303   1.046  13.695  0.4519  1.4258 -0.9178
 2603TIP3    H229301   1.227   0.920  13.727  0.3175  1.8368  0.4662
 2604TIP3   OH229302   1.678   4.357  11.292  0.0529  0.0583 -0.1532
 2604TIP3    H129303   1.738   4.418  11.250  0.7330  0.7959  1.7371
 2604TIP3    H229304   1.591   4.387  11.266  0.3508  2.1379  0.9966
 2605TIP3   OH229305   3.372   6.204   5.166 -0.5521  0.1216  0.3626
 2605TIP3    H129306   3.428   6.137   5.126 -1.2051 -0.1495 -0.1158
 2605TIP3    H229307   3.416   6.286   5.146 -0.7473 -0.0244 -0.7554
 2606TIP3   OH229308   3.410   5.022   2.692  0.4239  0.0028  0.1148
 2606TIP3    H129309   3.416   4.977   2.776 -2.8064  1.4117  1.2340
 2606TIP3    H229310   3.359   4.962   2.637 -0.3121  0.4883  0.2591
 2607TIP3   OH229311   5.349   0.281  16.233  0.3377 -0.6498 -0.6456
 2607TIP3    H129312   5.371   0.223  16.306 -0.8400 -1.5005 -0.9495
 2607TIP3    H229313   5.284   0.233  16.182 -1.1150  1.1492 -0.6079
 2608TIP3   OH229314   6.356   0.083   1.568 -0.0255 -0.7222  0.1756
 2608TIP3    H129315   6.307   0.102   1.648 -0.5880 -2.4750  0.2914
 2608TIP3    H229316   6.302   0.019   1.521  1.2144 -1.2152 -0.6463
 2609TIP3   OH229317   0.890   3.577   5.087 -0.1069  0.1180 -0.0615
 2609TIP3    H129318   0.803   3.600   5.055 -0.5431 -0.6247  0.5343
 2609TIP3    H229319   0.873   3.518   5.161  0.8970 -2.0895 -1.4580
 2610TIP3   OH229320   2.055   5.143   6.637 -0.1557  0.4301  0.7701
 2610TIP3    H129321   1.963   5.140   6.662 -0.1160  0.8220  0.9700
 2610TIP3    H229322   2.092   5.215   6.689 -0.1045  1.3593 -0.5153
 2611TIP3   OH229323   4.879   6.737   5.009  0.5062 -0.1359  0.0470
 2611TIP3    H129324   4.930   6.753   4.930  0.5951  0.0229  0.1345
 2611TIP3    H229325   4.941   6.753   5.081 -0.1004  1.7478  0.2028
 2612TIP3   OH229326   0.475   1.846   1.741  0.7477  0.1080  1.0179
 2612TIP3    H129327   0.443   1.816   1.657  0.6039  0.5728  0.9054
 2612TIP3    H229328   0.527   1.924   1.721  1.9090 -0.5831  1.2006
 2613TIP3   OH229329   4.864   5.174   2.080 -0.1941 -0.2776  0.4502
 2613TIP3    H129330   4.829   5.257   2.113 -0.6791 -0.0102 -0.7002
 2613TIP3    H229331   4.798   5.109   2.105 -1.5892  0.2092 -1.6277
 2614TIP3   OH229332   0.650   1.010   4.225 -0.1012  0.0093 -0.2548
 2614TIP3    H129333   0.598   1.022   4.304  1.3038  0.9871  0.5438
 2614TIP3    H229334   0.629   1.085   4.170 -1.6517 -1.0459 -1.2001
 2615TIP3   OH229335   3.197   5.122   0.118 -0.0454  0.2188 -0.4895
 2615TIP3    H129336   3.122   5.159   0.165 -0.0849  0.0256 -0.3979
 2615TIP3    H229337   3.181   5.028   0.119 -0.8972  0.3009 -2.2955
 2616TIP3   OH229338   5.219   5.219   0.361 -0.6069 -0.0682  0.8251
 2616TIP3    H129339   5.137   5.226   0.313  0.4833  0.6283 -1.0691
 2616TIP3    H229340   5.287   5.227   0.294  1.0333  1.4519  2.5161
 2617TIP3   OH229341   4.565   0.922   3.639 -0.0007 -0.1034 -0.1937
 2617TIP3    H129342   4.637   0.941   3.578  0.4435 -1.1049  0.0106
 2617TIP3    H229343   4.603   0.863   3.704 -0.8097 -0.0402  0.3544
 2618TIP3   OH229344   6.630   2.269   1.784 -0.3476  0.1691  0.8720
 2618TIP3    H129345   6.679   2.318   1.851 -0.0655  0.7750  0.2439
 2618TIP3    H229346   6.614   2.334   1.715 -0.8563 -0.3789  0.4704
 2619TIP3   OH229347   6.038   3.568   2.873  0.2984 -0.4136 -0.2296
 2619TIP3    H129348   6.123   3.600   2.842  2.2764 -1.6613  3.3790
 2619TIP3    H229349   6.043   3.473   2.864 -0.5762 -0.5244  0.3597
 2620TIP3   OH229350   5.810   0.987   5.011  0.0035  0.7198  0.0059
 2620TIP3    H129351   5.900   1.017   5.005 -0.1796  1.2218 -0.3043
 2620TIP3    H229352   5.774   1.031   5.088  0.5590 -0.9520  1.2866
 2621TIP3   OH229353   1.827   3.492  14.087  0.0720  0.1826 -0.5616
 2621TIP3    H129354   1.895   3.508  14.153  0.8303 -2.4623 -0.6036
 2621TIP3    H229355   1.749   3.468  14.138 -0.0186  0.3835 -0.6011
 2622TIP3   OH229356   5.772   1.669   2.853  0.3847 -0.3564  0.5946
 2622TIP3    H129357   5.816   1.704   2.775  0.1473  0.9629  1.0374
 2622TIP3    H229358   5.836   1.679   2.923  0.4481 -1.1758  0.6651
 2623TIP3   OH229359   2.666   4.252   2.339 -0.0589  0.2554  0.1046
 2623TIP3    H129360   2.746   4.220   2.382 -1.3398 -1.7230  1.1617
 2623TIP3    H229361   2.611   4.174   2.331 -2.0540  1.6390 -0.2198
 2624TIP3   OH229362   1.871   4.081   0.809  0.5399 -0.0201 -0.5783
 2624TIP3    H129363   1.935   4.017   0.839 -0.9510 -0.9658  0.7740
 2624TIP3    H229364   1.901   4.165   0.846  1.6771 -0.1839 -1.0835
 2625TIP3   OH229365   5.940   4.412  15.264  0.1426  0.3562  0.2487
 2625TIP3    H129366   5.873   4.414  15.333 -0.7319 -2.0399 -0.4571
 2625TIP3    H229367   5.893   4.383  15.186  1.8567 -0.7416 -0.4174
 2626TIP3   OH229368   1.998   4.419   3.549 -0.3591  0.0827 -0.0996
 2626TIP3    H129369   1.904   4.411   3.532 -0.2838  0.8134 -0.9081
 2626TIP3    H229370   2.039   4.362   3.484 -0.2175  0.2505 -0.1580
 2627TIP3   OH229371   0.565   3.893  16.035  0.1578 -0.7504  0.1812
 2627TIP3    H129372   0.600   3.895  15.946  2.4470  1.6451  1.0373
 2627TIP3    H229373   0.631   3.845  16.086  0.5668  0.8166  1.1780
 2628TIP3   OH229374   2.805   2.812   3.326  0.0660  0.0081 -0.4502
 2628TIP3    H129375   2.783   2.891   3.376 -0.4544  0.5203 -1.4536
 2628TIP3    H229376   2.746   2.745   3.360  1.7518 -0.4870  1.7004
 2629TIP3   OH229377   3.171   2.503   0.718 -0.7491  0.0942 -0.2534
 2629TIP3    H129378   3.131   2.533   0.636  2.6907 -0.6897 -2.4842
 2629TIP3    H229379   3.170   2.408   0.711 -0.7711  0.0079  0.8193
 2630TIP3   OH229380   1.475   6.424   3.844  0.1543 -0.0563  0.1337
 2630TIP3    H129381   1.494   6.454   3.933  1.6682  0.4649 -0.3385
 2630TIP3    H229382   1.561   6.401   3.807 -0.2426  1.1615 -1.7011
 2631TIP3   OH229383   1.644   5.305   5.736 -0.2328  0.4792  0.0909
 2631TIP3    H129384   1.731   5.273   5.710  0.5468  1.4914  1.3402
 2631TIP3    H229385   1.660   5.357   5.815 -2.2082 -0.7771  1.4247
 2632TIP3   OH229386   4.664   5.102  15.997  0.0142  0.1440  0.4446
 2632TIP3    H129387   4.603   5.046  16.045 -0.0349  1.4846  2.0485
 2632TIP3    H229388   4.661   5.186  16.043  1.6050  0.8485 -0.6302
 2633TIP3   OH229389   6.527   2.251   4.180  0.0709 -0.3023 -0.2971
 2633TIP3    H129390   6.444   2.282   4.216  0.6668  2.4020 -1.0235
 2633TIP3    H229391   6.585   2.244   4.255 -0.3061 -0.4155 -0.0153
 2634TIP3   OH229392   3.247   6.406   1.121 -0.0184 -0.2123 -0.8790
 2634TIP3    H129393   3.161   6.364   1.127 -0.0633 -0.0764 -0.5104
 2634TIP3    H229394   3.246   6.472   1.191 -0.6189  1.5976 -2.4946
 2635TIP3   OH229395   2.146   6.121   5.255  0.3687  0.4921  0.1138
 2635TIP3    H129396   2.070   6.136   5.199  0.5070 -0.0571 -0.2285
 2635TIP3    H229397   2.120   6.154   5.341  0.1156  1.2398 -0.2413
 2636TIP3   OH229398   6.030   1.079   1.326  0.3490 -0.2821 -0.0147
 2636TIP3    H129399   5.950   1.029   1.343 -0.0428  0.2231 -0.3125
 2636TIP3    H229400   6.077   1.079   1.409  0.9306 -2.1055 -0.2912
 2637TIP3   OH229401   6.436   2.977   2.600 -0.4455  0.0237  0.8762
 2637TIP3    H129402   6.402   2.977   2.511 -1.7163  0.5185  1.3404
 2637TIP3    H229403   6.419   2.888   2.632  0.6201 -0.3579  0.4182
 2638TIP3   OH229404   0.091   0.168  13.555 -0.3778 -0.6396  0.4537
 2638TIP3    H129405   0.069   0.094  13.612 -0.0666 -0.9610  0.1710
 2638TIP3    H229406   0.028   0.236  13.577  0.6065 -0.2447  2.1623
 2639TIP3   OH229407   4.371   1.745   2.260 -0.1465 -0.0167  0.0919
 2639TIP3    H129408   4.422   1.664   2.267  1.0483  0.7104  0.2914
 2639TIP3    H229409   4.433   1.813   2.287 -1.0993  0.9685 -0.1590
 2640TIP3   OH229410   6.325   4.049  12.147  0.1555  0.6739  0.1163
 2640TIP3    H129411   6.277   3.981  12.195  2.3441 -0.1695  1.2297
 2640TIP3    H229412   6.257   4.110  12.118 -1.6562 -0.8661  0.9212
 2641TIP3   OH229413   0.763   6.559   5.776  0.4877 -0.1107  0.1013
 2641TIP3    H129414   0.775   6.604   5.859  1.5758  0.7022 -0.4588
 2641TIP3    H229415   0.834   6.495   5.773  1.0615  0.5291 -0.6003
 2642TIP3   OH229416   1.265   3.411   3.574  0.1986  0.7736 -0.2180
 2642TIP3    H129417   1.274   3.434   3.666 -0.1511  2.2807 -0.5140
 2642TIP3    H229418   1.170   3.410   3.559  0.2277 -0.2293 -0.3970
 2643TIP3   OH229419   0.403   1.552  11.839 -0.7474  0.3553  0.6122
 2643TIP3    H129420   0.395   1.552  11.935  0.0554 -0.8816  0.6944
 2643TIP3    H229421   0.496   1.541  11.822 -0.8579  0.7671 -0.3279
 2644TIP3   OH229422   3.023   6.195   5.079 -0.0128 -0.1602  0.3518
 2644TIP3    H129423   3.100   6.200   5.023 -1.1689  0.9106 -1.2246
 2644TIP3    H229424   3.041   6.255   5.151  0.8155 -0.2924  0.2639
 2645TIP3   OH229425   5.085   3.227   6.001  0.0636 -0.4273  0.2990
 2645TIP3    H129426   5.000   3.227   6.045 -0.1174  2.5129  0.1267
 2645TIP3    H229427   5.138   3.166   6.052 -0.9792  0.6844  2.9242
 2646TIP3   OH229428   6.215   6.697  13.903  0.3398 -0.2914 -0.2420
 2646TIP3    H129429   6.215   6.622  13.962  1.0329  1.3878  2.0097
 2646TIP3    H229430   6.266   6.764  13.949  1.2251  1.0152 -2.9161
 2647TIP3   OH229431   6.602   5.733  11.112  0.5225 -0.2174 -0.1128
 2647TIP3    H129432   6.662   5.660  11.095  2.6679  1.6950 -1.3579
 2647TIP3    H229433   6.545   5.735  11.035  1.8784  0.6594 -1.1451
 2648TIP3   OH229434   0.942   2.207  13.167 -0.3722 -0.0487  0.3107
 2648TIP3    H129435   0.953   2.280  13.227  1.0518 -0.6191  0.7806
 2648TIP3    H229436   0.978   2.237  13.084  0.5777 -0.3252  0.6084
 2649TIP3   OH229437   0.377   2.382  12.133 -0.1694  0.2159  0.0032
 2649TIP3    H129438   0.311   2.380  12.064  1.1553 -0.0188 -1.2969
 2649TIP3    H229439   0.440   2.449  12.105  0.6380 -0.2165  0.7255
 2650TIP3   OH229440   1.542   5.679  11.719  0.3204 -0.0017  0.2442
 2650TIP3    H129441   1.589   5.708  11.640 -0.6968 -1.1977 -0.8389
 2650TIP3    H229442   1.583   5.728  11.790  0.9815  1.4350 -1.0707
 2651TIP3   OH229443   6.638   6.483  13.091 -0.1261  0.1704 -0.4114
 2651TIP3    H129444   6.677   6.539  13.024  0.1250  1.7588  1.0196
 2651TIP3    H229445   6.623   6.540  13.166 -4.8899 -0.3535 -0.6541
 2652TIP3   OH229446   4.098   0.660   2.236  0.3486 -0.1512 -0.2943
 2652TIP3    H129447   4.116   0.625   2.148 -1.4412 -1.3620 -0.2378
 2652TIP3    H229448   4.031   0.601   2.272  0.6419  0.6432  1.6831
 2653TIP3   OH229449   4.585   6.252   3.401  0.2018 -0.2934 -0.4054
 2653TIP3    H129450   4.579   6.302   3.482 -1.8203  0.3510 -0.9067
 2653TIP3    H229451   4.564   6.162   3.427  0.3076 -0.2292 -0.0964
 2654TIP3   OH229452   3.724   0.182  14.645 -0.0893 -0.3014 -0.3377
 2654TIP3    H129453   3.779   0.174  14.724  0.1790 -1.0841 -0.5988
 2654TIP3    H229454   3.666   0.256  14.665  1.4480  0.9509 -0.2955
 2655TIP3   OH229455   2.501   2.212   0.793  0.4898  0.6158 -0.2487
 2655TIP3    H129456   2.497   2.252   0.706  0.6537 -0.9149 -0.9906
 2655TIP3    H229457   2.445   2.135   0.787  3.8537 -2.0320 -0.4157
 2656TIP3   OH229458   1.486   3.043   0.983 -0.1257 -0.2036 -0.1604
 2656TIP3    H129459   1.490   3.002   0.897 -1.9263  0.8896 -0.8144
 2656TIP3    H229460   1.428   2.987   1.034  0.5815 -0.6057  0.2147
 2657TIP3   OH229461   1.999   1.460   4.402  0.0921 -0.0544  0.4951
 2657TIP3    H129462   2.041   1.400   4.340 -1.3791  2.0952 -2.8153
 2657TIP3    H229463   1.906   1.438   4.398 -0.0994  0.4591  1.6394
 2658TIP3   OH229464   4.487   1.943  14.366 -0.6680  0.1358 -0.1792
 2658TIP3    H129465   4.541   1.992  14.427  0.6063  0.1889 -1.3032
 2658TIP3    H229466   4.428   2.009  14.328 -0.0181  0.5182 -0.5440
 2659TIP3   OH229467   1.076   5.364  12.824 -0.1280 -0.0016  0.1331
 2659TIP3    H129468   1.108   5.424  12.757  0.9944  0.4356  1.0327
 2659TIP3    H229469   1.010   5.414  12.871  1.9555  1.2001  1.9452
 2660TIP3   OH229470   3.425   3.159  13.574  0.1400  0.3456 -0.0099
 2660TIP3    H129471   3.510   3.136  13.611  0.4233 -1.2355 -1.5348
 2660TIP3    H229472   3.380   3.204  13.645  1.6460 -0.1989  1.3572
 2661TIP3   OH229473   2.263   0.511  15.672  0.0903  0.2855 -0.6604
 2661TIP3    H129474   2.174   0.538  15.648  0.3342  0.9133 -0.8731
 2661TIP3    H229475   2.276   0.546  15.760 -0.9281 -2.2973  0.6399
 2662TIP3   OH229476   0.513   3.208  11.973 -0.0480  0.0239 -0.1878
 2662TIP3    H129477   0.539   3.259  12.050  1.8502  0.6208 -1.1633
 2662TIP3    H229478   0.548   3.257  11.899  2.1423 -2.7283 -1.1705
 2663TIP3   OH229479   6.005   3.751  12.066  0.4001  0.6665 -0.3866
 2663TIP3    H129480   6.067   3.801  12.013  0.9225 -1.8158 -2.2564
 2663TIP3    H229481   5.919   3.777  12.032  0.5422  1.5975 -0.0754
 2664TIP3   OH229482   0.093   6.234   5.311 -0.0819  0.1004  0.2448
 2664TIP3    H129483  -0.000   6.216   5.323 -0.2568  1.4481  1.1241
 2664TIP3    H229484   0.131   6.222   5.398  0.9583 -2.3275 -0.4549
 2665TIP3   OH229485   2.894   0.782   5.220 -0.1699  0.2089  0.1798
 2665TIP3    H129486   2.842   0.820   5.150 -0.1638  0.6486  0.4074
 2665TIP3    H229487   2.835   0.720   5.263  0.2229 -1.0477 -1.0126
 2666TIP3   OH229488   0.111   4.090   1.057  0.7465 -0.1854 -0.4696
 2666TIP3    H129489   0.202   4.088   1.029  0.6918  1.4910 -0.8681
 2666TIP3    H229490   0.062   4.056   0.982  0.8513  1.4995 -1.3652
 2667TIP3   OH229491   4.942   2.722  15.228 -0.5654 -0.2761  0.2109
 2667TIP3    H129492   4.975   2.795  15.281  2.3555 -1.8885  0.8505
 2667TIP3    H229493   5.000   2.720  15.152 -1.6793 -0.9287 -0.6542
 2668TIP3   OH229494   2.797   3.415  12.158 -0.0562 -0.6397 -0.3455
 2668TIP3    H129495   2.819   3.326  12.134 -1.0685 -1.0830  0.2831
 2668TIP3    H229496   2.779   3.411  12.252  1.0642  0.4769 -0.0605
 2669TIP3   OH229497   4.260   6.308  11.844  0.3655  0.2243  0.3065
 2669TIP3    H129498   4.292   6.219  11.862 -1.7914 -0.2410  2.3337
 2669TIP3    H229499   4.314   6.339  11.772  0.7582 -2.9937 -0.9302
 2670TIP3   OH229500   2.500   3.078   4.657 -0.0419 -0.1385  0.1775
 2670TIP3    H129501   2.510   3.014   4.727 -0.1221 -1.0416 -0.6245
 2670TIP3    H229502   2.553   3.152   4.684  0.0410 -0.5329  1.1237
 2671TIP3   OH229503   0.407   3.023  11.446 -0.2259 -0.3102  0.2950
 2671TIP3    H129504   0.426   3.079  11.521  0.5087  0.7076 -0.6229
 2671TIP3    H229505   0.482   2.965  11.440  0.1197  0.1744 -0.1483
 2672TIP3   OH229506   2.498   0.523   4.239  0.3777  0.8339  0.8418
 2672TIP3    H129507   2.593   0.511   4.244  0.5542  2.0118  0.6601
 2672TIP3    H229508   2.474   0.482   4.156  0.3095 -1.7069  2.0132
 2673TIP3   OH229509   0.473   2.601   2.743 -0.1136 -0.0680  0.4226
 2673TIP3    H129510   0.523   2.524   2.769  0.7160  0.0249 -0.7819
 2673TIP3    H229511   0.451   2.645   2.825 -0.5020 -1.5054  1.1217
 2674TIP3   OH229512   6.819   3.690   1.394  0.3426  0.2668 -0.5919
 2674TIP3    H129513   6.822   3.776   1.351 -2.1184 -1.1563 -4.0807
 2674TIP3    H229514   6.863   3.631   1.332 -0.1753 -1.3960  0.5593
 2675TIP3   OH229515   6.160   6.240   5.521  0.3482 -0.6449  0.1021
 2675TIP3    H129516   6.202   6.241   5.607 -0.7769  0.0320  0.6597
 2675TIP3    H229517   6.074   6.279   5.535  1.2994  2.5724 -1.9190
 2676TIP3   OH229518   5.776   2.329  12.233 -0.4576 -0.0021 -0.2326
 2676TIP3    H129519   5.870   2.328  12.214 -0.1957 -1.4066  0.9422
 2676TIP3    H229520   5.745   2.244  12.202 -1.5166  0.7308 -1.2772
 2677TIP3   OH229521   2.487   0.516  14.110 -0.0146 -0.0209 -0.9002
 2677TIP3    H129522   2.546   0.570  14.163 -0.3721 -0.6047  0.1278
 2677TIP3    H229523   2.470   0.439  14.165 -0.6729 -0.4864 -1.7348
 2678TIP3   OH229524   0.505   4.140  14.287 -0.6751  0.3538  0.1484
 2678TIP3    H129525   0.548   4.063  14.249 -1.7922 -1.2958  2.0346
 2678TIP3    H229526   0.418   4.140  14.249 -1.1355 -0.1624  1.1519
 2679TIP3   OH229527   1.883   5.294   1.266  0.1074  0.3337 -0.4087
 2679TIP3    H129528   1.977   5.302   1.251  0.2234  1.8932  0.8000
 2679TIP3    H229529   1.844   5.356   1.205 -0.1554 -0.3257 -0.9217
 2680TIP3   OH229530   4.791   3.576   3.078  0.3254 -0.1559  0.0639
 2680TIP3    H129531   4.701   3.549   3.058  0.6210  0.1129 -1.7687
 2680TIP3    H229532   4.780   3.660   3.123 -0.3607 -0.5294  0.6269
 2681TIP3   OH229533   5.870   5.748   3.409  0.1238 -0.1618  0.3538
 2681TIP3    H129534   5.851   5.840   3.426  1.8582 -0.0439  1.8583
 2681TIP3    H229535   5.788   5.703   3.433 -0.4746  0.8937  0.3761
 2682TIP3   OH229536   0.860   0.008  12.975  0.0198  0.2604  0.6982
 2682TIP3    H129537   0.915  -0.064  12.943 -0.6778  1.2176 -3.2747
 2682TIP3    H229538   0.801  -0.033  13.038  1.2847 -2.0643  0.5053
 2683TIP3   OH229539   5.017   2.989   2.701 -0.6155 -0.1212 -0.0604
 2683TIP3    H129540   5.060   2.920   2.650 -1.3658 -0.9272  0.3514
 2683TIP3    H229541   5.045   2.973   2.791  0.3105  0.9898 -0.1335
 2684TIP3   OH229542   0.626   2.741   4.504 -0.2579  0.4171 -0.2122
 2684TIP3    H129543   0.620   2.812   4.567 -2.1177 -0.2894  0.4853
 2684TIP3    H229544   0.536   2.728   4.474 -0.2244 -2.3447  0.5538
 2685TIP3   OH229545   4.120   0.125  17.250  0.1916  0.2109  0.6535
 2685TIP3    H129546   4.212   0.141  17.228  0.3469  1.0200  1.7877
 2685TIP3    H229547   4.121   0.107  17.344 -0.6644 -1.1987  0.4127
 2686TIP3   OH229548   3.666   3.186   0.107  0.5992  0.6814  0.2536
 2686TIP3    H129549   3.740   3.132   0.078  1.2766  0.1121  2.7934
 2686TIP3    H229550   3.707   3.258   0.156 -0.3925  2.5173 -1.4622
 2687TIP3   OH229551   6.636   5.096   0.438 -0.3778  0.0389 -0.1129
 2687TIP3    H129552   6.673   5.019   0.481 -0.8141  0.1667  0.5018
 2687TIP3    H229553   6.699   5.118   0.369 -0.2595 -0.8762 -0.3121
 2688TIP3   OH229554   5.107   1.612   0.536  0.5761  0.5493 -0.5657
 2688TIP3    H129555   5.080   1.574   0.619  1.5257 -0.7796 -0.8147
 2688TIP3    H229556   5.076   1.702   0.538  0.2036  0.4049  1.0350
 2689TIP3   OH229557   2.699   6.668   3.896  0.4181 -0.8220 -0.2661
 2689TIP3    H129558   2.606   6.687   3.909  0.6446 -0.1634  0.5178
 2689TIP3    H229559   2.737   6.752   3.871  0.8988 -0.9529  0.0073
 2690TIP3   OH229560   4.899   4.090  11.516  0.9538  0.0536  0.3553
 2690TIP3    H129561   4.953   4.028  11.565  1.7283  1.0758  0.8461
 2690TIP3    H229562   4.952   4.169  11.510  0.5433  0.2352 -1.4675
 2691TIP3   OH229563   4.487   1.090   5.371  0.4285 -0.1741 -0.1818
 2691TIP3    H129564   4.441   1.094   5.455  1.7919  0.0583  0.5832
 2691TIP3    H229565   4.457   1.168   5.324 -1.0939 -0.8178 -0.3530
 2692TIP3   OH229566   0.045   1.521   0.260  0.3415 -0.2256 -0.0795
 2692TIP3    H129567   0.134   1.490   0.277 -0.0149 -0.8957  0.6465
 2692TIP3    H229568  -0.007   1.484   0.332 -0.8872 -1.5218 -1.5595
 2693TIP3   OH229569   2.050   3.127  12.353  0.4005  0.0700 -0.3409
 2693TIP3    H129570   2.095   3.211  12.353  0.0264  0.2873  0.7985
 2693TIP3    H229571   2.119   3.063  12.372  0.4729  0.2488 -0.0014
 2694TIP3   OH229572   2.534   0.235  11.421 -0.3193 -0.1517  0.4092
 2694TIP3    H129573   2.465   0.302  11.422 -0.8932 -0.6778 -1.2124
 2694TIP3    H229574   2.608   0.277  11.378 -0.8855 -0.7227 -1.1628
 2695TIP3   OH229575   0.053   0.328  15.377 -0.7725  0.3200  0.0648
 2695TIP3    H129576  -0.026   0.349  15.327  0.2797  1.1097 -1.3527
 2695TIP3    H229577   0.113   0.289  15.312  0.2639  0.4118  0.9318
 2696TIP3   OH229578   1.375   4.632  12.189  0.2662  0.9339 -0.1690
 2696TIP3    H129579   1.353   4.541  12.208  0.8528  0.9977  0.8913
 2696TIP3    H229580   1.434   4.658  12.260  1.5817  1.5836 -1.4325
 2697TIP3   OH229581   6.608   4.601  13.609  0.0997  0.2899  0.6704
 2697TIP3    H129582   6.655   4.533  13.658  0.8125 -1.1256 -1.8161
 2697TIP3    H229583   6.523   4.563  13.590  0.2027  0.3979 -0.0414
 2698TIP3   OH229584   5.144   0.562  13.207 -0.1733  0.2370  0.3397
 2698TIP3    H129585   5.072   0.499  13.206 -0.8349  0.9843 -1.1307
 2698TIP3    H229586   5.221   0.512  13.177 -1.0535  0.4826 -2.6207
 2699TIP3   OH229587   1.099   2.281   1.584 -0.3088 -0.2738 -0.1294
 2699TIP3    H129588   1.171   2.338   1.610  0.1591 -0.6432 -0.5836
 2699TIP3    H229589   1.118   2.198   1.629 -0.2761 -0.4665 -0.4952
 2700TIP3   OH229590   6.232   4.511   2.691 -0.1240 -0.5420 -0.2007
 2700TIP3    H129591   6.200   4.431   2.732 -0.4708 -0.0679  0.4794
 2700TIP3    H229592   6.276   4.482   2.611 -0.0494 -1.4251  0.1547
 2701TIP3   OH229593   4.608   0.908   4.744 -0.0006 -0.0070 -0.4895
 2701TIP3    H129594   4.664   0.901   4.667 -0.1909  0.3127 -0.6565
 2701TIP3    H229595   4.538   0.968   4.718 -1.3650 -1.6654 -0.8557
 2702TIP3   OH229596   1.856   3.519  15.060 -0.2032  0.3915  0.6512
 2702TIP3    H129597   1.790   3.570  15.107 -0.9748 -0.4602  0.5175
 2702TIP3    H229598   1.819   3.431  15.054 -0.1641  0.4544 -1.5460
 2703TIP3   OH229599   3.914   2.419   6.435 -0.2073  0.3074 -0.7536
 2703TIP3    H129600   3.919   2.345   6.374 -0.5717 -1.0704  0.8039
 2703TIP3    H229601   3.937   2.381   6.520 -0.4774  1.9873  0.1041
 2704TIP3   OH229602   3.976   2.127   5.552  0.4243 -0.2838 -0.1657
 2704TIP3    H129603   4.028   2.066   5.499  1.6653 -0.0883  0.7652
 2704TIP3    H229604   4.032   2.205   5.561 -0.9234  0.8191 -0.9143
 2705TIP3   OH229605   1.036   1.583   4.358  0.5188  0.1550 -0.1224
 2705TIP3    H129606   0.983   1.655   4.323  0.5571  1.0131  1.4590
 2705TIP3    H229607   1.111   1.627   4.399 -0.0375 -0.6538  1.8962
 2706TIP3   OH229608   0.475   5.643   2.526  0.5006  0.0589  0.2831
 2706TIP3    H129609   0.434   5.557   2.527  1.0611 -0.2207  1.7078
 2706TIP3    H229610   0.546   5.637   2.591  1.0250  1.3607 -0.1269
 2707TIP3   OH229611   6.005   1.811  14.579  0.5336 -0.3099  0.6006
 2707TIP3    H129612   5.926   1.821  14.633  1.5848  0.1127  2.1318
 2707TIP3    H229613   6.061   1.884  14.606  1.5469 -0.7420 -0.2869
 2708TIP3   OH229614   6.257   6.621  11.156 -0.1056 -0.4413 -0.3582
 2708TIP3    H129615   6.325   6.645  11.093 -0.6796  1.2187 -0.3846
 2708TIP3    H229616   6.290   6.541  11.197  2.2854  0.7803  0.2729
 2709TIP3   OH229617   2.526   1.639   3.183 -0.1531 -0.1641  0.6615
 2709TIP3    H129618   2.478   1.692   3.246  0.1192  0.3590  0.4313
 2709TIP3    H229619   2.458   1.593   3.133 -0.4574  1.0292 -0.0671
 2710TIP3   OH229620   5.732   1.773  16.770 -0.4760 -0.3748  0.1710
 2710TIP3    H129621   5.773   1.780  16.856  0.1791 -1.3153 -0.0481
 2710TIP3    H229622   5.774   1.842  16.718 -0.5799 -0.0705  0.4861
 2711TIP3   OH229623   5.741   0.039   0.147  0.1300 -0.0362 -0.1903
 2711TIP3    H129624   5.709   0.094   0.075 -1.7534  0.5213  0.9910
 2711TIP3    H229625   5.673  -0.027   0.159  0.1898  0.1329  1.3215
 2712TIP3   OH229626   2.695   3.808  16.182  0.2097 -0.3637  0.2449
 2712TIP3    H129627   2.646   3.831  16.103  0.2193  1.4039  0.7162
 2712TIP3    H229628   2.663   3.869  16.249  1.7782 -0.3552  1.0340
 2713TIP3   OH229629   2.326   0.072  12.363  0.5687  0.0712 -0.1629
 2713TIP3    H129630   2.412   0.107  12.387  0.1515  0.3032  1.0639
 2713TIP3    H229631   2.305   0.115  12.280  0.8637  1.3553  0.4030
 2714TIP3   OH229632   5.393   1.239  15.476 -0.2242 -0.3228  0.1392
 2714TIP3    H129633   5.303   1.265  15.457 -0.0478  0.0944 -0.1376
 2714TIP3    H229634   5.426   1.308  15.534  0.3016  0.1944 -0.7363
 2715TIP3   OH229635   6.351   4.560   0.716 -0.1704  0.0881 -0.5336
 2715TIP3    H129636   6.417   4.629   0.724  0.8607 -0.9694  0.3940
 2715TIP3    H229637   6.271   4.599   0.750  0.3196  0.9378 -0.3353
 2716TIP3   OH229638   0.416   1.879  17.215 -0.5514  0.0935  0.3704
 2716TIP3    H129639   0.399   1.921  17.300 -0.8115 -0.0120  0.3712
 2716TIP3    H229640   0.424   1.786  17.236  0.9962  0.2342  0.5079
 2717TIP3   OH229641   6.076   0.761   2.697  0.2195 -0.2743  0.2444
 2717TIP3    H129642   6.121   0.738   2.615  0.3380 -1.2410  0.5642
 2717TIP3    H229643   6.016   0.688   2.712  0.4906 -0.3023  1.2303
 2718TIP3   OH229644   5.812   1.855   5.001  0.0251  0.3581  0.5309
 2718TIP3    H129645   5.803   1.950   4.995 -0.9820  0.2005 -0.8253
 2718TIP3    H229646   5.733   1.825   5.046 -1.1992 -0.0745 -1.7877
 2719TIP3   OH229647   4.790   1.727  11.152 -0.0025 -0.6137 -0.1196
 2719TIP3    H129648   4.721   1.725  11.218 -2.0355 -0.7353 -2.1156
 2719TIP3    H229649   4.827   1.815  11.158  0.4592 -0.8958  1.6988
 2720TIP3   OH229650   4.232   0.131   6.100  0.6919  0.3430  0.3700
 2720TIP3    H129651   4.275   0.197   6.154 -0.5497 -0.6736  2.7291
 2720TIP3    H229652   4.140   0.134   6.128 -0.1141  0.0594 -2.0365
 2721TIP3   OH229653   1.493   0.917  17.236 -0.1098  0.1396 -0.6061
 2721TIP3    H129654   1.444   0.932  17.155 -1.3795 -0.5746  0.0138
 2721TIP3    H229655   1.524   0.826  17.228  1.1007  0.5688 -0.9739
 2722TIP3   OH229656   6.526   3.598  15.269 -0.2315  0.4885 -0.1977
 2722TIP3    H129657   6.522   3.665  15.337  1.3252  0.1210  0.2905
 2722TIP3    H229658   6.478   3.524  15.306 -0.9981  0.9325 -0.2840
 2723TIP3   OH229659   3.958   5.116  12.485 -0.0200 -0.0824 -0.2470
 2723TIP3    H129660   3.879   5.062  12.486  0.4754 -0.9940 -2.4059
 2723TIP3    H229661   3.927   5.203  12.462 -0.4324 -0.4229 -1.0432
 2724TIP3   OH229662   2.867   0.132   4.100  0.3298  0.1104  0.2021
 2724TIP3    H129663   2.924   0.067   4.060  0.5482  0.5318 -0.1744
 2724TIP3    H229664   2.810   0.162   4.029 -0.3729 -0.3081  0.5717
 2725TIP3   OH229665   2.251   2.829  14.547  0.7749 -0.4069 -0.2222
 2725TIP3    H129666   2.222   2.755  14.601 -1.2447  0.0642 -0.5911
 2725TIP3    H229667   2.236   2.906  14.601 -2.3831  0.1897 -1.7274
 2726TIP3   OH229668   3.108   6.820  13.251 -0.1838  0.1582 -0.2239
 2726TIP3    H129669   3.142   6.801  13.339 -0.5516  1.5073  0.2199
 2726TIP3    H229670   3.015   6.834  13.263 -0.8216 -2.5521 -1.3059
 2727TIP3   OH229671   5.347   2.735  12.041  0.0563  0.7747 -0.2231
 2727TIP3    H129672   5.407   2.682  11.989 -0.1467  0.4123 -0.0865
 2727TIP3    H229673   5.341   2.818  11.993 -0.3333  0.3509 -0.9172
 2728TIP3   OH229674   0.033   6.323  11.067 -0.1197  0.2280  0.1200
 2728TIP3    H129675  -0.036   6.290  11.125 -0.9283  0.3974 -0.7240
 2728TIP3    H229676  -0.002   6.405  11.032  0.6646  0.5064 -0.0392
 2729TIP3   OH229677   2.496   1.901  15.444  0.1599 -0.3254  0.1590
 2729TIP3    H129678   2.458   1.979  15.485 -2.3788 -1.4157  0.0885
 2729TIP3    H229679   2.464   1.905  15.353 -0.6457 -1.7929  0.3547
 2730TIP3   OH229680   2.838   3.131   4.661  0.1511  0.0737  0.2134
 2730TIP3    H129681   2.869   3.174   4.741 -0.0165 -2.1885  1.5728
 2730TIP3    H229682   2.790   3.199   4.614 -0.1091  1.3726  2.2424
 2731TIP3   OH229683   0.574   6.740   6.150  0.4535 -0.3530  0.4229
 2731TIP3    H129684   0.480   6.750   6.160  0.5315 -0.5840  1.5688
 2731TIP3    H229685   0.609   6.828   6.161  0.3770 -0.2810  0.0846
 2732TIP3   OH229686   6.217   4.226   3.726  0.0317  0.0498  0.3482
 2732TIP3    H129687   6.192   4.145   3.682  0.7885  0.4230 -0.8072
 2732TIP3    H229688   6.242   4.198   3.814  0.2882 -0.9701 -0.0302
 2733TIP3   OH229689   6.127   5.821  17.040 -0.2918 -0.0688  1.0087
 2733TIP3    H129690   6.116   5.888  17.108  3.9566  0.5617  1.3645
 2733TIP3    H229691   6.140   5.872  16.960 -2.0370 -0.7094  0.2906
 2734TIP3   OH229692   2.543   2.137   1.685  0.2673 -0.0549  0.4834
 2734TIP3    H129693   2.616   2.080   1.709  0.1811 -0.4548 -0.1715
 2734TIP3    H229694   2.584   2.219   1.659  0.4017  0.1368  1.2658
 2735TIP3   OH229695   3.051   2.014   1.512 -0.3883  0.5455 -0.0512
 2735TIP3    H129696   3.025   2.102   1.539  1.3908  0.5646  1.7822
 2735TIP3    H229697   3.037   1.960   1.589  1.1457 -0.2160 -0.2813
 2736TIP3   OH229698   4.050   4.240   2.148  0.0131 -0.2658 -0.1780
 2736TIP3    H129699   4.056   4.212   2.056  0.0454  0.8337 -0.5288
 2736TIP3    H229700   4.040   4.159   2.197 -1.3723 -0.8208 -1.2776
 2737TIP3   OH229701   2.161   1.279   6.033  0.1523  0.1096  0.4764
 2737TIP3    H129702   2.100   1.262   6.105 -0.7694  1.8990  0.1783
 2737TIP3    H229703   2.120   1.239   5.956  0.7049 -1.0212  0.7413
 2738TIP3   OH229704   3.208   6.185  12.942 -0.2925  0.0996  0.0155
 2738TIP3    H129705   3.229   6.216  12.853 -0.5871  1.0522  0.2609
 2738TIP3    H229706   3.291   6.153  12.977  0.2053  1.3217  0.0093
 2739TIP3   OH229707   5.429   5.920  15.609  0.0397  0.1225  0.1754
 2739TIP3    H129708   5.408   5.861  15.682 -0.4732  0.8388  0.6191
 2739TIP3    H229709   5.498   5.977  15.643 -0.3422  0.5901  0.1679
 2740TIP3   OH229710   4.460   1.523   6.046 -0.3291  0.4642 -0.3915
 2740TIP3    H129711   4.464   1.433   6.014 -1.0518  0.6594 -1.0810
 2740TIP3    H229712   4.533   1.531   6.107 -0.1019 -0.5095 -0.5279
 2741TIP3   OH229713   1.851   3.508   0.911  0.2322 -0.7802  0.5483
 2741TIP3    H129714   1.826   3.446   0.843  1.8943  0.3392 -1.2061
 2741TIP3    H229715   1.815   3.592   0.882  2.0347 -0.0387  0.3244
 2742TIP3   OH229716   1.966   0.868   3.492  0.1226  0.0563 -0.1459
 2742TIP3    H129717   1.965   0.953   3.448  2.6418 -0.4387 -1.3110
 2742TIP3    H229718   2.041   0.872   3.552  0.9416 -1.6424 -0.9719
 2743TIP3   OH229719   1.802   4.058  14.763 -0.4619  0.1452  0.4251
 2743TIP3    H129720   1.829   4.119  14.832  0.1439  1.2693 -0.7651
 2743TIP3    H229721   1.845   3.975  14.785  0.5195  0.7618  0.8651
 2744TIP3   OH229722   4.810   0.419   6.646 -0.2699 -0.2069 -0.2103
 2744TIP3    H129723   4.804   0.478   6.571  0.0090  0.1859  0.0723
 2744TIP3    H229724   4.861   0.345   6.614 -0.0374  0.0216 -0.3679
 2745TIP3   OH229725   3.417   6.415  11.151  0.7140 -0.8799 -0.7382
 2745TIP3    H129726   3.506   6.396  11.121  0.0055 -1.8860 -2.3403
 2745TIP3    H229727   3.368   6.432  11.070 -1.2878 -3.6732 -0.2493
 2746TIP3   OH229728   0.584   1.071  13.498  0.0463 -0.0423 -0.0896
 2746TIP3    H129729   0.597   1.133  13.426 -0.5073  1.9666  1.4466
 2746TIP3    H229730   0.673   1.047  13.525  0.2675 -0.9482 -1.4658
 2747TIP3   OH229731   5.059   2.334   0.765 -0.0276 -0.0166  0.7027
 2747TIP3    H129732   5.013   2.337   0.849 -0.7154 -1.6141  0.4315
 2747TIP3    H229733   5.050   2.243   0.737  2.4462 -0.1492  0.1193
 2748TIP3   OH229734   5.950   4.161  10.861 -0.3176 -0.4542 -0.0999
 2748TIP3    H129735   5.929   4.242  10.815  0.2075 -1.3417 -2.0235
 2748TIP3    H229736   5.866   4.114  10.866 -0.5811  0.0892  0.8323
 2749TIP3   OH229737   3.247   3.550  14.211  0.1321 -0.1119  0.2161
 2749TIP3    H129738   3.223   3.635  14.248  0.5511  0.0813  0.0464
 2749TIP3    H229739   3.276   3.569  14.122 -0.1612 -0.4859  0.0362
 2750TIP3   OH229740   2.362   4.338   4.471 -0.1669  0.4478 -0.0939
 2750TIP3    H129741   2.439   4.283   4.456  0.3466  1.2311 -0.4160
 2750TIP3    H229742   2.313   4.333   4.389 -0.3123  0.1726  0.0100
 2751TIP3   OH229743   1.042   0.250   4.149  0.3366  0.8332 -0.4901
 2751TIP3    H129744   1.110   0.217   4.090  0.0528 -2.4501  0.7809
 2751TIP3    H229745   0.973   0.283   4.092  1.4694  0.8951 -1.8741
 2752TIP3   OH229746   3.002   4.407  12.949  0.0504 -0.2960 -0.6132
 2752TIP3    H129747   2.933   4.362  12.900 -1.1417  0.3789  0.3715
 2752TIP3    H229748   3.077   4.409  12.890 -0.6769 -1.3183 -1.6053
 2753TIP3   OH229749   2.686   1.064  15.625 -0.4296 -0.1476  0.1031
 2753TIP3    H129750   2.729   0.979  15.637 -1.8317 -0.8779  0.1242
 2753TIP3    H229751   2.659   1.089  15.713  0.3244  0.5360  0.1566
 2754TIP3   OH229752   1.611   2.715  15.359  0.0247 -0.2550  0.6527
 2754TIP3    H129753   1.602   2.808  15.339 -1.9950 -0.7936 -1.2935
 2754TIP3    H229754   1.531   2.692  15.406 -1.2737 -1.6642 -2.0205
 2755TIP3   OH229755   6.742   3.306  13.025 -0.2109  0.2800  0.5984
 2755TIP3    H129756   6.650   3.291  13.003  0.2129 -2.1389  0.1323
 2755TIP3    H229757   6.785   3.221  13.008  1.7905  0.8307  2.3993
 2756TIP3   OH229758   6.170   5.025  16.303 -0.1306  0.1003 -0.1337
 2756TIP3    H129759   6.255   5.048  16.339  0.6134 -0.6298 -1.3483
 2756TIP3    H229760   6.143   4.948  16.351  1.1948 -1.3094 -1.5335
 2757TIP3   OH229761   3.145   1.072   2.581 -0.8970  0.1332 -0.5387
 2757TIP3    H129762   3.063   1.121   2.589 -0.6144  0.8852 -2.0475
 2757TIP3    H229763   3.139   1.004   2.649 -0.3613  3.4550  3.1710
 2758TIP3   OH229764   6.471   0.407   4.287 -0.2400  0.0435  0.5970
 2758TIP3    H129765   6.394   0.366   4.249  0.1254  1.5943 -2.0687
 2758TIP3    H229766   6.440   0.445   4.369 -1.0456 -3.5287  2.1322
 2759TIP3   OH229767   3.640   2.907   2.115  0.6295 -0.0487 -0.4436
 2759TIP3    H129768   3.609   2.856   2.040  1.2049  1.2588 -1.6012
 2759TIP3    H229769   3.609   2.996   2.099  0.0438  0.0976  1.3079
 2760TIP3   OH229770   5.097   2.556  11.884  0.1426  0.2383  0.4448
 2760TIP3    H129771   5.182   2.564  11.928  0.3385  3.4232 -0.2344
 2760TIP3    H229772   5.048   2.632  11.915 -0.7738  0.9905 -2.5721
 2761TIP3   OH229773   3.155   1.576   0.331  0.2240  0.5013 -0.1322
 2761TIP3    H129774   3.142   1.653   0.275  2.3737 -0.7221 -2.5161
 2761TIP3    H229775   3.072   1.529   0.327 -0.1637  1.2264 -1.0750
 2762TIP3   OH229776   3.628   4.491   5.145 -0.2823  0.5875  0.3615
 2762TIP3    H129777   3.693   4.498   5.076 -0.4734  1.8506  0.2857
 2762TIP3    H229778   3.588   4.405   5.131  2.5740 -1.0775  1.5402
 2763TIP3   OH229779   4.046   5.856   2.648  0.5951 -0.2826  0.1813
 2763TIP3    H129780   4.017   5.788   2.708  1.2665  0.6929  1.6752
 2763TIP3    H229781   4.142   5.851   2.649  0.7184  1.3547  1.2050
 2764TIP3   OH229782   0.667   3.107   3.391 -0.2020 -0.6905 -0.0461
 2764TIP3    H129783   0.739   3.137   3.447  1.2204 -1.3597 -1.4086
 2764TIP3    H229784   0.638   3.025   3.430  0.6330 -1.0476 -0.1626
 2765TIP3   OH229785   2.726   3.200   2.289 -0.2339 -0.4272  0.3933
 2765TIP3    H129786   2.785   3.227   2.219  0.8603 -0.8686  1.1082
 2765TIP3    H229787   2.644   3.244   2.270  0.9249  1.9344  0.5175
 2766TIP3   OH229788   1.236   3.320   4.304 -0.0403  0.4948 -0.1809
 2766TIP3    H129789   1.246   3.411   4.277 -0.5494  0.8182  0.6890
 2766TIP3    H229790   1.232   3.271   4.222  0.3391  1.2397 -0.6559
 2767TIP3   OH229791   0.880   4.106  13.983 -0.7936 -0.2517  0.4717
 2767TIP3    H129792   0.857   4.085  14.074 -0.4339  0.1959  0.6734
 2767TIP3    H229793   0.896   4.021  13.942  2.5263 -0.4290  1.7858
 2768TIP3   OH229794   1.672   6.107   1.999  0.6091 -0.5551  0.3447
 2768TIP3    H129795   1.613   6.033   2.012  0.0859 -0.1689  0.2056
 2768TIP3    H229796   1.657   6.163   2.075 -1.2573  0.9024 -0.9803
 2769TIP3   OH229797   5.519   5.525   5.307  0.7329 -0.0464  0.4612
 2769TIP3    H129798   5.468   5.595   5.265  0.8724 -0.4078 -0.3209
 2769TIP3    H229799   5.580   5.571   5.364  0.8404  0.4784 -0.0688
 2770TIP3   OH229800   5.575   1.485  13.746 -0.2381  0.4088 -0.0948
 2770TIP3    H129801   5.649   1.424  13.739 -1.0232 -0.5748 -0.0588
 2770TIP3    H229802   5.530   1.478  13.661  0.0021  1.4064 -0.3184
 2771TIP3   OH229803   4.623   5.882  16.121 -0.0438  0.1617  0.3940
 2771TIP3    H129804   4.715   5.886  16.094  0.2734  0.8142  1.4838
 2771TIP3    H229805   4.612   5.793  16.154  0.6537  0.5346  1.7045
 2772TIP3   OH229806   0.153   5.222   6.643  0.4582  0.2794 -0.3281
 2772TIP3    H129807   0.212   5.296   6.627 -0.5620  1.2236  0.1411
 2772TIP3    H229808   0.131   5.229   6.736 -1.1237  0.5121 -0.7001
 2773TIP3   OH229809   4.561   6.411  15.904 -0.3402 -0.8718  0.2795
 2773TIP3    H129810   4.594   6.356  15.975  1.1438  0.1275  0.3971
 2773TIP3    H229811   4.526   6.489  15.948 -1.1768 -1.0932  0.0260
 2774TIP3   OH229812   1.138   1.053  14.166  0.1930 -0.3413  0.4285
 2774TIP3    H129813   1.094   1.125  14.122 -2.4262 -2.5006 -0.7572
 2774TIP3    H229814   1.224   1.047  14.123 -0.5160  0.5058 -1.1747
 2775TIP3   OH229815   2.060   1.498  16.615  0.4023  0.1248  0.2319
 2775TIP3    H129816   1.993   1.497  16.684 -1.4585  1.5552 -1.4452
 2775TIP3    H229817   2.097   1.410  16.617 -1.4208 -0.6803  1.3280
 2776TIP3   OH229818   1.800   0.713  13.675 -0.1851  0.0731 -1.0729
 2776TIP3    H129819   1.817   0.678  13.587 -1.5547  0.2626 -1.4374
 2776TIP3    H229820   1.777   0.804  13.660 -1.9929 -0.2920 -0.7088
 2777TIP3   OH229821   5.630   2.225  15.478 -0.3416  0.2870 -0.1034
 2777TIP3    H129822   5.613   2.189  15.565  0.7560  0.6895  0.2968
 2777TIP3    H229823   5.684   2.159  15.435 -0.9049  0.0783 -0.4854
 2778TIP3   OH229824   1.542   5.486  15.594 -0.2045  0.1549  0.4712
 2778TIP3    H129825   1.625   5.499  15.548 -0.7466 -0.3470 -0.6789
 2778TIP3    H229826   1.556   5.408  15.648  0.3633  0.6229  1.0230
 2779TIP3   OH229827   6.459   1.977   5.387 -0.3849  0.3377  0.2778
 2779TIP3    H129828   6.483   1.901   5.440 -0.6211  1.2638  1.7748
 2779TIP3    H229829   6.398   2.026   5.442  0.0528  1.8069 -0.4932
 2780TIP3   OH229830   4.336   3.917  12.326 -0.0016  0.4785 -0.3986
 2780TIP3    H129831   4.326   3.870  12.244 -0.8862  0.9752 -0.5905
 2780TIP3    H229832   4.410   3.977  12.311 -1.1829  1.7486 -1.4338
 2781TIP3   OH229833   0.890   0.068  15.710 -0.1818 -0.2491  0.6645
 2781TIP3    H129834   0.852  -0.013  15.676  0.0438  0.0311 -0.2868
 2781TIP3    H229835   0.817   0.130  15.710  0.4367  0.6953 -2.4764
 2782TIP3   OH229836   2.272   2.770  10.412  0.5220  0.5650 -0.1385
 2782TIP3    H129837   2.221   2.750  10.490 -1.0917  0.0975 -1.2807
 2782TIP3    H229838   2.280   2.686  10.367 -0.3189  1.1862 -1.4860
 2783TIP3   OH229839   5.339   0.773  16.675 -0.1569 -0.1123  0.3592
 2783TIP3    H129840   5.390   0.696  16.648 -1.5789 -0.9763  0.0624
 2783TIP3    H229841   5.250   0.754  16.648 -0.7082  1.2704  1.0951
 2784TIP3   OH229842   4.868   5.033   4.359  0.3859  0.3445  0.2504
 2784TIP3    H129843   4.953   4.998   4.333 -0.1773 -1.2025  0.4112
 2784TIP3    H229844   4.890   5.105   4.419  1.5762  0.2304 -0.0203
 2785TIP3   OH229845   4.075   4.406   6.059 -1.0134  0.3313  0.3029
 2785TIP3    H129846   4.108   4.341   6.121 -0.2946  0.7955  0.4125
 2785TIP3    H229847   4.007   4.452   6.107  0.4167  1.5566  1.2188
 2786TIP3   OH229848   4.132   4.566   3.621  0.2605  0.4877 -0.0368
 2786TIP3    H129849   4.156   4.502   3.554 -1.1431 -0.6665  0.5040
 2786TIP3    H229850   4.090   4.637   3.573 -0.4711 -0.1909 -0.4241
 2787TIP3   OH229851   5.424   4.711  11.975  0.0694  0.2460  0.3449
 2787TIP3    H129852   5.413   4.722  11.881  1.0276  1.1623  0.3201
 2787TIP3    H229853   5.477   4.632  11.985 -1.3453 -0.7586  0.2127
 2788TIP3   OH229854   2.791   2.807   4.047  0.1927  0.3527 -0.1241
 2788TIP3    H129855   2.750   2.732   4.091  1.3973 -0.3519 -0.1461
 2788TIP3    H229856   2.766   2.798   3.956  0.6821 -0.2850 -0.2023
 2789TIP3   OH229857   1.018   5.005   4.381 -0.0834  0.3222  0.8405
 2789TIP3    H129858   0.945   5.065   4.365 -0.1339  0.5057  1.6970
 2789TIP3    H229859   0.999   4.967   4.467  1.5142  1.4353  1.7643
 2790TIP3   OH229860   6.749   0.900   2.555  0.6115  0.3592 -0.5511
 2790TIP3    H129861   6.675   0.842   2.539  0.7898  0.1618 -0.6564
 2790TIP3    H229862   6.709   0.987   2.565  0.4632  0.4492 -1.7898
 2791TIP3   OH229863   5.841   5.957   4.864  0.1238  0.0687 -0.1995
 2791TIP3    H129864   5.788   5.920   4.935  0.3543  0.9528  0.4424
 2791TIP3    H229865   5.922   5.985   4.907  0.0371  1.1259 -0.7046
 2792TIP3   OH229866   6.270   4.514  12.242 -0.0452  0.1654 -0.2306
 2792TIP3    H129867   6.316   4.598  12.238 -0.8962  0.6090 -1.0599
 2792TIP3    H229868   6.204   4.526  12.309 -0.3548  0.2597 -0.5497
 2793TIP3   OH229869   3.918   5.037  13.100 -0.4293 -0.1656  0.2003
 2793TIP3    H129870   3.968   5.027  13.019 -0.2535  0.5534  0.2145
 2793TIP3    H229871   3.832   5.001  13.081 -0.7471  1.0081 -0.6563
 2794TIP3   OH229872   4.814   3.910  14.937 -0.0174 -0.4307  0.2568
 2794TIP3    H129873   4.764   3.876  14.862 -0.4529 -0.2859  0.4784
 2794TIP3    H229874   4.861   3.834  14.971  1.5944 -0.1729 -1.2339
 2795TIP3   OH229875   0.763   5.558   0.535 -0.6093  0.0654  0.1199
 2795TIP3    H129876   0.779   5.595   0.447  2.7409 -3.1434 -0.8759
 2795TIP3    H229877   0.700   5.488   0.520 -0.5678 -0.0334  0.4122
 2796TIP3   OH229878   2.252   2.983   0.056 -0.1840  0.2693 -0.2723
 2796TIP3    H129879   2.305   2.909   0.027  0.2988 -0.2861  1.8867
 2796TIP3    H229880   2.203   2.951   0.131 -1.0521  1.7525 -0.1456
 2797TIP3   OH229881   0.158   3.294   2.306 -0.6138 -0.3728  0.2272
 2797TIP3    H129882   0.073   3.276   2.266 -0.6828 -0.8905  0.5850
 2797TIP3    H229883   0.205   3.346   2.241 -0.1618 -2.4220 -1.2051
 2798TIP3   OH229884   0.997   5.546  13.971  0.2748  0.0922 -0.8839
 2798TIP3    H129885   0.947   5.591  14.039  0.4182 -0.4370 -0.4236
 2798TIP3    H229886   0.983   5.599  13.892  1.5703  1.7797 -0.0722
 2799TIP3   OH229887   5.573   1.151  11.414 -0.0934 -0.1021  1.0276
 2799TIP3    H129888   5.524   1.134  11.494  0.0817 -0.0143  1.1512
 2799TIP3    H229889   5.603   1.065  11.385  1.2902  0.0410  1.9646
 2800TIP3   OH229890   5.221   2.601  15.682  1.0141 -0.5906 -0.0090
 2800TIP3    H129891   5.169   2.573  15.758  1.2565 -1.9842 -0.3346
 2800TIP3    H229892   5.307   2.562  15.696  0.6195 -2.2114 -1.7425
 2801TIP3   OH229893   5.195   2.320   2.970  0.3680  0.5805 -0.9574
 2801TIP3    H129894   5.168   2.228   2.976 -1.1672  1.0908  1.2999
 2801TIP3    H229895   5.120   2.365   2.932 -0.4292  1.3836  1.3850
 2802TIP3   OH229896   0.318   1.741  14.672  0.1609  0.7513 -0.2170
 2802TIP3    H129897   0.271   1.777  14.746  0.6833 -0.8786  0.9826
 2802TIP3    H229898   0.324   1.813  14.609 -0.3989  2.1445  1.2599
 2803TIP3   OH229899   0.810   0.302   3.968 -0.0095  0.4501 -0.0547
 2803TIP3    H129900   0.818   0.224   3.913  1.3955 -1.2259  2.3008
 2803TIP3    H229901   0.742   0.355   3.926 -0.1716 -1.4603 -2.4096
 2804TIP3   OH229902   1.642   4.585  15.617  0.2620  0.4698 -0.2192
 2804TIP3    H129903   1.730   4.556  15.642  0.5119  0.7958 -0.6959
 2804TIP3    H229904   1.584   4.547  15.684  0.6354 -0.6543 -0.5088
 2805TIP3   OH229905   2.502   1.900  12.376 -0.2382  0.2014  0.3592
 2805TIP3    H129906   2.519   1.828  12.436 -2.0205  2.6074  4.1107
 2805TIP3    H229907   2.559   1.971  12.406  0.9912  0.7275 -2.8001
 2806TIP3   OH229908   3.180   1.057  16.508 -0.1442 -0.3741 -0.6323
 2806TIP3    H129909   3.103   1.071  16.452 -0.5613 -0.1614 -0.0199
 2806TIP3    H229910   3.144   1.022  16.589  0.5177 -1.2796 -0.7210
 2807TIP3   OH229911   3.873   2.128  12.204 -0.7733  0.1733  0.0840
 2807TIP3    H129912   3.787   2.108  12.241 -1.0656  1.8787  0.4066
 2807TIP3    H229913   3.924   2.159  12.279  0.2759 -1.1875 -0.0274
 2808TIP3   OH229914   5.284   1.782   0.373  0.4968  0.4238 -0.0200
 2808TIP3    H129915   5.238   1.833   0.440  2.5157  0.9471  1.0362
 2808TIP3    H229916   5.220   1.773   0.303 -1.2945  0.8994  1.4603
 2809TIP3   OH229917   5.184   6.640  11.465  0.0207 -0.1771 -0.3846
 2809TIP3    H129918   5.189   6.639  11.370  1.6237 -0.8782 -0.3217
 2809TIP3    H229919   5.272   6.665  11.493 -0.9004  1.9198  0.9092
 2810TIP3   OH229920   6.382   1.553   5.034 -0.2442 -0.0658 -0.3802
 2810TIP3    H129921   6.383   1.646   5.057  0.6099 -0.4570  1.3377
 2810TIP3    H229922   6.446   1.512   5.092  0.8308 -1.4764 -2.4105
 2811TIP3   OH229923   0.434   3.148  15.252  0.6031  0.6309 -0.2852
 2811TIP3    H129924   0.445   3.236  15.216  0.6175  0.6755 -0.1710
 2811TIP3    H229925   0.366   3.157  15.318  1.9461  0.9490  1.1116
 2812TIP3   OH229926   2.840   1.068  11.924  0.3644  0.6930  0.1632
 2812TIP3    H129927   2.791   1.121  11.986 -1.5111  0.7230 -1.2622
 2812TIP3    H229928   2.808   0.979  11.936  1.0554  0.4471  0.2384
 2813TIP3   OH229929   1.634   3.551   4.999 -0.4629 -1.1988 -0.1266
 2813TIP3    H129930   1.610   3.640   4.975  0.7321 -0.9039 -0.3070
 2813TIP3    H229931   1.557   3.515   5.042 -1.1836 -0.3041 -0.6524
 2814TIP3   OH229932   4.179   3.326  12.598  0.5743  0.0624 -0.3804
 2814TIP3    H129933   4.189   3.386  12.672 -1.6146 -0.0133  0.0497
 2814TIP3    H229934   4.119   3.258  12.631  0.4087 -0.5552 -1.8859
 2815TIP3   OH229935   3.287   2.161   3.344 -0.1006 -0.1143  0.5341
 2815TIP3    H129936   3.270   2.218   3.419  0.8246 -0.3356  0.9328
 2815TIP3    H229937   3.248   2.077   3.368 -1.6606  0.3850 -0.1478
 2816TIP3   OH229938   3.281   2.957  16.143  0.1538  0.3532  0.1603
 2816TIP3    H129939   3.257   2.948  16.051 -1.2324  2.0697  0.2971
 2816TIP3    H229940   3.235   3.035  16.172  1.2305  0.3247  2.1129
 2817TIP3   OH229941   5.692   4.252   1.955  0.4597 -0.1010  0.2878
 2817TIP3    H129942   5.650   4.166   1.955 -1.7214  0.8950 -0.0976
 2817TIP3    H229943   5.668   4.290   1.870  1.8885  0.6733  0.2013
 2818TIP3   OH229944   3.261   6.647  16.942 -0.0518  0.2816 -0.1186
 2818TIP3    H129945   3.297   6.566  16.978  0.1941  0.2322 -0.4789
 2818TIP3    H229946   3.185   6.618  16.891  1.1304  0.0625 -1.8206
 2819TIP3   OH229947   1.406   0.183   3.167  0.1328 -0.2076  0.1092
 2819TIP3    H129948   1.311   0.182   3.165  0.1347  0.2623 -0.4387
 2819TIP3    H229949   1.429   0.271   3.196  0.3982 -0.2132 -0.0755
 2820TIP3   OH229950   3.800   5.557   1.042  0.0977  0.1178  0.4526
 2820TIP3    H129951   3.809   5.632   1.100 -0.3121  0.4276  0.1204
 2820TIP3    H229952   3.822   5.482   1.097 -0.6404  0.3756  1.1217
 2821TIP3   OH229953   5.206   4.155  16.882  0.1904  0.4784 -0.3773
 2821TIP3    H129954   5.129   4.143  16.827 -0.3999  2.1548  0.0347
 2821TIP3    H229955   5.268   4.088  16.852 -1.4897 -1.0886 -0.5383
 2822TIP3   OH229956   2.241   0.673  11.262 -0.4142 -0.1837  0.4268
 2822TIP3    H129957   2.161   0.675  11.209 -1.6624  0.9904  2.2656
 2822TIP3    H229958   2.252   0.581  11.285 -0.7335 -0.4816 -0.5407
 2823TIP3   OH229959   4.673   4.625   2.066 -0.1805  0.7488  0.5055
 2823TIP3    H129960   4.605   4.628   1.999  0.6032  1.9452 -0.2663
 2823TIP3    H229961   4.677   4.714   2.100 -0.8693  0.0708  2.5024
 2824TIP3   OH229962   1.365   1.716  12.593 -0.1878 -0.0165  0.9887
 2824TIP3    H129963   1.424   1.674  12.531 -0.3815 -0.3492  1.0311
 2824TIP3    H229964   1.407   1.800  12.613  0.0517 -0.0637  0.6849
 2825TIP3   OH229965   5.681   4.014  13.758  0.2726  0.3140  0.0141
 2825TIP3    H129966   5.640   3.942  13.806 -0.4709  0.4275 -0.4257
 2825TIP3    H229967   5.764   3.978  13.726 -0.3626 -0.5512 -0.7042
 2826TIP3   OH229968   3.129   6.548   4.017 -0.2665  0.4148 -0.6230
 2826TIP3    H129969   3.066   6.476   4.016 -0.3739  0.4983  0.0496
 2826TIP3    H229970   3.098   6.608   3.949 -0.5146  0.1197 -0.7730
 2827TIP3   OH229971   2.460   4.575   0.352  0.3042  0.1863  0.0694
 2827TIP3    H129972   2.383   4.576   0.409 -0.1188  0.4335 -0.4965
 2827TIP3    H229973   2.527   4.621   0.402  0.2402 -0.4549  0.7722
 2828TIP3   OH229974   2.248   6.755  15.616  0.0388 -0.5282 -0.1344
 2828TIP3    H129975   2.241   6.674  15.567  0.3413 -0.0715 -0.9484
 2828TIP3    H229976   2.209   6.821  15.559  0.7911  0.0878  0.0509
 2829TIP3   OH229977   0.542   4.473   0.941 -0.0637 -0.3522 -0.1992
 2829TIP3    H129978   0.470   4.450   1.000 -0.1004 -0.6987 -0.3767
 2829TIP3    H229979   0.504   4.538   0.882 -0.2188 -0.4979 -0.2614
 2830TIP3   OH229980   5.809   0.932   4.580  0.3889 -0.0964 -0.4275
 2830TIP3    H129981   5.877   0.989   4.542  0.4989  0.6319  0.8305
 2830TIP3    H229982   5.750   0.914   4.507  0.0865  2.0299 -0.7784
 2831TIP3   OH229983   4.479   1.025   2.307  0.2608  0.2891  0.0249
 2831TIP3    H129984   4.481   0.948   2.251 -0.7587 -0.3137  0.8024
 2831TIP3    H229985   4.387   1.049   2.314  0.3069  0.0824  1.7886
 2832TIP3   OH229986   1.601   6.611   1.738  0.3877 -0.1542 -0.0914
 2832TIP3    H129987   1.588   6.536   1.797  0.2859  0.0900  0.1983
 2832TIP3    H229988   1.517   6.622   1.695  1.1503 -1.9682 -2.2403
 2833TIP3   OH229989   6.424   6.134   1.153 -0.2349  0.9230  0.2539
 2833TIP3    H129990   6.365   6.209   1.147 -0.5525  0.8516  2.0474
 2833TIP3    H229991   6.373   6.066   1.197  0.3569 -0.0522 -0.5088
 2834TIP3   OH229992   3.534   6.300  15.526 -0.8248 -0.2114 -0.3462
 2834TIP3    H129993   3.460   6.251  15.561 -0.0928 -0.4832  0.8534
 2834TIP3    H229994   3.546   6.373  15.587 -0.8208  0.5020 -1.1746
 2835TIP3   OH229995   6.298   1.779   2.876 -0.3907 -0.0776 -0.0286
 2835TIP3    H129996   6.385   1.819   2.877 -1.5215  2.5603 -1.2751
 2835TIP3    H229997   6.314   1.689   2.847  1.6795  1.0823 -2.9220
 2836TIP3   OH229998   5.979   5.752  12.706 -0.2454  0.1990 -0.3338
 2836TIP3    H129999   5.887   5.778  12.702 -0.2300  0.6938  1.6291
 2836TIP3    H230000   6.026   5.819  12.657 -0.8801  0.2083 -0.9321
 2837TIP3   OH230001   0.294   2.369   4.662  0.0576  0.3651  0.0856
 2837TIP3    H130002   0.320   2.277   4.668 -1.6819 -0.1114  1.6292
 2837TIP3    H230003   0.254   2.377   4.576  0.1695 -0.3475 -0.0413
 2838TIP3   OH230004   1.020   6.096   4.597 -0.3375  0.3026  0.6015
 2838TIP3    H130005   1.035   6.001   4.590 -0.7954  0.3851 -3.2122
 2838TIP3    H230006   0.927   6.103   4.621 -0.8383 -0.3021 -0.9871
 2839TIP3   OH230007   2.929   5.320  14.201 -0.2123 -0.1513  0.3018
 2839TIP3    H130008   2.951   5.369  14.280 -0.0449  0.4906 -0.1330
 2839TIP3    H230009   2.840   5.288  14.216 -0.4235  0.5137  0.4889
 2840TIP3   OH230010   1.324   6.085  15.354 -0.5649  0.5123  0.6899
 2840TIP3    H130011   1.269   6.161  15.333  0.2836  0.8120 -0.5260
 2840TIP3    H230012   1.355   6.054  15.269  0.1635 -0.4014  1.2782
 2841TIP3   OH230013   0.472   3.158   5.255 -0.4094 -0.0503 -1.0609
 2841TIP3    H130014   0.508   3.245   5.270  2.5123 -1.3596  0.4236
 2841TIP3    H230015   0.538   3.098   5.292 -2.7682 -2.8571 -1.0286
 2842TIP3   OH230016   3.312   6.569   0.862  0.4576  0.1760 -0.0103
 2842TIP3    H130017   3.278   6.583   0.774  1.5256  1.0824 -0.2936
 2842TIP3    H230018   3.249   6.508   0.902 -0.7574  0.7585 -0.9494
 2843TIP3   OH230019   2.325   5.873   1.568 -0.2047 -0.9527  0.1316
 2843TIP3    H130020   2.353   5.856   1.658 -2.4549 -1.6412  0.7542
 2843TIP3    H230021   2.309   5.967   1.565 -1.6692 -1.1529  0.9579
 2844TIP3   OH230022   0.731   0.357   6.615  0.7714  0.1428 -0.5269
 2844TIP3    H130023   0.823   0.335   6.600  1.1037 -0.7791  2.2119
 2844TIP3    H230024   0.688   0.273   6.629 -0.3969  0.6076 -1.1653
 2845TIP3   OH230025   2.492   6.195   5.457 -0.1524 -0.5265  0.2078
 2845TIP3    H130026   2.559   6.173   5.392 -1.0957 -2.1088 -0.2850
 2845TIP3    H230027   2.430   6.122   5.453 -0.0765 -0.8742  3.1460
 2846TIP3   OH230028   4.189   0.461  16.255 -0.0088 -0.6946  0.5654
 2846TIP3    H130029   4.223   0.394  16.194 -1.1800  0.3796 -1.3631
 2846TIP3    H230030   4.100   0.477  16.226  0.2245  1.6877  0.9819
 2847TIP3   OH230031   2.320   6.274  13.998 -0.5380  0.4389 -0.2501
 2847TIP3    H130032   2.403   6.228  13.988  0.4738  2.0881  0.0852
 2847TIP3    H230033   2.255   6.217  13.956  0.9135 -0.4262 -1.4201
 2848TIP3   OH230034   1.837   0.127  13.207  0.3790 -0.0510  0.1667
 2848TIP3    H130035   1.849   0.143  13.301  0.0093 -0.3133  0.2567
 2848TIP3    H230036   1.855   0.034  13.196 -1.8281 -0.5656  0.3656
 2849TIP3   OH230037   2.055   3.372  10.752 -0.0015  0.4833  0.0051
 2849TIP3    H130038   2.092   3.449  10.708 -2.1088  1.9738  0.6726
 2849TIP3    H230039   1.961   3.375  10.730 -0.6479 -0.2127  2.3992
 2850TIP3   OH230040   4.868   1.306   0.779 -0.6505  0.1434 -0.2903
 2850TIP3    H130041   4.874   1.271   0.868  1.6573  1.8661  0.3327
 2850TIP3    H230042   4.837   1.233   0.726 -2.7338 -0.7433  1.9958
 2851TIP3   OH230043   5.062   5.782  16.500  0.0294  0.0904  0.6573
 2851TIP3    H130044   5.012   5.827  16.569  0.4356  0.8238  0.4853
 2851TIP3    H230045   5.010   5.795  16.421  0.2885  0.5146  0.5527
 2852TIP3   OH230046   5.179   3.604  15.429  0.0570  0.5487 -0.0588
 2852TIP3    H130047   5.194   3.688  15.385  1.2105  0.0956 -0.5789
 2852TIP3    H230048   5.174   3.626  15.522  0.7673  1.1403 -0.1503
 2853TIP3   OH230049   1.120   5.673   0.206 -0.9337  0.2927  0.2867
 2853TIP3    H130050   1.148   5.670   0.297 -2.1213 -0.3410  0.6595
 2853TIP3    H230051   1.163   5.598   0.165 -1.0063  0.1244  0.5184
 2854TIP3   OH230052   4.153   0.406  14.741 -0.3717 -0.0219 -0.0550
 2854TIP3    H130053   4.083   0.453  14.697  1.0545  1.1469 -1.1749
 2854TIP3    H230054   4.116   0.320  14.761 -1.1515 -0.6013 -3.4417
 2855TIP3   OH230055   0.450   5.703   0.126 -0.1751  0.5276 -0.5171
 2855TIP3    H130056   0.485   5.778   0.175  2.4095 -0.7409 -0.2563
 2855TIP3    H230057   0.504   5.629   0.153 -3.6511 -1.8770  0.4708
 2856TIP3   OH230058   6.315   1.717   0.691 -0.5843 -0.6576 -0.8703
 2856TIP3    H130059   6.326   1.811   0.674 -0.1069 -0.8078 -1.4345
 2856TIP3    H230060   6.245   1.689   0.632 -1.2351 -0.5181 -0.1800
 2857TIP3   OH230061   5.189   2.466   1.774 -0.7205 -0.6707  0.3565
 2857TIP3    H130062   5.255   2.460   1.705 -0.4389  2.6581  0.1382
 2857TIP3    H230063   5.105   2.454   1.728 -0.5380  1.5146 -0.7198
 2858TIP3   OH230064   3.251   4.843   0.149 -0.0616  0.4209 -0.0681
 2858TIP3    H130065   3.255   4.749   0.166 -0.2237 -0.0521 -2.2459
 2858TIP3    H230066   3.301   4.854   0.068  0.0837  2.2524  0.2294
 2859TIP3   OH230067   5.862   1.982  10.627  0.1154  0.3820  0.5310
 2859TIP3    H130068   5.812   1.929  10.566  1.0715  0.1586 -0.0833
 2859TIP3    H230069   5.811   1.982  10.708 -0.7223 -0.0564  0.0039
 2860TIP3   OH230070   6.225   2.340  15.555 -0.5001  0.1074 -0.2904
 2860TIP3    H130071   6.255   2.253  15.530 -0.6248 -0.1724  0.5170
 2860TIP3    H230072   6.260   2.353  15.643 -1.7401  0.2557  0.1955
 2861TIP3   OH230073   1.371   5.393  12.383  0.6993  0.3711 -0.4452
 2861TIP3    H130074   1.456   5.420  12.418  1.5206  0.2086 -2.1626
 2861TIP3    H230075   1.389   5.308  12.341 -1.2301 -1.7482  2.6125
 2862TIP3   OH230076   1.589   1.102  11.288 -0.0469  0.3573  0.0735
 2862TIP3    H130077   1.595   1.027  11.230 -0.2993  1.2795 -1.1952
 2862TIP3    H230078   1.649   1.082  11.360  2.8148  0.5589 -2.1025
 2863TIP3   OH230079   0.325   6.776  15.758 -0.1608 -0.0656  0.1843
 2863TIP3    H130080   0.248   6.821  15.722 -1.8488 -2.2085  0.8960
 2863TIP3    H230081   0.329   6.804  15.849  1.4322  1.8813 -0.3958
 2864TIP3   OH230082   3.842   4.186   3.772  0.3546 -0.1975  0.5662
 2864TIP3    H130083   3.846   4.274   3.737  0.7853  0.0785  1.2769
 2864TIP3    H230084   3.823   4.130   3.697  0.2521  0.4795  0.0857
 2865TIP3   OH230085   0.004   2.211  14.619  0.5626 -0.3227  0.4069
 2865TIP3    H130086  -0.013   2.131  14.669  0.3327 -1.4108 -1.3496
 2865TIP3    H230087   0.069   2.186  14.553  1.2551  1.2099  0.4439
 2866TIP3   OH230088   4.201   6.069   4.434  0.4496 -0.4528 -0.2900
 2866TIP3    H130089   4.109   6.065   4.459  0.0811 -1.5852 -1.6472
 2866TIP3    H230090   4.248   6.093   4.514 -1.1234  1.3978  0.1355
 2867TIP3   OH230091   1.943   6.399   5.850  0.4176  0.4777 -0.1246
 2867TIP3    H130092   1.885   6.407   5.774 -1.3776 -0.1532  1.1046
 2867TIP3    H230093   1.914   6.468   5.909  0.4065 -0.3064  0.8106
 2868TIP3   OH230094   0.435   5.360  15.228  0.3466 -0.3288 -0.4304
 2868TIP3    H130095   0.435   5.428  15.161  0.5264  0.2061  0.1072
 2868TIP3    H230096   0.381   5.395  15.299 -0.5159 -1.2219 -0.6184
 2869TIP3   OH230097   0.302   2.422  10.303  0.0481  0.2279 -0.0837
 2869TIP3    H130098   0.253   2.474  10.366 -0.6472  0.0915 -0.5014
 2869TIP3    H230099   0.262   2.444  10.218  0.4079 -0.2344 -0.3758
 2870TIP3   OH230100   0.341   1.541   0.310 -0.0043  0.1310  0.3074
 2870TIP3    H130101   0.341   1.603   0.383  1.3270  0.6066 -0.0649
 2870TIP3    H230102   0.359   1.456   0.351  0.6641  0.3839  0.5699
 2871TIP3   OH230103   5.782   4.007   0.187  0.0676 -0.1866  0.1013
 2871TIP3    H130104   5.784   4.096   0.149 -0.4100  0.2454  1.0575
 2871TIP3    H230105   5.711   3.963   0.140  0.2802 -0.0601 -0.3520
 2872TIP3   OH230106   3.227   4.198  11.954 -0.0717 -0.0487 -0.4705
 2872TIP3    H130107   3.244   4.208  12.048 -0.1306  0.4079 -0.5088
 2872TIP3    H230108   3.296   4.248  11.911  0.4816 -0.9891 -0.6940
 2873TIP3   OH230109   0.708   4.928  16.933 -0.0476  0.1999 -0.0851
 2873TIP3    H130110   0.710   4.986  17.009  2.0335  0.8881 -0.5921
 2873TIP3    H230111   0.719   4.840  16.970  0.7408  0.5096  0.4485
 2874TIP3   OH230112   1.408   1.318  13.347 -0.0249 -0.5514  0.4501
 2874TIP3    H130113   1.441   1.401  13.313 -2.5355  1.7848  3.1430
 2874TIP3    H230114   1.329   1.301  13.296  1.7768 -2.8301 -1.8267
 2875TIP3   OH230115   3.375   4.170  15.874 -0.5122 -0.6466 -0.2711
 2875TIP3    H130116   3.316   4.243  15.853  0.2258 -0.0048 -0.1453
 2875TIP3    H230117   3.325   4.117  15.936 -0.6414  0.3760  0.5390
 2876TIP3   OH230118   0.236   0.215   1.123 -0.0699  0.2327 -0.1126
 2876TIP3    H130119   0.280   0.134   1.098 -1.5687 -0.0488 -2.1472
 2876TIP3    H230120   0.152   0.187   1.159 -0.0088  0.8436  0.5275
 2877TIP3   OH230121   6.796   3.807  14.004 -0.2969  0.8943  0.3151
 2877TIP3    H130122   6.758   3.886  13.966 -1.4460 -0.0182 -0.4999
 2877TIP3    H230123   6.726   3.742  14.001  0.8025 -0.3459  0.3803
 2878TIP3   OH230124   6.385   5.544   0.819 -0.7468 -0.3751 -0.1761
 2878TIP3    H130125   6.318   5.520   0.883 -2.1124  0.6530 -1.1796
 2878TIP3    H230126   6.352   5.510   0.736  1.6052 -2.8464 -0.2377
 2879TIP3   OH230127   1.876   3.393  13.655  0.1452 -0.8979  0.2286
 2879TIP3    H130128   1.946   3.329  13.645  1.1567 -0.1559  2.0628
 2879TIP3    H230129   1.920   3.478  13.653 -1.1668 -0.2102 -2.0995
 2880TIP3   OH230130   3.898   1.269   4.295 -0.6476  0.1233 -0.0286
 2880TIP3    H130131   3.828   1.330   4.269 -1.2526  0.6764  2.6182
 2880TIP3    H230132   3.876   1.244   4.385  1.5905 -1.1577  0.2389
 2881TIP3   OH230133   1.271   3.391   0.867  0.4939 -0.0752  0.7131
 2881TIP3    H130134   1.290   3.483   0.848 -0.2507  0.1375  0.9391
 2881TIP3    H230135   1.357   3.350   0.875  0.8409  0.6498  0.8291
 2882TIP3   OH230136   0.295   4.730   3.477  0.0445  0.2943  0.2685
 2882TIP3    H130137   0.269   4.653   3.427  0.6576 -0.2863  0.8343
 2882TIP3    H230138   0.243   4.802   3.439  2.0124  0.3077 -2.6567
 2883TIP3   OH230139   6.198   2.637   3.538  0.1553 -0.0207 -0.2698
 2883TIP3    H130140   6.237   2.596   3.615 -0.8674  1.4027  1.0420
 2883TIP3    H230141   6.266   2.697   3.506 -0.7083  2.2358  1.8388
 2884TIP3   OH230142   0.491   6.052  11.530 -0.4603  0.3435  0.3671
 2884TIP3    H130143   0.470   5.960  11.547  0.2653  0.0170 -0.4319
 2884TIP3    H230144   0.484   6.094  11.616  0.9007 -0.8012  1.0799
 2885TIP3   OH230145   5.691   1.895  13.276 -0.3302 -0.4554  0.4708
 2885TIP3    H130146   5.723   1.811  13.309 -2.9558 -1.4712  0.6595
 2885TIP3    H230147   5.600   1.879  13.254 -0.6533  2.1334 -0.4044
 2886TIP3   OH230148   2.246   6.024  13.461  0.7959  1.3994  0.1394
 2886TIP3    H130149   2.220   6.117  13.459 -0.7101  0.9969 -0.4906
 2886TIP3    H230150   2.224   5.995  13.550 -0.0313  1.3138 -0.0861
 2887TIP3   OH230151   5.683   1.643   1.168  0.2876 -0.0372  0.3985
 2887TIP3    H130152   5.675   1.732   1.201  1.2152  0.1180  0.2546
 2887TIP3    H230153   5.774   1.637   1.137  0.9007 -1.6537  2.2493
 2888TIP3   OH230154   6.177   2.522  16.239 -0.1693  0.0862  0.0984
 2888TIP3    H130155   6.238   2.453  16.212 -0.7543 -0.3232 -0.2177
 2888TIP3    H230156   6.125   2.482  16.309 -0.2520  0.3447  0.1865
 2889TIP3   OH230157   1.559   2.866   0.766 -0.2494  0.2087 -0.2023
 2889TIP3    H130158   1.635   2.924   0.774 -0.1713 -0.0230  1.0069
 2889TIP3    H230159   1.593   2.789   0.720 -0.1592  0.7812 -1.1002
 2890TIP3   OH230160   5.614   2.499  11.642  0.1161  0.1640  0.0215
 2890TIP3    H130161   5.662   2.416  11.634  0.3399  0.3767 -1.0899
 2890TIP3    H230162   5.523   2.475  11.624 -0.1583 -0.1806  1.7814
 2891TIP3   OH230163   4.427   2.444   0.577 -0.1113  0.0723 -0.2785
 2891TIP3    H130164   4.339   2.481   0.586  0.1853  0.7297 -0.0211
 2891TIP3    H230165   4.485   2.514   0.606  0.6534  0.5858 -2.7908
 2892TIP3   OH230166   3.164   2.237  16.148 -0.1925  0.7442 -0.4214
 2892TIP3    H130167   3.236   2.229  16.211  0.4944  0.1516 -1.2531
 2892TIP3    H230168   3.183   2.317  16.100 -0.7633  1.2423  0.1768
 2893TIP3   OH230169   5.715   2.714   0.903 -0.2062  0.1244  0.0268
 2893TIP3    H130170   5.796   2.750   0.941 -1.6456  0.9818  2.5143
 2893TIP3    H230171   5.745   2.639   0.851  2.2445  0.8809  0.1925
 2894TIP3   OH230172   1.715   2.652  14.489 -0.2367  0.2061 -0.1950
 2894TIP3    H130173   1.666   2.588  14.541 -0.5456  0.9332  0.4322
 2894TIP3    H230174   1.782   2.685  14.548  0.3547 -0.0184 -0.7268
 2895TIP3   OH230175   3.365   0.558   3.907  0.1895  0.0612 -0.0605
 2895TIP3    H130176   3.382   0.471   3.940  0.7219 -1.1723 -3.1927
 2895TIP3    H230177   3.420   0.565   3.829 -3.4869  1.1544 -2.8339
 2896TIP3   OH230178   0.379   6.622   4.859 -0.1713 -0.3471  0.4268
 2896TIP3    H130179   0.456   6.673   4.883  0.0211  0.0917 -1.0210
 2896TIP3    H230180   0.407   6.531   4.865 -0.0103 -0.2417  1.3962
 2897TIP3   OH230181   1.997   2.076  15.283  0.8585  0.8105  0.1620
 2897TIP3    H130182   2.040   2.161  15.292  1.7876  0.9367 -3.6599
 2897TIP3    H230183   2.008   2.053  15.191 -2.8353 -1.6340  0.1089
 2898TIP3   OH230184   5.833   0.963  14.057 -0.5846 -0.0048  0.1987
 2898TIP3    H130185   5.780   1.014  13.996  0.3188 -0.5575 -1.0998
 2898TIP3    H230186   5.871   1.028  14.117 -1.0236  0.6203 -0.1901
 2899TIP3   OH230187   3.703   1.922   0.866 -0.7236 -0.2602 -0.8153
 2899TIP3    H130188   3.793   1.905   0.893  0.1869  0.8241 -2.9183
 2899TIP3    H230189   3.705   1.920   0.771 -2.9843 -0.3628 -0.9289
 2900TIP3   OH230190   2.773   2.728  11.674 -0.1489  0.5758 -0.0569
 2900TIP3    H130191   2.825   2.674  11.735  2.1606  1.7989 -0.8299
 2900TIP3    H230192   2.707   2.668  11.640  1.1224 -1.2759  0.5492
 2901TIP3   OH230193   6.578   4.756   3.312 -0.2853 -0.5235 -0.2285
 2901TIP3    H130194   6.525   4.787   3.386  1.3941  1.5010  0.2190
 2901TIP3    H230195   6.522   4.770   3.235 -0.8174  0.5707  0.3389
 2902TIP3   OH230196   4.774   0.043   3.057  0.1849 -0.3852 -0.2104
 2902TIP3    H130197   4.751   0.007   2.971 -0.1949 -3.7566  1.1379
 2902TIP3    H230198   4.806  -0.032   3.106  0.6894  1.4841  2.5299
 2903TIP3   OH230199   5.757   2.403   2.123 -0.1923 -0.2523  0.5077
 2903TIP3    H130200   5.782   2.406   2.215 -1.3542 -1.6115  0.8884
 2903TIP3    H230201   5.835   2.372   2.078  0.3635  0.3604  1.0230
 2904TIP3   OH230202   1.457   4.186  15.737 -0.0680 -0.3799 -0.1326
 2904TIP3    H130203   1.363   4.170  15.748  0.1478 -0.8647  1.2001
 2904TIP3    H230204   1.471   4.273  15.774 -0.1205  0.0456 -1.0994
 2905TIP3   OH230205   1.216   3.039   3.853 -0.5940 -0.7226  0.5100
 2905TIP3    H130206   1.242   3.090   3.777 -0.8963 -1.9234 -0.4179
 2905TIP3    H230207   1.296   2.996   3.883 -0.5392 -0.4996  0.6899
 2906TIP3   OH230208   5.916   1.111  15.591 -0.1035  0.2402 -0.1992
 2906TIP3    H130209   5.838   1.086  15.641  0.0275  0.5659  0.1719
 2906TIP3    H230210   5.889   1.189  15.542  0.0590  0.4939  0.1127
 2907TIP3   OH230211   5.964   2.863   4.291  0.6391 -0.0856  0.0693
 2907TIP3    H130212   6.023   2.895   4.360  0.5413  0.6289 -0.1756
 2907TIP3    H230213   5.877   2.868   4.330  0.5653  0.4826 -0.1606
 2908TIP3   OH230214   0.057   4.717  13.288  0.4517  0.4966 -0.2424
 2908TIP3    H130215   0.108   4.636  13.292  0.6830  0.6540  0.0937
 2908TIP3    H230216   0.102   4.770  13.223 -0.7349 -0.3337 -1.7872
 2909TIP3   OH230217   0.246   4.322   3.587  0.3908  0.7300 -0.2957
 2909TIP3    H130218   0.154   4.343   3.570  0.7958  1.9839 -1.1232
 2909TIP3    H230219   0.269   4.260   3.519 -0.4097 -1.3659  1.2547
 2910TIP3   OH230220   5.486   3.667  13.249 -0.3507  0.0820  0.3815
 2910TIP3    H130221   5.542   3.713  13.312  0.3005  0.1615 -0.2346
 2910TIP3    H230222   5.488   3.576  13.277 -0.0956  0.1260  0.5094
 2911TIP3   OH230223   5.661   4.756  15.155 -0.5331  0.2372 -0.1789
 2911TIP3    H130224   5.652   4.851  15.167  1.5021  0.7036 -1.8758
 2911TIP3    H230225   5.748   4.736  15.190 -1.0478 -1.0867  0.4107
 2912TIP3   OH230226   1.407   2.011   5.428  0.1271 -0.3442  0.2452
 2912TIP3    H130227   1.443   1.984   5.343 -0.0183  0.2566 -0.0129
 2912TIP3    H230228   1.365   2.095   5.411  1.8607  0.8045  1.3248
 2913TIP3   OH230229   6.625   1.393   5.477 -0.3765 -0.8934  0.3090
 2913TIP3    H130230   6.565   1.372   5.549  0.7442  1.2926  2.0230
 2913TIP3    H230231   6.701   1.432   5.520  0.4460  0.3277 -2.0556
 2914TIP3   OH230232   6.211   0.193   0.761 -0.4487 -0.2444 -0.3163
 2914TIP3    H130233   6.208   0.183   0.856  0.5136 -1.1485 -0.3588
 2914TIP3    H230234   6.246   0.282   0.748 -0.1640 -0.2788  0.1738
 2915TIP3   OH230235   3.116   1.468   4.685 -0.0037 -0.5655  0.0531
 2915TIP3    H130236   3.024   1.484   4.666  0.8724  3.3425 -1.9076
 2915TIP3    H230237   3.128   1.374   4.670 -3.5430 -1.1609  0.1483
 2916TIP3   OH230238   5.255   1.430   4.338 -0.2943 -0.3932  0.8064
 2916TIP3    H130239   5.245   1.344   4.297 -1.3605  0.8140 -1.7287
 2916TIP3    H230240   5.346   1.432   4.367  0.7849 -1.2335 -2.1056
 2917TIP3   OH230241   0.100   1.952  17.125  0.4927  0.3353  0.1672
 2917TIP3    H130242   0.067   1.901  17.051 -1.4228  1.5990  0.1089
 2917TIP3    H230243   0.195   1.935  17.124  0.3504 -0.6583 -1.7845
 2918TIP3   OH230244   3.818   2.373   4.691  0.4808 -0.2533  0.0448
 2918TIP3    H130245   3.852   2.447   4.640  0.1084 -0.2165 -0.1481
 2918TIP3    H230246   3.803   2.304   4.626  0.8767 -0.5163  0.2321
 2919TIP3   OH230247   0.760   6.140  16.907 -0.0531  0.0406 -0.4197
 2919TIP3    H130248   0.831   6.140  16.971  1.1125  1.0826 -1.6397
 2919TIP3    H230249   0.681   6.157  16.958  0.4610 -1.6332  1.0468
 2920TIP3   OH230250   2.290   1.425   6.403 -0.2450  0.6412 -0.7387
 2920TIP3    H130251   2.341   1.425   6.483 -0.6814  0.5160 -0.4563
 2920TIP3    H230252   2.199   1.419   6.432 -0.3811  0.0633 -1.2557
 2921TIP3   OH230253   6.430   5.439  11.161 -0.6420  0.1129  0.3028
 2921TIP3    H130254   6.522   5.450  11.136 -0.5794  0.2833  0.6057
 2921TIP3    H230255   6.381   5.462  11.083 -0.4148 -0.4295 -0.0087
 2922TIP3   OH230256   4.596   5.881   2.266  0.1502 -0.1923  0.4464
 2922TIP3    H130257   4.561   5.864   2.179 -0.7441 -2.4398  1.1963
 2922TIP3    H230258   4.524   5.923   2.314  1.3160  3.1444 -0.4210
 2923TIP3   OH230259   2.785   4.468   6.224 -0.2509  0.0412  0.4044
 2923TIP3    H130260   2.759   4.446   6.314 -1.9369  0.8228  0.1561
 2923TIP3    H230261   2.792   4.383   6.180  0.3203 -0.3333  1.1829
 2924TIP3   OH230262   4.587   2.984   5.596 -0.0306 -0.1434  0.5445
 2924TIP3    H130263   4.533   3.059   5.622 -2.0671 -0.8190 -1.3735
 2924TIP3    H230264   4.536   2.908   5.624  0.0618 -0.7977 -0.9376
 2925TIP3   OH230265   5.927   2.606  13.075 -0.3073 -0.0750  0.2653
 2925TIP3    H130266   5.975   2.688  13.080  0.3214 -0.2855 -1.5375
 2925TIP3    H230267   5.989   2.540  13.107 -1.2050  0.2222  2.8434
 2926TIP3   OH230268   3.075   6.298   5.527  0.5779 -0.1989 -0.0328
 2926TIP3    H130269   3.011   6.226   5.526  1.5924 -1.1182 -0.0362
 2926TIP3    H230270   3.116   6.292   5.613  0.6451  0.4205 -0.0158
 2927TIP3   OH230271   2.126   0.169   6.537 -0.2997  0.5051  0.3367
 2927TIP3    H130272   2.106   0.113   6.462 -0.7072  1.0696  0.0179
 2927TIP3    H230273   2.195   0.228   6.505  2.0705 -1.4612  1.4348
 2928TIP3   OH230274   6.379   1.251  15.778 -0.0452 -0.4309  0.2275
 2928TIP3    H130275   6.308   1.255  15.842  0.4681  0.4378  0.7612
 2928TIP3    H230276   6.446   1.309  15.813  0.3019 -0.0407 -1.0434
 2929TIP3   OH230277   4.621   3.476  11.775 -0.0061  0.4253 -0.1947
 2929TIP3    H130278   4.714   3.454  11.771  0.3082  1.6480 -4.2853
 2929TIP3    H230279   4.576   3.394  11.754  0.2498  0.3070 -0.2836
 2930TIP3   OH230280   3.924   6.346  12.574 -0.2603  0.2473  0.1898
 2930TIP3    H130281   3.861   6.283  12.607  1.4127 -0.6902  1.8184
 2930TIP3    H230282   3.881   6.431  12.583 -0.7502 -0.1840  2.8029
 2931TIP3   OH230283   0.412   5.017   3.709 -0.0072  0.6395  0.3766
 2931TIP3    H130284   0.318   5.027   3.697  0.0361  0.0463 -0.5749
 2931TIP3    H230285   0.434   5.074   3.783 -0.7794  2.3229 -0.6535
 2932TIP3   OH230286   3.157   1.981  12.334 -0.3132 -0.0364  0.6489
 2932TIP3    H130287   3.198   2.060  12.300  0.0616 -0.4307  0.1629
 2932TIP3    H230288   3.217   1.950  12.402  0.0630 -0.4625  0.1280
 2933TIP3   OH230289   5.991   6.627  15.719 -0.2480 -0.2777 -0.0051
 2933TIP3    H130290   5.945   6.555  15.762  0.8395 -0.7465  0.4288
 2933TIP3    H230291   6.073   6.587  15.688 -0.4828  0.3304 -1.4766
 2934TIP3   OH230292   4.982   1.353  12.565  0.1900 -1.1199 -0.5335
 2934TIP3    H130293   4.910   1.405  12.600  0.3098 -0.4817 -1.2072
 2934TIP3    H230294   4.973   1.359  12.470  1.5461 -0.4166 -0.6485
 2935TIP3   OH230295   2.212   5.659  17.255  0.6089  0.5728 -0.2683
 2935TIP3    H130296   2.156   5.673  17.179 -0.4571  1.1522  0.5880
 2935TIP3    H230297   2.283   5.722  17.245  0.8201  0.2162 -1.0885
 2936TIP3   OH230298   6.243   6.121  13.508 -0.0265 -0.2701  0.4061
 2936TIP3    H130299   6.187   6.169  13.569 -1.0667  1.1892 -1.5742
 2936TIP3    H230300   6.222   6.029  13.524 -0.1866  0.0417  2.2629
 2937TIP3   OH230301   4.520   3.649  12.022 -0.0744  0.0127 -0.2527
 2937TIP3    H130302   4.528   3.594  11.944  1.6334  1.6656 -1.3015
 2937TIP3    H230303   4.556   3.595  12.093 -0.3427 -0.9779 -0.8432
 2938TIP3   OH230304   1.649   0.346   3.810 -0.8073 -0.4505 -1.0638
 2938TIP3    H130305   1.705   0.380   3.879 -0.8331 -3.2927  0.4980
 2938TIP3    H230306   1.709   0.305   3.747 -0.9308 -0.0322 -1.4627
 2939TIP3   OH230307   0.167   6.742   4.730  0.1715 -0.1041 -0.1928
 2939TIP3    H130308   0.176   6.686   4.807 -1.4626 -0.6147 -0.3404
 2939TIP3    H230309   0.236   6.808   4.740 -1.2473  1.1053  2.7905
 2940TIP3   OH230310   1.931   6.819  11.644 -0.0729  0.7073 -0.6816
 2940TIP3    H130311   1.901   6.883  11.709 -0.9561  0.3850 -0.7632
 2940TIP3    H230312   2.001   6.864  11.597 -2.6944  2.8177 -2.8351
 2941TIP3   OH230313   6.420   4.904  16.616  0.2208 -0.2266 -0.4122
 2941TIP3    H130314   6.371   4.823  16.633 -0.2251 -0.1070 -1.0800
 2941TIP3    H230315   6.373   4.971  16.666  0.5598 -0.3605  0.0995
 2942TIP3   OH230316   3.063   4.256  16.126 -0.2249  0.1061 -0.2884
 2942TIP3    H130317   3.103   4.181  16.082 -0.9263  0.3360 -1.3632
 2942TIP3    H230318   2.969   4.238  16.124 -0.3002  0.3556  0.7124
 2943TIP3   OH230319   5.204   1.715  11.194 -0.4853  0.4924 -0.0905
 2943TIP3    H130320   5.177   1.667  11.116 -0.6388  0.4912 -0.0349
 2943TIP3    H230321   5.221   1.804  11.164 -2.6106  1.0551  0.2616
 2944TIP3   OH230322   3.808   3.341   4.411  0.2431  0.6332 -0.0637
 2944TIP3    H130323   3.801   3.278   4.483 -0.9409 -0.7955 -1.3661
 2944TIP3    H230324   3.736   3.318   4.352 -0.7975  3.7906 -0.1871
 2945TIP3   OH230325   5.146   1.770  12.324 -0.1293  0.1233  0.6207
 2945TIP3    H130326   5.146   1.677  12.302  1.1405  0.0566  0.8502
 2945TIP3    H230327   5.154   1.772  12.420 -1.5820  0.4701  0.7640
 2946TIP3   OH230328   4.999   5.448   3.978  0.0480  0.4207  0.0209
 2946TIP3    H130329   4.927   5.449   3.915 -0.7419  0.3237  0.8903
 2946TIP3    H230330   5.076   5.422   3.927 -0.4154  1.0799 -1.0377
 2947TIP3   OH230331   5.059   6.765  12.647  0.2336  0.4988 -0.5161
 2947TIP3    H130332   5.147   6.804  12.645 -1.1532  4.0668  0.1861
 2947TIP3    H230333   5.043   6.738  12.557  2.6267 -1.9199 -0.3398
 2948TIP3   OH230334   5.423   5.944   2.535 -0.4181  0.3062  0.4692
 2948TIP3    H130335   5.482   5.908   2.470 -1.4951 -0.6104 -0.0373
 2948TIP3    H230336   5.353   5.879   2.543 -2.3574  2.1648 -0.3451
 2949TIP3   OH230337   2.661   0.524  11.239 -0.5205 -0.0288  0.2693
 2949TIP3    H130338   2.722   0.466  11.284  0.5728  2.0424  1.6173
 2949TIP3    H230339   2.621   0.576  11.309 -3.1189 -0.6071 -0.6758
 2950TIP3   OH230340   3.060   0.409  16.989 -0.2434  0.5715  0.3854
 2950TIP3    H130341   2.965   0.415  16.986 -0.2919 -0.1414  0.2262
 2950TIP3    H230342   3.081   0.328  16.942  0.5239  1.3001 -0.5539
 2951TIP3   OH230343   6.723   5.425   3.286 -0.7535  0.0958 -0.7493
 2951TIP3    H130344   6.689   5.338   3.308 -0.8152  0.1312 -0.7013
 2951TIP3    H230345   6.645   5.480   3.278 -0.7774 -0.0707 -1.7541
 2952TIP3   OH230346   6.011   4.104   5.732 -0.1563  0.2029 -0.2583
 2952TIP3    H130347   6.058   4.021   5.737 -0.1224  0.1930 -0.6803
 2952TIP3    H230348   6.078   4.171   5.744 -0.2748  0.1637  0.6888
 2953TIP3   OH230349   0.743   0.871   5.928 -0.3860  0.1223 -0.2642
 2953TIP3    H130350   0.793   0.868   6.009  0.4320 -1.3019 -0.7974
 2953TIP3    H230351   0.668   0.814   5.944  0.8420 -1.8277 -1.1591
 2954TIP3   OH230352   6.211   1.951   1.541 -0.2746  0.1699 -0.9445
 2954TIP3    H130353   6.116   1.943   1.528 -0.0940 -0.8012 -1.8584
 2954TIP3    H230354   6.242   2.000   1.465 -0.2453  2.1071  0.2699
 2955TIP3   OH230355   6.229   5.755   6.578  0.1786  0.3020 -0.1231
 2955TIP3    H130356   6.281   5.704   6.640  1.7322  1.8871 -0.0588
 2955TIP3    H230357   6.155   5.698   6.557  0.8630 -1.2188  1.3441
 2956TIP3   OH230358   1.399   5.116  16.260 -0.0929  0.1392 -0.2858
 2956TIP3    H130359   1.304   5.100  16.260 -0.2793  1.0338  1.4767
 2956TIP3    H230360   1.435   5.046  16.315  0.0736  0.7090  0.3441
 2957TIP3   OH230361   1.683   1.949   4.462  0.7766 -0.5587  0.3393
 2957TIP3    H130362   1.725   2.034   4.475 -0.1247  0.0348 -0.4598
 2957TIP3    H230363   1.653   1.950   4.371  0.2851 -1.5184  0.4710
 2958TIP3   OH230364   2.675   6.284  11.993 -0.1924 -0.4792 -0.3767
 2958TIP3    H130365   2.625   6.358  12.027 -0.5477 -0.7378 -0.3339
 2958TIP3    H230366   2.643   6.272  11.904 -0.1125 -0.5590 -0.3951
 2959TIP3   OH230367   0.477   1.624   0.066  0.1549  0.3320 -0.3213
 2959TIP3    H130368   0.423   1.604   0.142 -1.5333  0.4307 -1.4382
 2959TIP3    H230369   0.526   1.544   0.049  0.8886  0.4465  1.0943
 2960TIP3   OH230370   0.345   4.788  15.263  0.0585 -0.6723 -0.2036
 2960TIP3    H130371   0.308   4.755  15.345  1.2457 -1.2185  0.1250
 2960TIP3    H230372   0.379   4.710  15.219  0.1317 -0.2778 -0.8528
 2961TIP3   OH230373   3.335   3.632  15.398 -0.1278  0.9354  0.2784
 2961TIP3    H130374   3.348   3.712  15.449  1.4118  1.0452 -0.2278
 2961TIP3    H230375   3.373   3.652  15.312 -0.6570  0.0016 -0.1833
 2962TIP3   OH230376   2.484   2.825  14.069  0.1609 -0.6692  0.5358
 2962TIP3    H130377   2.512   2.743  14.109  0.3023 -0.5370  0.7090
 2962TIP3    H230378   2.564   2.875  14.058  0.1055 -0.6566  0.1953
 2963TIP3   OH230379   0.496   0.480   0.554  0.6487  0.8460 -0.2274
 2963TIP3    H130380   0.422   0.453   0.608 -0.0563  0.9234 -1.1344
 2963TIP3    H230381   0.472   0.566   0.521  0.5360  0.3120 -1.6002
 2964TIP3   OH230382   2.933   1.058  11.625 -1.0295 -0.4742 -0.2939
 2964TIP3    H130383   2.915   1.101  11.709 -3.1339 -1.2028 -0.3070
 2964TIP3    H230384   3.019   1.016  11.638 -0.6438  0.6308  0.9723
 2965TIP3   OH230385   1.786   6.651  12.475  0.1040  0.1332  0.1334
 2965TIP3    H130386   1.750   6.571  12.514 -0.0521 -0.8160 -1.8632
 2965TIP3    H230387   1.880   6.645  12.493 -0.3277  1.8618  4.0070
 2966TIP3   OH230388   3.013   2.752   1.473  0.4624  0.0445  0.1881
 2966TIP3    H130389   3.014   2.673   1.420  2.2347  0.8911 -1.1365
 2966TIP3    H230390   2.932   2.746   1.524  0.1746 -2.2083 -0.4455
 2967TIP3   OH230391   4.712   0.517  14.945 -0.0609  0.0551 -0.3796
 2967TIP3    H130392   4.719   0.422  14.937  1.3557  0.1489 -0.5460
 2967TIP3    H230393   4.795   0.551  14.910  1.0059  1.1476  2.8196
 2968TIP3   OH230394   2.385   1.330  17.027  1.0338 -0.0302  0.6207
 2968TIP3    H130395   2.334   1.381  16.965  1.7208  1.5910  1.3005
 2968TIP3    H230396   2.321   1.280  17.077  0.3651 -0.1861 -0.3771
 2969TIP3   OH230397   2.365   5.761  16.753  0.1373  0.3049  0.5574
 2969TIP3    H130398   2.429   5.782  16.821 -0.7395  0.3504  1.4008
 2969TIP3    H230399   2.336   5.847  16.720  0.9244  0.2743 -0.2389
 2970TIP3   OH230400   0.411   1.817  15.473  0.6628  0.3268 -0.5054
 2970TIP3    H130401   0.434   1.816  15.566 -0.9817 -0.1491 -0.0744
 2970TIP3    H230402   0.496   1.820  15.428  1.4909  0.9149  0.9949
 2971TIP3   OH230403   6.171   1.552   2.510 -0.3007  0.9420  0.0031
 2971TIP3    H130404   6.143   1.496   2.583  0.2460  0.5609 -0.0808
 2971TIP3    H230405   6.265   1.539   2.504 -0.3804  0.7555 -0.9627
 2972TIP3   OH230406   0.769   6.060  11.586 -0.5879  0.8416 -0.7557
 2972TIP3    H130407   0.676   6.075  11.572 -0.9644 -1.7908 -1.7052
 2972TIP3    H230408   0.808   6.066  11.499 -0.8566 -3.1822 -1.3691
 2973TIP3   OH230409   5.737   5.305  11.520 -0.1346  0.3906  0.1713
 2973TIP3    H130410   5.731   5.257  11.437  1.5009  1.2323 -0.4766
 2973TIP3    H230411   5.770   5.240  11.583  1.9821  0.5539 -0.6778
 2974TIP3   OH230412   1.919   1.068  14.995  0.1380 -0.1856  0.1616
 2974TIP3    H130413   1.893   0.976  14.996 -1.0418  0.0686 -1.7268
 2974TIP3    H230414   1.963   1.080  14.910 -0.3895  1.1347  0.0445
 2975TIP3   OH230415   2.167   2.336  13.731 -0.7474  0.0748  0.0033
 2975TIP3    H130416   2.240   2.286  13.767 -0.7899  0.8259  1.1978
 2975TIP3    H230417   2.166   2.314  13.638 -1.0712 -2.5295  0.5382
 2976TIP3   OH230418   1.731   3.222   5.199 -0.4232  0.0839 -1.1705
 2976TIP3    H130419   1.791   3.216   5.125 -2.2503 -0.9953 -2.6540
 2976TIP3    H230420   1.706   3.131   5.217 -1.0455  0.4475 -0.0965
 2977TIP3   OH230421   2.088   3.344  14.877  0.2462  0.0981 -0.2783
 2977TIP3    H130422   2.143   3.306  14.946  0.2736 -1.8478 -1.3046
 2977TIP3    H230423   1.998   3.334  14.911  0.3380  0.5661  0.1202
 2978TIP3   OH230424   1.431   1.766  15.647 -0.3452 -0.3386 -0.1272
 2978TIP3    H130425   1.487   1.761  15.569 -1.2577  0.1936 -0.8386
 2978TIP3    H230426   1.492   1.758  15.721  0.5962 -0.3526 -0.8837
 2979TIP3   OH230427   1.499   0.565  14.203 -0.2268  0.2153 -0.2022
 2979TIP3    H130428   1.498   0.473  14.179  0.2986 -0.0797  0.8536
 2979TIP3    H230429   1.591   0.585  14.219 -0.4954  0.4478  1.2492
 2980TIP3   OH230430   3.374   4.085   3.399 -0.6704 -0.3879 -0.1516
 2980TIP3    H130431   3.342   4.005   3.356  1.9226 -1.1210 -0.9390
 2980TIP3    H230432   3.414   4.053   3.480  0.8098  0.0037 -0.7011
 2981TIP3   OH230433   2.125   2.279  12.902 -0.4589  0.4993  0.0979
 2981TIP3    H130434   2.079   2.292  12.985  1.7503 -0.0762  1.4852
 2981TIP3    H230435   2.173   2.361  12.889 -1.0488  0.7120 -0.8183
 2982TIP3   OH230436   2.037   3.517  15.288  0.3613 -0.7321 -0.2199
 2982TIP3    H130437   1.999   3.520  15.200  0.3242 -1.7308 -0.2537
 2982TIP3    H230438   2.120   3.565  15.280 -0.0045 -0.1581 -0.6043
 2983TIP3   OH230439   3.439   0.911   4.242  0.8844 -0.0083  0.2234
 2983TIP3    H130440   3.519   0.896   4.192  1.9338  2.8703  0.8133
 2983TIP3    H230441   3.425   1.005   4.237 -1.5689 -0.2201  1.5399
 2984TIP3   OH230442   5.293   1.800   1.410 -0.4875  0.0302 -0.0173
 2984TIP3    H130443   5.378   1.774   1.447  0.2787  0.3473 -1.4755
 2984TIP3    H230444   5.244   1.718   1.404  1.3554 -1.0232 -3.1813
 2985TIP3   OH230445   1.641   3.583   1.714 -0.2206  0.2061 -0.4373
 2985TIP3    H130446   1.608   3.536   1.791  1.3492  0.4167  0.3988
 2985TIP3    H230447   1.719   3.629   1.745  1.0977 -0.5747 -2.4040
 2986TIP3   OH230448   1.903   5.979  10.809  0.0854  0.4556  0.0520
 2986TIP3    H130449   1.983   5.996  10.859 -0.3853  0.0634  0.9787
 2986TIP3    H230450   1.918   5.894  10.768  0.1850  0.4294  0.1413
 2987TIP3   OH230451   0.211   3.432   5.953 -0.0349 -0.6010  0.0644
 2987TIP3    H130452   0.241   3.378   5.880 -2.0141 -0.8825 -0.6168
 2987TIP3    H230453   0.226   3.378   6.031  0.0824 -1.2008 -0.3640
 2988TIP3   OH230454   2.768   2.262   6.458 -0.5422  0.2370 -0.1068
 2988TIP3    H130455   2.848   2.300   6.422  0.1618 -0.4402  0.7047
 2988TIP3    H230456   2.793   2.229   6.544 -1.7577  0.2281  0.2704
 2989TIP3   OH230457   0.698   6.031  10.409 -0.8218  0.2294  0.3736
 2989TIP3    H130458   0.612   6.057  10.377 -1.1347  1.8322  2.3292
 2989TIP3    H230459   0.748   6.113  10.412  0.4889 -0.5262  0.1835
 2990TIP3   OH230460   1.984   3.829  13.099  0.2785 -0.5623  0.3635
 2990TIP3    H130461   1.891   3.843  13.087  0.4196  0.7835  0.7238
 2990TIP3    H230462   1.991   3.771  13.175 -0.2621 -0.8794  0.1727
 2991TIP3   OH230463   0.137   0.454  16.938 -0.8365  0.2160  0.3665
 2991TIP3    H130464   0.086   0.414  16.867 -0.5648 -1.6535  1.1549
 2991TIP3    H230465   0.226   0.462  16.902 -0.9860  0.4801  0.0577
 2992TIP3   OH230466   2.483   4.297  11.388 -0.2230 -0.0105 -0.5232
 2992TIP3    H130467   2.479   4.252  11.304 -0.7919  0.9765 -1.0425
 2992TIP3    H230468   2.522   4.233  11.448 -2.6407 -1.8643 -0.7967
 2993TIP3   OH230469   3.477   4.224   3.039  0.0500  0.3838 -0.1051
 2993TIP3    H130470   3.563   4.184   3.057 -0.5765 -1.0209 -0.0949
 2993TIP3    H230471   3.464   4.285   3.111  1.4582  1.3645 -0.6219
 2994TIP3   OH230472   3.813   0.608   5.330 -0.6032  0.0423 -0.4432
 2994TIP3    H130473   3.881   0.655   5.282 -0.6737  1.4171  0.7300
 2994TIP3    H230474   3.862   0.553   5.392 -0.5337  0.3549 -0.2155
 2995TIP3   OH230475   0.246   5.558   1.337  0.1358  0.2987 -0.6116
 2995TIP3    H130476   0.274   5.567   1.246 -0.1365 -1.0362 -0.8618
 2995TIP3    H230477   0.297   5.483   1.369 -1.3720 -0.6511 -0.3593
 2996TIP3   OH230478   2.309   2.030   3.289 -0.0055  0.2935  0.4348
 2996TIP3    H130479   2.395   2.055   3.255 -0.2204  0.8635  0.3141
 2996TIP3    H230480   2.317   1.936   3.305  1.1045  0.5838  1.7815
 2997TIP3   OH230481   1.106   1.988  11.549  0.0920  0.3308 -0.7161
 2997TIP3    H130482   1.030   2.015  11.497  1.0511  1.7624 -1.4607
 2997TIP3    H230483   1.127   1.900  11.518 -0.1367  0.6586 -1.8329
 2998TIP3   OH230484   4.053   0.397  15.137 -0.0963  0.1389 -0.2639
 2998TIP3    H130485   3.995   0.460  15.181  0.9347  0.3386  0.8700
 2998TIP3    H230486   4.134   0.446  15.122 -0.4648  0.1408 -2.6312
 2999TIP3   OH230487   1.204   1.496   5.300 -0.4111 -0.3118  0.1034
 2999TIP3    H130488   1.216   1.431   5.231 -0.2724 -1.6443  1.3359
 2999TIP3    H230489   1.109   1.500   5.313 -0.6346  1.5704 -1.6121
 3000TIP3   OH230490   5.202   1.991   5.577 -0.4237  0.3349  0.1814
 3000TIP3    H130491   5.125   1.999   5.522  1.3288 -0.2121 -2.5569
 3000TIP3    H230492   5.218   2.079   5.609 -1.0713  0.8606 -0.8794
 3001TIP3   OH230493   0.739   0.079   1.193 -0.2851 -0.0543  0.2267
 3001TIP3    H130494   0.798   0.019   1.239  0.0548  0.0872 -0.0219
 3001TIP3    H230495   0.795   0.122   1.128 -0.7322 -0.1308 -0.2045
 3002TIP3   OH230496   0.576   3.877  11.786  0.1819 -0.3606  0.5213
 3002TIP3    H130497   0.512   3.920  11.728  0.3935  0.9465  1.2341
 3002TIP3    H230498   0.523   3.843  11.858  0.0350 -1.1842  0.0385
 3003TIP3   OH230499   6.153   4.340   1.592  0.1046  0.1487 -0.2340
 3003TIP3    H130500   6.123   4.286   1.519  3.3597  0.5697 -2.0693
 3003TIP3    H230501   6.168   4.278   1.663 -1.1256 -0.5598 -0.5549
 3004TIP3   OH230502   0.630   5.223  15.679  0.6172  0.1348  0.2632
 3004TIP3    H130503   0.546   5.186  15.651  0.0747  2.0133 -0.7702
 3004TIP3    H230504   0.695   5.181  15.623 -0.0121  0.8302 -1.0350
 3005TIP3   OH230505   0.857   4.325  10.616  0.2557 -0.0965  0.0198
 3005TIP3    H130506   0.805   4.313  10.537  0.2793  0.8267 -0.1454
 3005TIP3    H230507   0.803   4.381  10.672  1.0707  0.9046 -0.1724
 3006TIP3   OH230508   1.839   2.944   4.716  0.0892 -0.2415  0.6496
 3006TIP3    H130509   1.757   2.897   4.732  0.7112 -1.1147  1.3385
 3006TIP3    H230510   1.906   2.890   4.757  0.8466  1.2324  1.4244
 3007TIP3   OH230511   3.128   6.330  17.033  0.0192  0.1070 -0.0655
 3007TIP3    H130512   3.091   6.246  17.008  1.6911 -0.7242  0.1230
 3007TIP3    H230513   3.094   6.346  17.121  0.3688 -0.8186  0.2522
 3008TIP3   OH230514   6.054   0.590  14.839  0.0282  0.0025  0.7700
 3008TIP3    H130515   6.028   0.504  14.873 -0.0741 -0.2494  0.0613
 3008TIP3    H230516   6.148   0.595  14.857  0.1378 -0.4768  0.3514
 3009TIP3   OH230517   0.071   2.730   2.496 -0.2527  0.2097 -0.4182
 3009TIP3    H130518   0.057   2.825   2.497  0.6895  0.3580  0.2230
 3009TIP3    H230519   0.146   2.717   2.438 -1.2251 -0.2853 -1.5894
 3010TIP3   OH230520   1.935   0.453  12.922 -0.2812  0.3674  0.2198
 3010TIP3    H130521   1.986   0.392  12.976 -0.1746 -0.5130 -0.8363
 3010TIP3    H230522   1.985   0.460  12.841 -1.6293 -0.2140 -0.6903
 3011TIP3   OH230523   2.946   4.575   2.480  0.2148  0.1010  0.2639
 3011TIP3    H130524   2.901   4.657   2.500 -0.6360  0.1765 -1.7517
 3011TIP3    H230525   3.024   4.601   2.432 -0.1226 -0.2453 -0.4941
 3012TIP3   OH230526   4.171   3.212   1.955  0.2020  0.3577 -0.1370
 3012TIP3    H130527   4.111   3.283   1.933  1.7081  1.2434 -1.5808
 3012TIP3    H230528   4.208   3.236   2.040 -0.8080  0.2221  0.3614
 3013TIP3   OH230529   4.283   5.906   1.099  0.0837 -0.1315 -0.4633
 3013TIP3    H130530   4.285   5.971   1.170  3.6008  0.1181 -0.6213
 3013TIP3    H230531   4.290   5.958   1.019  0.8193 -0.6030 -0.7117
 3014TIP3   OH230532   5.667   2.746  14.440  0.4652 -0.5381 -0.0266
 3014TIP3    H130533   5.646   2.802  14.366  3.6106  0.4098 -0.3678
 3014TIP3    H230534   5.623   2.663  14.421 -1.9439  0.8544 -0.9477
 3015TIP3   OH230535   6.667   0.366  11.716  0.0382  0.1397 -0.3125
 3015TIP3    H130536   6.707   0.282  11.735 -1.4079 -1.2069 -2.7198
 3015TIP3    H230537   6.682   0.380  11.622 -1.1077  1.7885 -0.3081
 3016TIP3   OH230538   3.853   1.967  14.262 -0.0991  0.0733 -0.1732
 3016TIP3    H130539   3.947   1.970  14.247  0.0041 -0.0099  0.4417
 3016TIP3    H230540   3.834   1.875  14.280 -0.7321 -0.4190 -2.9320
 3017TIP3   OH230541   5.700   4.508  11.057  0.0244  0.1074 -0.4810
 3017TIP3    H130542   5.749   4.564  10.997 -0.1711  1.3107  0.4664
 3017TIP3    H230543   5.723   4.539  11.144 -0.6327 -0.8385  0.0492
 3018TIP3   OH230544   1.902   4.451  15.612 -0.2461  0.0750  0.4659
 3018TIP3    H130545   1.929   4.506  15.539  3.0328 -1.4818  0.3385
 3018TIP3    H230546   1.855   4.378  15.572 -1.1916  0.7727  0.2700
 3019TIP3   OH230547   5.230   5.985   5.575  0.4728  0.0967 -0.2211
 3019TIP3    H130548   5.166   6.055   5.591 -0.3788 -0.6077 -0.4788
 3019TIP3    H230549   5.177   5.906   5.567  1.3709 -0.4674 -0.6834
 3020TIP3   OH230550   4.659   1.853  13.879 -0.4813  0.2651 -0.3724
 3020TIP3    H130551   4.621   1.860  13.792  1.1849 -1.4734 -1.3069
 3020TIP3    H230552   4.604   1.790  13.925 -1.1200  0.8750 -0.2914
 3021TIP3   OH230553   6.603   6.216  11.208  0.1284  0.6919 -0.2243
 3021TIP3    H130554   6.593   6.121  11.198 -1.1995  0.5717  1.7147
 3021TIP3    H230555   6.613   6.230  11.302  1.0828  2.4352 -0.5358
 3022TIP3   OH230556   4.498   3.936  14.511  0.4853  0.1902  0.5121
 3022TIP3    H130557   4.526   3.987  14.435  0.2435  0.3098  0.5045
 3022TIP3    H230558   4.427   3.881  14.479 -0.4253  1.0868  0.9160
 3023TIP3   OH230559   4.280   0.054  12.984 -0.5622 -0.0403 -0.2356
 3023TIP3    H130560   4.197   0.037  13.028 -0.4211 -0.0826  0.0172
 3023TIP3    H230561   4.268   0.021  12.895 -1.1191  0.7656 -0.4652
 3024TIP3   OH230562   5.276   2.037  16.503 -0.3258 -0.0469  0.4616
 3024TIP3    H130563   5.317   2.112  16.460 -0.3295  0.4599  1.3183
 3024TIP3    H230564   5.339   2.010  16.570 -0.3177 -0.8274  0.1492
 3025TIP3   OH230565   3.050   3.803  12.829  0.6394  0.3070 -0.8420
 3025TIP3    H130566   3.019   3.860  12.900  1.1070  0.6443 -0.9051
 3025TIP3    H230567   2.973   3.791  12.773  0.1448 -0.3407 -0.0387
 3026TIP3   OH230568   4.233   2.641  11.573 -0.4063  0.0774 -0.2565
 3026TIP3    H130569   4.142   2.626  11.548 -0.2697 -0.8952 -0.2123
 3026TIP3    H230570   4.279   2.560  11.548 -0.4673 -1.6050  4.0647
 3027TIP3   OH230571   2.998   6.757   3.917  0.4119  0.1226  0.4684
 3027TIP3    H130572   2.947   6.679   3.898  0.2100  0.2296  0.5707
 3027TIP3    H230573   3.003   6.804   3.834 -0.6186  0.6783  0.7031
 3028TIP3   OH230574   5.473   1.263   5.211 -0.1800 -0.0159  0.1485
 3028TIP3    H130575   5.489   1.297   5.298 -0.1453 -1.2113  0.6311
 3028TIP3    H230576   5.388   1.299   5.186 -1.5290 -1.8270  1.8436
 3029TIP3   OH230577   2.771   6.379   0.223 -0.4470 -0.0525  0.1412
 3029TIP3    H130578   2.762   6.409   0.313 -2.0448  0.2815 -0.0971
 3029TIP3    H230579   2.714   6.302   0.217 -2.1177  1.2130 -1.1108
 3030TIP3   OH230580   3.734   5.043   2.984 -0.0247  0.3207 -0.0144
 3030TIP3    H130581   3.777   5.086   3.059 -0.9102  0.5224  0.3885
 3030TIP3    H230582   3.646   5.024   3.015  0.4970 -2.4251  0.0675
 3031TIP3   OH230583   4.777   6.264  12.673  0.3085  0.0001 -0.2296
 3031TIP3    H130584   4.777   6.169  12.684 -0.1510 -0.0588 -0.7012
 3031TIP3    H230585   4.846   6.295  12.731  0.2447 -0.5932  0.1668
 3032TIP3   OH230586   1.481   4.441  10.428  0.4190  0.1806  0.3687
 3032TIP3    H130587   1.437   4.525  10.440 -0.2336 -0.3464  2.1104
 3032TIP3    H230588   1.415   4.386  10.385  0.6092  0.3557 -0.1561
 3033TIP3   OH230589   1.263   3.559  11.573  0.4903 -0.3811  0.3551
 3033TIP3    H130590   1.287   3.600  11.489  0.9802  0.5325  0.9220
 3033TIP3    H230591   1.339   3.504  11.595  0.5414 -0.2893  0.4075
 3034TIP3   OH230592   4.191   0.749   5.590 -0.3055 -0.0310 -0.2585
 3034TIP3    H130593   4.152   0.662   5.601 -0.4995  0.2577  1.7944
 3034TIP3    H230594   4.223   0.750   5.500 -2.0023 -1.5180 -0.9349
 3035TIP3   OH230595   6.136   4.506   0.079 -0.1525 -0.1989 -0.3518
 3035TIP3    H130596   6.126   4.599   0.100 -0.1788 -0.4716  0.8814
 3035TIP3    H230597   6.121   4.502  -0.016 -1.6601  0.8350 -0.1937
 3036TIP3   OH230598   0.461   6.485  10.966 -0.0366  0.4309  0.4419
 3036TIP3    H130599   0.531   6.433  10.926  0.5348 -0.0514  1.9529
 3036TIP3    H230600   0.381   6.454  10.925  0.2315 -2.0671  1.6160
 3037TIP3   OH230601   6.275   3.951   1.342 -0.0264  0.1510 -0.0496
 3037TIP3    H130602   6.348   4.011   1.360 -1.7328  2.1717  0.4399
 3037TIP3    H230603   6.283   3.932   1.248  1.8833 -0.7909  0.2465
 3038TIP3   OH230604   3.713   5.860  11.626  0.0403 -0.2044 -0.2344
 3038TIP3    H130605   3.804   5.837  11.605 -0.0524 -0.2226 -0.6217
 3038TIP3    H230606   3.660   5.798  11.576 -0.2004  0.4150 -0.7602
 3039TIP3   OH230607   6.294   5.656   1.321 -0.5896 -0.3412  0.1965
 3039TIP3    H130608   6.201   5.635   1.328 -1.2971  2.4346 -0.0015
 3039TIP3    H230609   6.298   5.730   1.261  1.7852 -0.5100  0.0534
 3040TIP3   OH230610   0.454   4.471   2.121  0.2594  0.5011 -0.0800
 3040TIP3    H130611   0.521   4.530   2.086  0.1653 -0.1730 -1.4488
 3040TIP3    H230612   0.373   4.522   2.118  0.4886  0.9145  0.4812
 3041TIP3   OH230613   1.634   6.436  15.254  0.1100  0.3287 -0.2683
 3041TIP3    H130614   1.583   6.459  15.176 -0.8437  1.5226  0.6643
 3041TIP3    H230615   1.695   6.510  15.265 -1.1343  1.1835  1.2259
 3042TIP3   OH230616   5.444   5.633  15.009  0.4251 -0.1683  0.1993
 3042TIP3    H130617   5.457   5.538  15.020  2.0574  0.0624  0.5031
 3042TIP3    H230618   5.406   5.642  14.922 -0.1259 -1.1258  0.3213
 3043TIP3   OH230619   4.757   2.084   1.939 -0.3368  0.2108  0.2786
 3043TIP3    H130620   4.784   2.011   1.883 -0.9860  0.2014 -0.0237
 3043TIP3    H230621   4.760   2.160   1.882 -1.0954  0.1857  0.1970
 3044TIP3   OH230622   1.217   2.640   1.067 -0.3186 -0.6805  0.1394
 3044TIP3    H130623   1.164   2.588   1.006 -1.6610 -0.6895  1.2895
 3044TIP3    H230624   1.205   2.598   1.152 -1.7433  1.6810  1.1845
 3045TIP3   OH230625   4.078   3.845   0.402 -0.3581  0.4714 -0.2730
 3045TIP3    H130626   4.150   3.869   0.460 -1.3431  1.2271  0.6830
 3045TIP3    H230627   4.117   3.840   0.315  1.0073  0.0267  0.3556
 3046TIP3   OH230628   2.717   0.950   6.248 -0.0379 -0.8739 -0.0695
 3046TIP3    H130629   2.790   1.003   6.282 -2.3212  1.2115  1.9712
 3046TIP3    H230630   2.686   0.998   6.172 -1.9550  0.7811  1.6400
 3047TIP3   OH230631   1.220   3.723   4.970 -0.2560 -0.5658  0.0873
 3047TIP3    H130632   1.258   3.710   5.056 -0.6092  0.6819  0.4491
 3047TIP3    H230633   1.285   3.688   4.909  0.3065 -0.8082  0.8158
 3048TIP3   OH230634   5.007   5.464   0.829  0.0143  0.0535 -0.0828
 3048TIP3    H130635   4.939   5.514   0.784  0.7935  0.5232 -0.7669
 3048TIP3    H230636   5.040   5.403   0.762  0.7249  0.2924  0.0414
 3049TIP3   OH230637   6.326   6.662   3.802 -0.1391 -1.0259 -0.1427
 3049TIP3    H130638   6.244   6.652   3.754 -0.4174  1.1955 -0.2304
 3049TIP3    H230639   6.386   6.702   3.740 -0.3345  1.3743  1.0922
 3050TIP3   OH230640   3.542   3.510  14.831 -0.1474  0.2850 -0.2084
 3050TIP3    H130641   3.506   3.423  14.848  0.5711  0.1419  0.6450
 3050TIP3    H230642   3.636   3.496  14.821  0.0641  1.0344  0.5828
 3051TIP3   OH230643   2.273   1.240   1.153  0.0963  0.2560  0.2865
 3051TIP3    H130644   2.241   1.329   1.166  1.7547  0.6271  2.3556
 3051TIP3    H230645   2.227   1.188   1.219 -1.8624 -0.7737 -1.7611
 3052TIP3   OH230646   3.667   0.596   5.830  0.4183 -0.7125 -0.2289
 3052TIP3    H130647   3.652   0.688   5.852  3.4809  0.1015 -1.0637
 3052TIP3    H230648   3.594   0.573   5.773 -0.3783  1.2134 -0.0691
 3053TIP3   OH230649   5.896   2.840   2.363  0.0947  0.0699 -0.2689
 3053TIP3    H130650   5.961   2.807   2.425 -0.7358 -1.4023 -0.1500
 3053TIP3    H230651   5.836   2.767   2.349  0.0710  0.4509 -2.5636
 3054TIP3   OH230652   4.480   2.223   5.091  0.1129  0.1089 -0.0511
 3054TIP3    H130653   4.533   2.237   5.169  0.5574 -0.7673 -0.1768
 3054TIP3    H230654   4.406   2.282   5.101  0.4328  0.3873  0.7756
 3055TIP3   OH230655   1.818   4.861   6.309 -0.1195 -0.2694 -0.1614
 3055TIP3    H130656   1.777   4.945   6.287 -1.9547 -0.9189  0.5583
 3055TIP3    H230657   1.836   4.868   6.403  1.9993  0.1958 -0.5511
 3056TIP3   OH230658   1.826   4.899   3.637 -0.2059 -0.1931 -0.4486
 3056TIP3    H130659   1.812   4.890   3.543 -0.4611  1.3607 -0.5915
 3056TIP3    H230660   1.753   4.953   3.667  0.0994 -0.3217  0.5737
 3057TIP3   OH230661   4.489   0.316  17.052  0.5150  0.3357 -0.0100
 3057TIP3    H130662   4.565   0.319  17.110  0.5288 -2.7278  0.2872
 3057TIP3    H230663   4.526   0.307  16.964  0.5831 -2.0121  0.2087
 3058TIP3   OH230664   3.594   6.804  14.539  0.5983 -0.4190 -0.1515
 3058TIP3    H130665   3.652   6.868  14.580 -1.0151  2.2254 -1.7391
 3058TIP3    H230666   3.507   6.844  14.541 -0.3998 -2.3093 -1.7543
 3059TIP3   OH230667   1.782   5.725  11.223  0.2065  0.0625 -0.2103
 3059TIP3    H130668   1.757   5.694  11.136  0.7558  0.1963 -0.4209
 3059TIP3    H230669   1.865   5.771  11.209  1.1392 -1.2901  0.6230
 3060TIP3   OH230670   3.544   6.742  16.356 -0.4922  0.1495  0.2526
 3060TIP3    H130671   3.585   6.677  16.411 -1.9159  0.0632  1.2816
 3060TIP3    H230672   3.503   6.692  16.285  0.7863  0.2049 -0.5548
 3061TIP3   OH230673   3.301   2.822  13.475  0.3931 -0.1122  1.0070
 3061TIP3    H130674   3.244   2.775  13.414  1.3672 -0.6470  0.4698
 3061TIP3    H230675   3.272   2.794  13.561 -1.0023  0.6521  0.8000
 3062TIP3   OH230676   1.855   4.901   6.587 -0.2946 -0.5716  0.9493
 3062TIP3    H130677   1.838   4.843   6.661 -1.9125  0.4035  1.3880
 3062TIP3    H230678   1.831   4.988   6.618  0.4637  0.0926 -0.2472
 3063TIP3   OH230679   0.267   2.385   5.163  0.4870  0.2528 -0.2871
 3063TIP3    H130680   0.245   2.418   5.075  1.1433  0.4418 -0.3800
 3063TIP3    H230681   0.232   2.451   5.223  0.0205  0.1144 -0.3980
 3064TIP3   OH230682   4.766   3.306   1.615 -0.1187 -0.5508  0.4621
 3064TIP3    H130683   4.678   3.290   1.647 -0.5319  2.1435  0.8486
 3064TIP3    H230684   4.756   3.376   1.550  1.9564  1.5698  2.2854
 3065TIP3   OH230685   0.594   0.257  11.540  0.0974  0.3867  0.4430
 3065TIP3    H130686   0.598   0.280  11.633 -1.7594 -1.0801  0.9613
 3065TIP3    H230687   0.685   0.243  11.514  0.7533  2.0413  1.6869
 3066TIP3   OH230688   2.074   1.413  14.112  0.3963  0.0655 -0.1528
 3066TIP3    H130689   2.123   1.451  14.039 -1.8864  0.7769 -1.4170
 3066TIP3    H230690   2.080   1.318  14.098  4.0619 -0.1380  1.6324
 3067TIP3   OH230691   6.469   4.672  14.562  0.0042  0.2868  0.1620
 3067TIP3    H130692   6.391   4.662  14.617  0.9045 -1.6556  1.2015
 3067TIP3    H230693   6.503   4.758  14.585 -0.6197  0.2414  1.3571
 3068TIP3   OH230694   6.342   6.703   4.319  0.4168 -0.7253  0.1347
 3068TIP3    H130695   6.344   6.620   4.273 -1.2858 -0.2405 -0.8838
 3068TIP3    H230696   6.390   6.763   4.262 -0.3029 -0.5004 -0.2451
 3069TIP3   OH230697   3.231   2.527   3.847 -0.1849  0.8348 -0.4547
 3069TIP3    H130698   3.182   2.606   3.868 -2.8294 -0.6721 -0.4919
 3069TIP3    H230699   3.229   2.521   3.752 -0.3728  0.5207 -0.4348
 3070TIP3   OH230700   0.050   1.174  14.052  0.0465 -0.4376 -0.5712
 3070TIP3    H130701  -0.036   1.180  14.093 -0.6663 -0.4027 -2.0267
 3070TIP3    H230702   0.064   1.080  14.040  0.2067 -0.4423 -0.3485
 3071TIP3   OH230703   3.712   3.844   0.621  0.1518  0.7462 -0.3725
 3071TIP3    H130704   3.680   3.796   0.544 -1.3151  0.9891  0.0682
 3071TIP3    H230705   3.759   3.919   0.584  0.8557  0.0061 -1.0385
 3072TIP3   OH230706   4.834   4.628  13.637  0.5104  0.1676  0.4768
 3072TIP3    H130707   4.773   4.557  13.658  0.9193 -0.3919 -0.2294
 3072TIP3    H230708   4.783   4.687  13.582  0.0791  0.5958  1.2997
 3073TIP3   OH230709   0.264   3.983   3.013 -0.2087  0.0169  0.1009
 3073TIP3    H130710   0.283   3.895   2.980 -0.3279 -0.1541  0.4852
 3073TIP3    H230711   0.316   4.041   2.958 -1.2505 -0.1735 -1.1247
 3074TIP3   OH230712   2.433   4.067   5.908 -0.3730 -0.1243 -0.4990
 3074TIP3    H130713   2.370   4.003   5.939 -1.2046  0.9388  0.0935
 3074TIP3    H230714   2.503   4.067   5.973 -0.4863 -0.2573 -0.3793
 3075TIP3   OH230715   6.260   3.231   2.091  0.0658  0.0182 -0.1555
 3075TIP3    H130716   6.273   3.325   2.104  1.1367 -0.2085  0.5568
 3075TIP3    H230717   6.329   3.190   2.143 -1.2558 -1.2088  0.6802
 3076TIP3   OH230718   0.003   1.832   5.032 -0.2308 -0.2745  0.4982
 3076TIP3    H130719  -0.039   1.833   5.118 -0.7566 -2.1221  0.3039
 3076TIP3    H230720   0.097   1.839   5.051 -0.4556  2.1689  1.0237
 3077TIP3   OH230721   2.256   3.376   3.162  0.1142 -0.1232 -0.1781
 3077TIP3    H130722   2.196   3.337   3.099  2.6621 -1.8697 -1.7193
 3077TIP3    H230723   2.299   3.446   3.114 -1.2640  1.8027  1.2237
 3078TIP3   OH230724   3.807   0.167   5.240  0.4529 -0.3674 -0.1256
 3078TIP3    H130725   3.726   0.174   5.190 -0.0329 -1.5318  0.4369
 3078TIP3    H230726   3.866   0.115   5.185  0.9078  0.6677 -0.6288
 3079TIP3   OH230727   1.703   5.468   4.039 -0.1712  0.0150  0.6096
 3079TIP3    H130728   1.722   5.375   4.045 -1.7616 -0.4484 -0.8337
 3079TIP3    H230729   1.683   5.483   3.947 -1.9034  1.3477  1.1437
 3080TIP3   OH230730   1.669   4.285  15.492  0.1081  0.0146  0.4464
 3080TIP3    H130731   1.669   4.190  15.494  2.0936 -0.0432  2.3950
 3080TIP3    H230732   1.618   4.310  15.569 -2.7983  0.6848 -1.5354
 3081TIP3   OH230733   5.712   2.773   2.590 -0.1297 -0.2898  0.0885
 3081TIP3    H130734   5.653   2.751   2.517  1.6259  0.0913 -1.5173
 3081TIP3    H230735   5.793   2.727   2.571  0.4745  0.0326  1.7021
 3082TIP3   OH230736   3.531   4.247  12.986 -0.7082  0.4844 -0.3503
 3082TIP3    H130737   3.482   4.196  12.921 -0.7757 -0.0399  0.0973
 3082TIP3    H230738   3.477   4.242  13.065 -0.6392  1.1336 -0.2580
 3083TIP3   OH230739   1.022   3.100  14.702 -0.3478  0.6504  0.5253
 3083TIP3    H130740   1.040   3.146  14.620 -0.4090 -0.1663  0.0442
 3083TIP3    H230741   1.032   3.167  14.769  3.2171  0.6153  0.2229
 3084TIP3   OH230742   3.712   0.971   3.237 -0.3978  0.0432 -0.4408
 3084TIP3    H130743   3.698   0.980   3.143  1.3718 -0.8850 -0.8385
 3084TIP3    H230744   3.742   0.881   3.248 -2.5842 -0.5535  1.3194
 3085TIP3   OH230745   0.465   4.975   1.994 -0.1312  0.1062  0.3869
 3085TIP3    H130746   0.461   4.913   2.066 -1.0313  0.3683  0.5790
 3085TIP3    H230747   0.557   4.975   1.966 -0.0562 -1.0402  0.6074
 3086TIP3   OH230748   6.112   5.266  11.033 -0.5649 -0.2524 -0.3150
 3086TIP3    H130749   6.198   5.276  10.991 -1.1347 -1.6940 -1.8947
 3086TIP3    H230750   6.052   5.316  10.977 -1.2300 -1.6828 -0.9200
 3087TIP3   OH230751   4.411   0.676  14.159 -0.7710 -0.0311 -0.1826
 3087TIP3    H130752   4.319   0.654  14.174 -1.0873 -0.7470 -2.7449
 3087TIP3    H230753   4.434   0.733  14.232 -3.0625 -0.3157  0.8471
 3088TIP3   OH230754   2.938   1.685   2.348  0.5155  0.2532  0.2169
 3088TIP3    H130755   2.910   1.699   2.438 -1.5906  0.2678 -0.3935
 3088TIP3    H230756   2.857   1.672   2.299  1.2533  3.7257 -2.3119
 3089TIP3   OH230757   6.559   4.879   1.991  0.4014 -0.4138  0.2948
 3089TIP3    H130758   6.569   4.788   1.964  0.4526  0.1503 -1.7637
 3089TIP3    H230759   6.543   4.875   2.086  2.3371 -2.4177  0.6120
 3090TIP3   OH230760   6.551   3.663   3.723 -0.1852 -0.1920 -0.3890
 3090TIP3    H130761   6.527   3.593   3.663 -0.1771  0.0106 -0.6332
 3090TIP3    H230762   6.564   3.740   3.666  0.2724 -0.1104 -0.1799
 3091TIP3   OH230763   1.796   4.826   1.725  0.2192 -0.2305  0.0657
 3091TIP3    H130764   1.717   4.878   1.710  1.5003  1.3205 -1.8354
 3091TIP3    H230765   1.819   4.841   1.816 -1.8243 -0.9992  0.7663
 3092TIP3   OH230766   6.574   4.611   1.920  0.2753 -0.0350 -0.0516
 3092TIP3    H130767   6.670   4.600   1.919  0.1632 -1.3215  0.9956
 3092TIP3    H230768   6.540   4.525   1.900 -0.6844  0.4866 -0.7159
 3093TIP3   OH230769   4.668   1.156   1.561 -0.0552 -0.5291 -0.1190
 3093TIP3    H130770   4.725   1.099   1.612 -0.7241 -1.3975 -0.3041
 3093TIP3    H230771   4.722   1.186   1.488 -0.2977 -2.8422 -1.3561
 3094TIP3   OH230772   1.232   0.400   1.172  0.2383  1.0627 -0.0254
 3094TIP3    H130773   1.321   0.401   1.140 -0.5011  0.3668 -2.2681
 3094TIP3    H230774   1.222   0.313   1.212  0.2616  0.7384 -0.7167
 3095TIP3   OH230775   1.765   4.472   6.427 -0.2232  0.1432 -0.6281
 3095TIP3    H130776   1.729   4.503   6.344  0.9934  1.4971 -0.6875
 3095TIP3    H230777   1.851   4.437   6.405 -0.7628 -1.5340 -0.2425
 3096TIP3   OH230778   5.736   2.239   0.133 -0.3085 -0.3571 -0.2773
 3096TIP3    H130779   5.688   2.220   0.052 -0.0655 -3.2974  0.1365
 3096TIP3    H230780   5.688   2.310   0.174 -0.0878  1.6954 -3.2546
 3097TIP3   OH230781   6.567   6.344   5.604 -0.2843 -0.3068 -0.0001
 3097TIP3    H130782   6.504   6.286   5.646 -1.1755  1.0290  0.5706
 3097TIP3    H230783   6.605   6.291   5.533 -1.9362 -1.1871 -0.2678
 3098TIP3   OH230784   5.412   2.198  12.740  0.4667  0.3929 -0.5745
 3098TIP3    H130785   5.472   2.202  12.666  1.0010  0.6938 -0.1304
 3098TIP3    H230786   5.387   2.290  12.755 -1.3594  0.1344 -1.7624
 3099TIP3   OH230787   6.600   0.094  15.551 -0.2987  0.4161  0.1606
 3099TIP3    H130788   6.627   0.168  15.605 -0.1694 -0.7126  1.7038
 3099TIP3    H230789   6.682   0.047  15.532 -0.6878 -1.1523  2.0298
 3100TIP3   OH230790   6.180   6.165  14.152 -0.5542 -0.1908 -0.0732
 3100TIP3    H130791   6.220   6.112  14.221  0.0027  2.0276  1.4281
 3100TIP3    H230792   6.254   6.193  14.099 -0.5618  0.7586  0.3982
 3101TIP3   OH230793   4.507   6.124   3.908  0.0228 -0.0381 -0.1930
 3101TIP3    H130794   4.548   6.211   3.910  0.8322 -0.2815 -2.8409
 3101TIP3    H230795   4.580   6.063   3.892 -0.8578 -0.8914 -1.0931
 3102TIP3   OH230796   5.003   2.262  11.107  0.9287  0.0477  0.0815
 3102TIP3    H130797   5.033   2.215  11.029 -0.6609  1.4686 -1.5001
 3102TIP3    H230798   4.984   2.351  11.075 -0.9955  0.3277  1.7857
 3103TIP3   OH230799   6.458   5.169  14.208  0.1235 -0.4189 -0.3511
 3103TIP3    H130800   6.408   5.126  14.139 -1.5119  0.8922 -0.0454
 3103TIP3    H230801   6.435   5.122  14.288  1.8788 -1.8210 -0.5941
 3104TIP3   OH230802   2.290   1.926   5.868 -0.3587  0.2136  0.2615
 3104TIP3    H130803   2.230   2.000   5.854  0.4807  0.7553 -0.6108
 3104TIP3    H230804   2.278   1.871   5.791 -1.4506 -0.9194  1.2145
 3105TIP3   OH230805   0.360   3.426   0.026  0.1115  0.0911 -0.2994
 3105TIP3    H130806   0.309   3.406  -0.053 -3.5902  1.6667  1.4581
 3105TIP3    H230807   0.367   3.521   0.026  0.2319  0.0919  1.1660
 3106TIP3   OH230808   1.336   1.452   0.362  0.3586  0.2952  0.2801
 3106TIP3    H130809   1.379   1.368   0.378  0.3192  0.2503  0.1475
 3106TIP3    H230810   1.334   1.461   0.267  1.8049  1.1928  0.2927
 3107TIP3   OH230811   0.873   4.285   2.072  0.3017 -0.0916  0.2063
 3107TIP3    H130812   0.951   4.294   2.127  0.8604 -3.1485  0.0906
 3107TIP3    H230813   0.800   4.289   2.134  0.6107  1.0274  0.5317
 3108TIP3   OH230814   4.177   4.535   5.196  0.1537 -0.7127 -0.0273
 3108TIP3    H130815   4.202   4.560   5.285  2.2526 -2.4292 -0.0428
 3108TIP3    H230816   4.136   4.449   5.207  0.7021 -1.0722 -0.7152
 3109TIP3   OH230817   5.458   3.778  15.916  0.1384 -0.1735 -0.4469
 3109TIP3    H130818   5.540   3.730  15.930 -0.2310 -0.8095 -0.4264
 3109TIP3    H230819   5.422   3.741  15.836 -0.4793 -0.3940 -0.0694
 3110TIP3   OH230820   5.831   3.520   4.865 -0.0915 -0.5421 -0.0462
 3110TIP3    H130821   5.831   3.428   4.890 -0.6555 -0.4483  0.3027
 3110TIP3    H230822   5.921   3.537   4.835  0.1267 -1.0912  0.2927
 3111TIP3   OH230823   2.478   3.489   3.029  0.1302  0.1062 -0.2881
 3111TIP3    H130824   2.525   3.439   3.097 -0.3939 -0.0103 -0.0015
 3111TIP3    H230825   2.464   3.425   2.959 -1.1353 -0.3671  0.3579
 3112TIP3   OH230826   4.972   0.199   1.107 -0.0634 -0.3449  0.1381
 3112TIP3    H130827   4.891   0.150   1.092  0.1018 -1.3816  2.1755
 3112TIP3    H230828   4.969   0.272   1.045 -1.1971 -1.9078 -1.7713
 3113TIP3   OH230829   5.182   3.943   3.051 -0.5881 -0.0121  0.5517
 3113TIP3    H130830   5.116   3.957   2.983  0.2906  0.5525 -0.2145
 3113TIP3    H230831   5.215   3.855   3.035 -2.2555 -0.9341  1.9405
 3114TIP3   OH230832   4.811   4.140   4.115  0.2252  0.2512  0.1156
 3114TIP3    H130833   4.810   4.117   4.208 -0.8524 -0.3096 -0.0093
 3114TIP3    H230834   4.744   4.208   4.107 -0.3723 -0.3788 -0.3911
 3115TIP3   OH230835   5.814   6.100   1.816 -0.4931  0.2662  0.3114
 3115TIP3    H130836   5.775   6.150   1.887 -2.0063  1.7286 -1.4352
 3115TIP3    H230837   5.886   6.154   1.784 -0.5000  0.1229  0.0433
 3116TIP3   OH230838   2.333   3.510   2.711  0.7373 -0.0387 -1.0515
 3116TIP3    H130839   2.426   3.526   2.697  1.1432 -2.1898 -1.0634
 3116TIP3    H230840   2.290   3.552   2.636  1.5595  1.8058 -0.5633
 3117TIP3   OH230841   1.308   3.795   1.976 -0.1668  0.8831 -0.3187
 3117TIP3    H130842   1.232   3.836   2.016  0.1821  1.4719 -0.2409
 3117TIP3    H230843   1.288   3.701   1.976  0.3426  0.6953  2.3712
 3118TIP3   OH230844   1.630   4.581   2.265  0.7097  0.0475  0.2142
 3118TIP3    H130845   1.641   4.614   2.176  0.8379  1.1607  0.6226
 3118TIP3    H230846   1.563   4.513   2.258  1.2218 -0.3627 -0.8370
 3119TIP3   OH230847   4.364   3.794  13.483 -1.0972 -0.7148  0.8251
 3119TIP3    H130848   4.316   3.730  13.431  0.7129 -2.2856  0.9773
 3119TIP3    H230849   4.361   3.759  13.572  1.2009 -1.4924  0.6665
 3120TIP3   OH230850   2.413   0.110   4.433  0.5363 -0.2883  0.1951
 3120TIP3    H130851   2.398   0.138   4.343 -0.5889  1.6880  0.9344
 3120TIP3    H230852   2.503   0.138   4.452  0.7964 -0.7609 -0.3179
 3121TIP3   OH230853   1.204   6.502  15.036  0.4322  0.4506  0.3346
 3121TIP3    H130854   1.141   6.483  14.966 -0.3988  4.1619 -0.1226
 3121TIP3    H230855   1.153   6.491  15.116 -0.8459  3.0755 -0.0203
 3122TIP3   OH230856   3.456   3.050   3.540  0.3329  0.2411 -0.3339
 3122TIP3    H130857   3.472   3.060   3.446  0.5098  1.1965 -0.2191
 3122TIP3    H230858   3.391   3.118   3.560 -0.2544 -0.4400  0.1013
 3123TIP3   OH230859   5.211   5.066  13.361 -0.1324  0.0866  0.1676
 3123TIP3    H130860   5.131   5.017  13.379  0.4333 -0.2981  1.8795
 3123TIP3    H230861   5.208   5.083  13.267 -0.9727 -2.1611 -0.2923
 3124TIP3   OH230862   0.645   2.667   0.059 -0.7608  0.0556 -0.0081
 3124TIP3    H130863   0.678   2.643   0.145 -2.4551 -0.0790  0.6447
 3124TIP3    H230864   0.719   2.651  -0.000 -0.5169 -3.0399  0.9232
 3125TIP3   OH230865   5.947   0.495   2.723 -0.1916 -0.3605 -0.4019
 3125TIP3    H130866   5.861   0.453   2.714  0.2728 -1.1840 -1.2463
 3125TIP3    H230867   5.999   0.432   2.772  0.2529 -0.3740 -0.8860
 3126TIP3   OH230868   0.081   3.584   3.499 -0.0355  0.1113  0.4353
 3126TIP3    H130869   0.057   3.600   3.408 -1.1561 -0.2349  0.6515
 3126TIP3    H230870   0.144   3.653   3.521  0.7950 -0.2198 -0.7971
 3127TIP3   OH230871   2.468   3.919   6.542  0.1551 -0.4204  0.4777
 3127TIP3    H130872   2.467   3.942   6.635  1.0515 -0.6835  0.5676
 3127TIP3    H230873   2.377   3.927   6.513 -0.0473  0.1557  1.2553
 3128TIP3   OH230874   5.507   4.112  14.926 -0.1352  0.2845 -0.7292
 3128TIP3    H130875   5.566   4.074  14.861 -0.0968 -1.8289  0.4575
 3128TIP3    H230876   5.553   4.103  15.009 -1.9601 -1.2011  0.1980
 3129TIP3   OH230877   2.556   5.319  13.618  0.2123  0.0626  0.1737
 3129TIP3    H130878   2.478   5.332  13.563  1.0053  0.5511 -0.8822
 3129TIP3    H230879   2.589   5.408  13.634  0.1732 -0.0992  1.1869
 3130TIP3   OH230880   1.523   3.773  11.704  0.4423  0.8882  0.2253
 3130TIP3    H130881   1.578   3.706  11.664  2.5058  1.1129  2.4616
 3130TIP3    H230882   1.488   3.823  11.630  1.1656 -0.8424 -1.3698
 3131TIP3   OH230883   4.056   6.169  12.808 -0.3229  0.3713  0.2811
 3131TIP3    H130884   4.068   6.115  12.731 -1.1931  1.0530 -0.3530
 3131TIP3    H230885   3.998   6.240  12.780 -0.8237  0.5286  1.5958
 3132TIP3   OH230886   4.490   4.835  16.346 -0.0500  0.6172  0.2703
 3132TIP3    H130887   4.434   4.911  16.328 -0.7739  0.5248  1.9278
 3132TIP3    H230888   4.433   4.773  16.390  0.9422 -0.2250  0.4128
 3133TIP3   OH230889   3.264   5.235   4.783  0.2929 -0.6473 -0.4663
 3133TIP3    H130890   3.253   5.221   4.877  0.3405 -1.5206 -0.5882
 3133TIP3    H230891   3.230   5.324   4.768 -1.6966 -1.2622  0.0508
 3134TIP3   OH230892   4.414   6.226   2.958  0.1706  0.2410  0.6082
 3134TIP3    H130893   4.477   6.210   2.887  0.6850 -0.8377  1.2784
 3134TIP3    H230894   4.340   6.170   2.937  0.2262  0.0969  0.7934
 3135TIP3   OH230895   4.635   6.532  13.015  0.2396 -0.0686 -0.4222
 3135TIP3    H130896   4.669   6.606  13.066  2.4602 -0.6398 -0.9869
 3135TIP3    H230897   4.631   6.460  13.079 -0.2930  0.0767 -0.2808
 3136TIP3   OH230898   0.809   5.668  14.812  0.7291  0.1244 -0.3375
 3136TIP3    H130899   0.725   5.662  14.857  0.4531  0.9431 -0.7212
 3136TIP3    H230900   0.826   5.762  14.806  1.0927  0.0038 -1.3292
 3137TIP3   OH230901   3.961   4.781   2.451  0.7734 -0.0750 -0.0897
 3137TIP3    H130902   3.946   4.700   2.403  1.8174 -0.2195 -0.1737
 3137TIP3    H230903   3.889   4.838   2.423 -1.3859 -1.7021  1.7048
 3138TIP3   OH230904   4.968   6.760  13.847 -0.1865  0.0484  0.2882
 3138TIP3    H130905   4.964   6.841  13.898  0.6294  0.2120  0.1099
 3138TIP3    H230906   5.062   6.741  13.839 -0.3182 -0.2075 -0.7788
 3139TIP3   OH230907   1.698   5.621  13.746 -0.1335 -0.4560  0.5433
 3139TIP3    H130908   1.646   5.694  13.711  0.3514 -0.7059 -0.7302
 3139TIP3    H230909   1.633   5.559  13.778 -0.5635  0.2647  1.1151
 3140TIP3   OH230910   4.470   4.004   6.394 -0.3393  0.2357  0.1813
 3140TIP3    H130911   4.379   3.987   6.373  0.2721 -0.3653 -2.2984
 3140TIP3    H230912   4.503   3.922   6.429 -0.6646  0.3765  0.8331
 3141TIP3   OH230913   5.707   3.503   3.578  0.4837 -0.1409  0.3274
 3141TIP3    H130914   5.729   3.410   3.576  0.8398 -0.0580 -1.5157
 3141TIP3    H230915   5.791   3.547   3.567  0.0334  0.2919 -1.7930
 3142TIP3   OH230916   1.066   5.964  14.437  0.0295  0.8406  0.1167
 3142TIP3    H130917   0.971   5.977  14.431  0.2986  2.1857 -2.6422
 3142TIP3    H230918   1.089   5.994  14.524 -2.4046 -2.4718  2.1758
 3143TIP3   OH230919   1.730   4.742   2.857 -0.1838  0.2290  0.2076
 3143TIP3    H130920   1.698   4.785   2.936 -1.6676  0.7233 -0.6183
 3143TIP3    H230921   1.655   4.692   2.825  1.0119 -1.7028  0.2392
 3144TIP3   OH230922   2.007   6.171  16.038  0.2679  0.0049 -0.3092
 3144TIP3    H130923   1.942   6.200  15.974 -0.6195 -2.0683 -0.4069
 3144TIP3    H230924   1.959   6.113  16.097  1.9304 -1.2994 -0.1582
 3145TIP3   OH230925   2.875   1.596   2.664 -0.2702 -0.2225  0.9247
 3145TIP3    H130926   2.890   1.630   2.752 -1.3134 -0.6310  1.2890
 3145TIP3    H230927   2.905   1.505   2.668 -1.9405 -0.8040  1.4301
 3146TIP3   OH230928   4.973   0.531  15.732 -0.0338 -0.3618  0.0486
 3146TIP3    H130929   5.062   0.534  15.696  0.3259 -0.9132  0.8591
 3146TIP3    H230930   4.924   0.479  15.668  0.4210 -0.7296 -0.0132
 3147TIP3   OH230931   6.532   1.292   5.725 -0.4675  0.3140 -0.0672
 3147TIP3    H130932   6.438   1.310   5.717 -1.0505 -1.8329  1.1894
 3147TIP3    H230933   6.536   1.203   5.760  2.0773 -0.4489 -2.0260
 3148TIP3   OH230934   2.495   5.116  13.822  0.3934  0.2563  0.5481
 3148TIP3    H130935   2.415   5.075  13.791  0.3107 -0.1490  1.2611
 3148TIP3    H230936   2.516   5.183  13.756  0.6687 -1.0888 -0.7740
 3149TIP3   OH230937   2.701   4.070   0.617 -0.4378 -0.8278  0.2485
 3149TIP3    H130938   2.630   4.068   0.553  0.4736  0.3342 -0.8331
 3149TIP3    H230939   2.662   4.033   0.697 -2.2402 -0.2611 -0.3226
 3150TIP3   OH230940   6.430   4.839   5.405 -0.6561 -0.2839 -0.1570
 3150TIP3    H130941   6.355   4.873   5.357  0.9113  2.2361 -1.0269
 3150TIP3    H230942   6.476   4.783   5.342 -0.7994 -0.3171 -0.2322
 3151TIP3   OH230943   1.509   1.664   3.263 -1.0252  0.4843  0.2302
 3151TIP3    H130944   1.563   1.649   3.340 -0.2516  1.5908 -0.0767
 3151TIP3    H230945   1.464   1.747   3.281 -0.3531  1.0889 -0.7541
 3152TIP3   OH230946   5.165   0.197  15.331 -0.0037  0.0724  0.3257
 3152TIP3    H130947   5.204   0.147  15.260  0.6963  1.7961 -0.5558
 3152TIP3    H230948   5.209   0.166  15.410 -0.2210 -1.2932 -0.0665
 3153TIP3   OH230949   0.299   5.513   3.914 -0.1963  0.0338  0.1815
 3153TIP3    H130950   0.268   5.433   3.873 -1.4299 -0.1140  1.3576
 3153TIP3    H230951   0.382   5.532   3.870  0.9803 -2.7714  0.9698
 3154TIP3   OH230952   4.127   5.769   6.102 -0.6347 -0.0259  0.0552
 3154TIP3    H130953   4.031   5.766   6.110 -0.6848 -0.7255 -0.6393
 3154TIP3    H230954   4.150   5.683   6.068  0.2194  0.2342 -0.0361
 3155TIP3   OH230955   2.968   2.323  13.244  0.5041  0.0600 -0.4169
 3155TIP3    H130956   2.954   2.408  13.201 -0.3083  1.0935  1.6924
 3155TIP3    H230957   2.913   2.262  13.195 -1.8171  1.5486  0.1415
 3156TIP3   OH230958   6.248   3.673   2.077 -0.3854 -0.4359 -0.4948
 3156TIP3    H130959   6.183   3.731   2.117 -0.6750 -1.6068  0.7989
 3156TIP3    H230960   6.197   3.613   2.022 -0.6230 -2.2423  1.5884
 3157TIP3   OH230961   3.897   3.105   4.963 -0.3822 -0.0444  0.5474
 3157TIP3    H130962   3.897   3.084   5.056 -0.3484  0.3468  0.6377
 3157TIP3    H230963   3.814   3.070   4.930 -1.5154  1.8373  1.2022
 3158TIP3   OH230964   1.375   5.754  16.656 -0.1214 -0.6641 -0.3760
 3158TIP3    H130965   1.288   5.773  16.621 -0.8111 -0.8547  1.1348
 3158TIP3    H230966   1.369   5.663  16.686  1.1808 -1.2787 -1.8686
 3159TIP3   OH230967   0.112   6.555  14.476 -0.0236  0.5157 -0.2526
 3159TIP3    H130968   0.192   6.599  14.447 -1.0557  1.8793 -1.1509
 3159TIP3    H230969   0.064   6.537  14.396  0.0501 -1.7823  0.1267
 3160TIP3   OH230970   1.587   2.686  12.072 -0.3447  0.1701 -0.5416
 3160TIP3    H130971   1.642   2.753  12.030 -0.0294 -0.3801 -1.0101
 3160TIP3    H230972   1.579   2.716  12.163 -1.2356  1.5098 -1.0124
 3161TIP3   OH230973   4.782   0.610   1.424 -0.4876  0.5357  0.3419
 3161TIP3    H130974   4.841   0.548   1.382 -1.5705 -1.7177  1.9562
 3161TIP3    H230975   4.754   0.668   1.354  0.4034 -0.9275 -1.2964
 3162TIP3   OH230976   5.404   6.009   1.537  0.0320  0.0731  0.0894
 3162TIP3    H130977   5.345   5.936   1.519 -1.5545  0.3434  3.4904
 3162TIP3    H230978   5.361   6.086   1.501 -1.5102  0.1727  2.0016
 3163TIP3   OH230979   5.722   3.250  12.253 -0.0767 -0.0117 -0.6778
 3163TIP3    H130980   5.751   3.234  12.163  0.8724  0.2277 -0.4248
 3163TIP3    H230981   5.635   3.210  12.257  0.9810 -2.5629 -0.9071
 3164TIP3   OH230982   3.889   3.407   2.603 -0.3186  0.1920 -0.6128
 3164TIP3    H130983   3.818   3.464   2.631 -0.4402  0.8691 -2.2081
 3164TIP3    H230984   3.968   3.449   2.636 -0.6473 -1.5759  2.9130
 3165TIP3   OH230985   0.265   3.829  16.037 -0.1563  0.1108 -0.6419
 3165TIP3    H130986   0.341   3.874  16.002  0.4214 -0.2346  0.1425
 3165TIP3    H230987   0.301   3.759  16.092 -1.0280  0.0592 -0.1105
 3166TIP3   OH230988   4.170   4.351  12.627  0.0523  0.3409  0.0207
 3166TIP3    H130989   4.250   4.332  12.675  0.6980 -2.3600 -1.9093
 3166TIP3    H230990   4.101   4.352  12.694  1.4524  1.3020  1.5175
 3167TIP3   OH230991   2.009   2.964  13.238 -0.4109  0.2901  0.2805
 3167TIP3    H130992   1.915   2.948  13.237 -0.1486 -1.3535 -0.2685
 3167TIP3    H230993   2.027   3.008  13.154 -0.6888  0.6426  0.4053
 3168TIP3   OH230994   5.953   0.165  12.897 -0.1181 -0.6943 -0.3123
 3168TIP3    H130995   5.901   0.184  12.975 -0.1238 -0.0998 -0.4498
 3168TIP3    H230996   5.892   0.122  12.837 -0.2618 -0.6530 -0.1969
 3169TIP3   OH230997   0.373   1.294   0.432  0.0086 -0.0232 -0.1625
 3169TIP3    H130998   0.462   1.267   0.454  0.2449  0.0931 -0.9254
 3169TIP3    H230999   0.328   1.303   0.516 -0.0762 -2.6582  0.1434
 3170TIP3   OH231000   0.390   2.023   0.848  0.0152 -0.2445  0.5625
 3170TIP3    H131001   0.355   2.057   0.930 -0.9914  0.7616 -0.2484
 3170TIP3    H231002   0.384   2.096   0.787  1.0457 -0.8773 -0.3378
 3171TIP3   OH231003   5.768   2.256   4.320  0.0881  0.3304 -0.4240
 3171TIP3    H131004   5.784   2.349   4.338  0.4353  0.4700 -1.3669
 3171TIP3    H231005   5.702   2.230   4.384 -0.0397  1.2356 -0.1708
 3172TIP3   OH231006   1.745   0.496  14.439  0.3082 -0.0566  0.0404
 3172TIP3    H131007   1.819   0.435  14.447 -0.4162 -0.7627  2.0384
 3172TIP3    H231008   1.774   0.574  14.487  0.4122  0.3563 -0.6832
 3173TIP3   OH231009   6.426   4.610  16.431  0.0831 -0.0063  0.3771
 3173TIP3    H131010   6.382   4.664  16.366  0.5452  0.2737  0.2957
 3173TIP3    H231011   6.500   4.662  16.461  0.1965 -0.3561  0.7254
 3174TIP3   OH231012   1.468   6.784  12.691 -0.3966  0.1039  0.0275
 3174TIP3    H131013   1.460   6.717  12.623  2.2067  1.1798 -1.4978
 3174TIP3    H231014   1.543   6.755  12.744 -1.6934 -0.1362  1.8284
 3175TIP3   OH231015   2.490   0.815   1.361  0.8529 -0.7197  0.5813
 3175TIP3    H131016   2.432   0.775   1.425  2.5301 -3.9660  0.2505
 3175TIP3    H231017   2.435   0.830   1.284 -0.5524  0.8008  1.7899
 3176TIP3   OH231018   1.227   3.204   2.120  0.2466 -0.2918  0.5125
 3176TIP3    H131019   1.263   3.205   2.031  0.5208  0.1542  0.6279
 3176TIP3    H231020   1.135   3.227   2.108  0.9717  3.1917  0.6368
 3177TIP3   OH231021   3.054   1.804   0.181 -0.1520 -0.1116  1.0887
 3177TIP3    H131022   3.033   1.852   0.261 -0.9024  2.2824 -0.4441
 3177TIP3    H231023   3.150   1.805   0.177 -0.0934 -0.5407  2.0871
 3178TIP3   OH231024   5.158   4.351   5.332 -0.5504 -0.3030 -0.5871
 3178TIP3    H131025   5.135   4.438   5.299 -1.1890  1.5443  4.0106
 3178TIP3    H231026   5.252   4.356   5.348 -0.7472 -0.0222  0.5901
 3179TIP3   OH231027   0.062   3.735  12.519 -0.4800  0.4948 -0.0921
 3179TIP3    H131028   0.087   3.720  12.428  0.5283  0.1091  0.2400
 3179TIP3    H231029   0.055   3.647  12.557  2.8405  0.6282  1.1636
 3180TIP3   OH231030   2.646   5.963  11.268  0.0554 -0.5485 -0.0485
 3180TIP3    H131031   2.637   5.986  11.361 -0.5864 -0.5276 -0.1066
 3180TIP3    H231032   2.556   5.970  11.234  0.3929  0.1242 -0.8243
 3181TIP3   OH231033   4.919   3.719   2.107  0.3377 -0.1459 -0.2541
 3181TIP3    H131034   4.972   3.798   2.100  0.4973 -0.3085 -1.0889
 3181TIP3    H231035   4.970   3.660   2.163  1.6329 -0.7279 -1.9239
 3182TIP3   OH231036   6.088   4.708   5.343 -0.6406 -0.4217  0.0766
 3182TIP3    H131037   6.053   4.717   5.432 -0.6203 -1.8379  0.2480
 3182TIP3    H231038   6.062   4.620   5.316  1.1519 -0.8098 -0.5265
 3183TIP3   OH231039   4.459   5.429   2.166  0.3566 -0.0229 -0.0014
 3183TIP3    H131040   4.453   5.341   2.128  0.9966  0.3737 -1.0824
 3183TIP3    H231041   4.425   5.419   2.255 -1.1619 -1.0165 -0.6419
 3184TIP3   OH231042   2.350   6.390  12.460 -0.7138 -0.2299  0.0621
 3184TIP3    H131043   2.402   6.345  12.394 -1.7997 -1.8868  0.2638
 3184TIP3    H231044   2.315   6.320  12.515 -0.2408  1.0483  2.1309
 3185TIP3   OH231045   1.227   0.873   5.087  0.7005  0.2375 -0.0648
 3185TIP3    H131046   1.167   0.918   5.026 -0.0851  0.3675  0.7793
 3185TIP3    H231047   1.309   0.922   5.079  0.8195 -0.1394 -1.4806
 3186TIP3   OH231048   1.216   2.849   6.047 -0.1929 -0.2893 -0.6450
 3186TIP3    H131049   1.221   2.783   6.117 -0.9607  0.6725  0.3474
 3186TIP3    H231050   1.306   2.856   6.015  0.7197  0.9110  1.8698
 3187TIP3   OH231051   0.728   2.344   4.227  0.6206 -0.1121  0.0497
 3187TIP3    H131052   0.805   2.289   4.240  2.6063  2.3871 -0.3346
 3187TIP3    H231053   0.733   2.410   4.296 -1.7639 -0.4144  0.6115
 3188TIP3   OH231054   1.639   1.597  14.371  0.0666 -0.5102  0.6517
 3188TIP3    H131055   1.634   1.658  14.444  0.7547 -1.5047  1.5498
 3188TIP3    H231056   1.703   1.532  14.398 -1.0893 -1.9781 -0.0172
 3189TIP3   OH231057   2.515   4.087   1.874 -0.1561  0.4867  0.6165
 3189TIP3    H131058   2.492   4.176   1.901 -0.3975  0.6499 -0.1091
 3189TIP3    H231059   2.558   4.049   1.951  1.9188  1.9414  0.2457
 3190TIP3   OH231060   1.849   6.000   5.537  0.2655 -0.4793 -0.0838
 3190TIP3    H131061   1.785   5.978   5.605 -0.8823 -0.1631 -1.0351
 3190TIP3    H231062   1.850   5.923   5.480 -1.2364  0.5002 -1.5186
 3191TIP3   OH231063   6.300   4.909   2.200  0.5024 -0.3158  0.3126
 3191TIP3    H131064   6.285   4.982   2.140 -1.2078 -1.6764 -1.0360
 3191TIP3    H231065   6.316   4.950   2.285  0.7560  1.6284 -0.6270
 3192TIP3   OH231066   2.042   1.775   3.169 -0.0498 -0.3075  0.7014
 3192TIP3    H131067   1.971   1.767   3.233  0.6724 -1.5911  1.3867
 3192TIP3    H231068   2.053   1.687   3.134  0.7812  0.0048  0.1347
 3193TIP3   OH231069   0.301   5.890   1.199  0.5884  0.3179  0.0236
 3193TIP3    H131070   0.315   5.874   1.292 -1.1589  1.3118  0.5030
 3193TIP3    H231071   0.283   5.984   1.193 -1.1473 -0.0448 -1.0433
 3194TIP3   OH231072   4.385   3.126  11.921  0.3080 -0.3216 -0.0820
 3194TIP3    H131073   4.303   3.175  11.926  1.2751  1.6547 -1.8919
 3194TIP3    H231074   4.433   3.151  12.000 -0.9496 -1.8981  1.2600
 3195TIP3   OH231075   3.422   4.481  14.242  0.2685  0.5452 -0.8806
 3195TIP3    H131076   3.408   4.410  14.305  0.5145  0.8682 -0.4578
 3195TIP3    H231077   3.411   4.561  14.293 -0.2162  0.8156 -1.4036
 3196TIP3   OH231078   6.778   4.873   6.528  0.4685 -0.1196  0.3035
 3196TIP3    H131079   6.719   4.864   6.604  0.9617  2.0546  1.0037
 3196TIP3    H231080   6.863   4.845   6.561  0.5755  0.3135  0.3972
 3197TIP3   OH231081   5.913   6.037  16.124  0.7290 -0.2377 -0.2851
 3197TIP3    H131082   5.863   6.016  16.046  0.5073 -0.6967 -0.0228
 3197TIP3    H231083   5.850   6.077  16.184  1.1676  1.3383 -0.8243
 3198TIP3   OH231084   0.490   6.074   3.467 -0.0695  0.3675 -0.4220
 3198TIP3    H131085   0.467   6.144   3.405  0.4166  0.0049 -1.0156
 3198TIP3    H231086   0.405   6.039   3.495 -0.3931  2.1435  1.0120
 3199TIP3   OH231087   1.436   2.582   2.944 -0.5310  0.1524  0.0768
 3199TIP3    H131088   1.380   2.629   3.006  0.8344  1.5884  0.2795
 3199TIP3    H231089   1.408   2.614   2.858 -0.2619  0.6155  0.1581
 3200TIP3   OH231090   4.573   2.338   1.224  0.7902 -0.0139 -0.4984
 3200TIP3    H131091   4.530   2.253   1.222  1.5099 -0.3822 -0.6669
 3200TIP3    H231092   4.561   2.373   1.136  1.5445 -0.4840 -0.7964
 3201TIP3   OH231093   3.120   0.191  16.807 -0.2425  0.5738  0.3916
 3201TIP3    H131094   3.157   0.181  16.719 -1.4525 -0.7898 -0.0082
 3201TIP3    H231095   3.194   0.180  16.866  0.4578  0.7465 -0.4243
 3202TIP3   OH231096   2.534   1.550   6.310  0.3604  0.2699  0.3616
 3202TIP3    H131097   2.461   1.598   6.269  1.7876  1.3627 -1.0181
 3202TIP3    H231098   2.514   1.553   6.404 -2.3960 -1.2544 -0.0627
 3203TIP3   OH231099   5.877   4.238  13.610  0.1460 -0.2660 -0.3736
 3203TIP3    H131100   5.865   4.325  13.572  0.5506  0.1606  0.4576
 3203TIP3    H231101   5.832   4.179  13.548  1.0366  0.3626 -1.6659
 3204TIP3   OH231102   0.210   5.064   4.300  0.5780 -0.2177  0.3155
 3204TIP3    H131103   0.132   5.117   4.317  1.1897 -0.0648  3.0711
 3204TIP3    H231104   0.223   5.071   4.206 -1.8371  1.0072 -0.0118
 3205TIP3   OH231105   2.317   2.152   4.496  0.3002 -0.4769  0.5113
 3205TIP3    H131106   2.257   2.098   4.446  1.3568  0.7618 -2.2798
 3205TIP3    H231107   2.325   2.107   4.580 -0.9139 -3.1600 -0.6872
 3206TIP3   OH231108   6.807   4.042  11.655 -0.3973  0.4284 -0.5510
 3206TIP3    H131109   6.882   4.011  11.604 -0.8868  2.2272 -2.4908
 3206TIP3    H231110   6.753   3.964  11.667  0.3830 -0.3204 -1.6509
 3207TIP3   OH231111   6.380   1.206   3.317  0.2625  0.3555  0.4043
 3207TIP3    H131112   6.296   1.245   3.343  0.8867  0.4168  2.5409
 3207TIP3    H231113   6.433   1.209   3.397  2.4810  0.7575 -1.0108
 3208TIP3   OH231114   1.493   4.802   6.120  0.4411  0.1119 -0.1554
 3208TIP3    H131115   1.416   4.856   6.140 -0.7860 -1.1129 -1.3427
 3208TIP3    H231116   1.500   4.804   6.025  1.8445  0.1097 -0.0741
 3209TIP3   OH231117   0.682   5.269  14.159 -0.1671  0.3167  1.0865
 3209TIP3    H131118   0.635   5.321  14.094 -1.3847 -0.9801  0.8904
 3209TIP3    H231119   0.613   5.231  14.214  0.6853 -0.9108  1.3557
 3210TIP3   OH231120   0.734   3.397   3.621  0.2672  0.3169  0.1293
 3210TIP3    H131121   0.658   3.353   3.659  0.7397  0.2798  1.0874
 3210TIP3    H231122   0.698   3.469   3.570 -0.3868  1.0477  1.5513
 3211TIP3   OH231123   5.352   4.761  16.807  0.2084 -0.0447 -0.3903
 3211TIP3    H131124   5.411   4.830  16.776  0.4552  0.0908  0.3595
 3211TIP3    H231125   5.374   4.751  16.899 -0.6843 -0.2654 -0.1972
 3212TIP3   OH231126   1.242   0.353  12.941 -0.1334  0.2979 -0.1918
 3212TIP3    H131127   1.238   0.433  12.994 -0.9946  0.9117 -1.1344
 3212TIP3    H231128   1.157   0.350  12.897 -0.2008 -1.2804  0.0168
 3213TIP3   OH231129   0.894   2.138   1.802  0.1935 -0.1957 -0.7140
 3213TIP3    H131130   0.975   2.103   1.768  1.2841  0.9610  0.5449
 3213TIP3    H231131   0.870   2.079   1.873 -0.6894 -1.1557 -1.7822
 3214TIP3   OH231132   6.445   0.898   1.933 -0.2030  0.2518 -0.2521
 3214TIP3    H131133   6.452   0.973   1.874  1.5532 -0.2298 -0.7198
 3214TIP3    H231134   6.500   0.921   2.008  0.3674 -0.5537 -0.4093
 3215TIP3   OH231135   5.424   0.736  11.964 -0.1890 -0.4147  0.3461
 3215TIP3    H131136   5.492   0.757  12.028  0.3489  0.8473 -0.5952
 3215TIP3    H231137   5.352   0.794  11.986  0.2181  0.4425 -0.5201
 3216TIP3   OH231138   6.531   4.961   5.655 -0.6885 -0.5848  0.1727
 3216TIP3    H131139   6.505   4.924   5.571  0.3422  1.6679 -1.2381
 3216TIP3    H231140   6.541   5.055   5.638  0.7642 -0.2347  2.5012
 3217TIP3   OH231141   5.866   1.312  10.131  0.0543  0.2835  0.1511
 3217TIP3    H131142   5.798   1.370  10.095 -0.7677 -0.2717  0.7751
 3217TIP3    H231143   5.891   1.352  10.214  0.9726  0.8340 -0.3772
 3218TIP3   OH231144   5.063   3.544   5.112  0.5682  0.1257  0.1245
 3218TIP3    H131145   5.090   3.457   5.081 -1.5986 -0.6753  0.3254
 3218TIP3    H231146   4.997   3.572   5.048  0.3274  1.0666  0.7767
 3219TIP3   OH231147   5.620   5.270  16.386 -0.4431  0.3190 -0.0020
 3219TIP3    H131148   5.652   5.260  16.297 -0.3017  0.4413  0.0347
 3219TIP3    H231149   5.524   5.273  16.377 -0.4563 -0.2069 -0.0946
 3220TIP3   OH231150   4.308   2.155  11.354 -0.6846  0.3937 -0.0375
 3220TIP3    H131151   4.295   2.181  11.263 -1.9523  0.2909  0.0968
 3220TIP3    H231152   4.229   2.105  11.376  0.0067 -0.3333  0.8546
 3221TIP3   OH231153   5.658   5.099  12.386 -0.3618  0.4351 -0.3290
 3221TIP3    H131154   5.591   5.140  12.331 -1.0657  1.2258  1.0667
 3221TIP3    H231155   5.656   5.007  12.361 -0.5362  0.8039 -1.7408
 3222TIP3   OH231156   4.438   6.571   0.319 -0.0536  0.4285  0.0819
 3222TIP3    H131157   4.435   6.597   0.411  1.4593 -2.7784  1.1789
 3222TIP3    H231158   4.473   6.648   0.274  0.3573  1.6888  2.3792
 3223TIP3   OH231159   6.652   4.018  17.043  0.2184  0.7079  0.4260
 3223TIP3    H131160   6.559   4.000  17.050 -0.0417  0.8627 -1.9511
 3223TIP3    H231161   6.689   3.938  17.004  0.5021  1.7914 -1.6815
 3224TIP3   OH231162   2.581   2.983   3.504 -0.4300  0.1901 -0.4992
 3224TIP3    H131163   2.622   3.070   3.501  0.6407 -0.2578  0.6849
 3224TIP3    H231164   2.591   2.954   3.594 -0.1664 -1.4551 -1.0235
 3225TIP3   OH231165   4.322   3.240   3.750 -0.0174 -0.3381 -0.2539
 3225TIP3    H131166   4.272   3.160   3.764 -1.8099  1.0365  1.8287
 3225TIP3    H231167   4.258   3.302   3.713  0.8060  0.6928  0.0018
 3226TIP3   OH231168   2.680   5.250  15.911  0.1986 -0.5702  0.1256
 3226TIP3    H131169   2.688   5.294  15.996 -3.8968  0.4127  0.2315
 3226TIP3    H231170   2.754   5.283  15.859  1.3381  0.7973  2.4901
 3227TIP3   OH231171   3.311   5.416  14.453 -0.0222  0.2527  0.3845
 3227TIP3    H131172   3.292   5.478  14.523 -1.6608  0.3035 -0.0648
 3227TIP3    H231173   3.306   5.469  14.373 -1.2895 -0.4112  0.0078
 3228TIP3   OH231174   2.716   4.080  14.572  0.3883 -0.2235 -0.3307
 3228TIP3    H131175   2.697   4.006  14.516 -0.7442 -1.6722  1.8178
 3228TIP3    H231176   2.709   4.157  14.515 -1.3412 -1.5459 -2.0025
 3229TIP3   OH231177   4.918   2.868   1.180  0.0327  0.1910 -0.8794
 3229TIP3    H131178   4.900   2.952   1.138 -0.1977 -0.0461 -1.2600
 3229TIP3    H231179   5.004   2.880   1.221 -1.0811  1.4881  1.3129
 3230TIP3   OH231180   1.806   0.848  16.794  0.0085  0.4936 -0.0346
 3230TIP3    H131181   1.739   0.888  16.739 -0.7988 -0.7943 -0.0254
 3230TIP3    H231182   1.759   0.781  16.844  1.2730 -0.3027  0.1240
 3231TIP3   OH231183   1.145   2.417   2.799  0.1474 -0.4890  0.4503
 3231TIP3    H131184   1.191   2.497   2.771  0.2017 -0.4247  0.7205
 3231TIP3    H231185   1.057   2.447   2.820  0.3601 -0.3769  1.2078
 3232TIP3   OH231186   6.107   2.782  15.742 -0.0616 -0.0774  0.1196
 3232TIP3    H131187   6.064   2.701  15.712 -1.3439  0.2508  0.9905
 3232TIP3    H231188   6.120   2.833  15.662 -0.1906 -0.7009 -0.3126
 3233TIP3   OH231189   4.998   6.621  16.562 -0.1715  0.2154 -0.3756
 3233TIP3    H131190   4.914   6.637  16.520 -0.6943 -2.0407 -0.2968
 3233TIP3    H231191   4.976   6.581  16.646  0.9185  2.9144  1.3022
 3234TIP3   OH231192   4.781   5.034  16.605  0.2745  0.0775 -0.2682
 3234TIP3    H131193   4.737   5.071  16.682 -0.2336 -0.0225 -0.5059
 3234TIP3    H231194   4.785   5.107  16.543 -0.4530 -0.1816 -0.6220
 3235TIP3   OH231195   3.671   6.804   3.411 -0.0489 -0.2957  0.2264
 3235TIP3    H131196   3.591   6.795   3.360  1.1008 -0.8284 -1.6080
 3235TIP3    H231197   3.732   6.849   3.352  0.8305  0.6290  1.7737
 3236TIP3   OH231198   2.587   1.566   2.576 -0.2643 -0.2979  0.0160
 3236TIP3    H131199   2.679   1.593   2.577  0.1586 -1.6732  0.3295
 3236TIP3    H231200   2.569   1.545   2.484 -0.3579  0.2644 -0.0951
 3237TIP3   OH231201   4.473   6.747   0.537 -0.1817  0.0806 -0.1158
 3237TIP3    H131202   4.442   6.753   0.627 -0.7233 -1.2903 -0.1842
 3237TIP3    H231203   4.413   6.804   0.488 -0.3496  0.2542  0.2865
 3238TIP3   OH231204   2.740   6.096   1.855  0.0028 -0.7499 -0.2413
 3238TIP3    H131205   2.739   6.053   1.769  1.7209  0.9117 -1.1727
 3238TIP3    H231206   2.649   6.120   1.871 -0.3739 -1.2109 -1.5361
 3239TIP3   OH231207   5.436   1.171  14.245  0.8336 -0.1935 -0.4733
 3239TIP3    H131208   5.440   1.075  14.241  2.3314 -0.1556 -0.6130
 3239TIP3    H231209   5.459   1.191  14.336  0.6329  0.0401 -0.4745
 3240TIP3   OH231210   1.111   6.053  13.774 -0.0261 -0.0220 -0.6914
 3240TIP3    H131211   1.026   6.097  13.769  0.0376  0.0897 -0.8034
 3240TIP3    H231212   1.138   6.061  13.866 -1.3185 -2.2947 -0.0319
 3241TIP3   OH231213   5.526   4.361  11.368 -0.2920 -0.8105  0.0873
 3241TIP3    H131214   5.447   4.338  11.319 -0.0140 -1.0147 -0.2730
 3241TIP3    H231215   5.576   4.280  11.371 -0.4539 -0.8861  1.0019
 3242TIP3   OH231216   2.155   5.509  13.056  0.2007 -0.6681  0.7506
 3242TIP3    H131217   2.122   5.509  12.966  0.6651 -1.4408  0.5651
 3242TIP3    H231218   2.104   5.575  13.101  0.4805  0.2688 -0.2730
 3243TIP3   OH231219   0.638   4.809  13.049  0.4909  0.0946  0.9352
 3243TIP3    H131220   0.667   4.860  13.124 -1.4363 -0.5949  2.2322
 3243TIP3    H231221   0.543   4.817  13.050  0.4159  0.9615 -2.1342
 3244TIP3   OH231222   4.583   1.535  12.463  0.1947 -0.2805 -0.3604
 3244TIP3    H131223   4.586   1.627  12.434 -2.7051  0.2506  0.6671
 3244TIP3    H231224   4.636   1.533  12.542 -0.4606  0.7649  0.1261
 3245TIP3   OH231225   2.716   1.758  17.127  0.2122 -0.1323  0.1017
 3245TIP3    H131226   2.789   1.721  17.176  0.2067  0.3629  0.4941
 3245TIP3    H231227   2.746   1.845  17.101  0.9493 -1.0650 -2.4166
 3246TIP3   OH231228   2.757   3.362  13.401 -0.0394 -0.0948 -0.2264
 3246TIP3    H131229   2.782   3.351  13.309  0.9852 -1.1843  0.1677
 3246TIP3    H231230   2.662   3.364  13.399 -0.0891 -1.6737 -1.1577
 3247TIP3   OH231231   6.431   6.565   5.258 -0.5646 -0.3742  0.0064
 3247TIP3    H131232   6.355   6.506   5.255 -0.3560 -0.6872  0.7092
 3247TIP3    H231233   6.421   6.613   5.340  0.6183 -1.2675  0.6950
 3248TIP3   OH231234   6.193   6.776  14.632 -0.5808  0.5984  0.1889
 3248TIP3    H131235   6.144   6.818  14.562  0.2453 -0.3585 -1.0123
 3248TIP3    H231236   6.272   6.742  14.590 -0.4016 -0.6610  1.4214
 3249TIP3   OH231237   5.860   6.718  13.147  0.2616 -0.7379  0.0656
 3249TIP3    H131238   5.949   6.719  13.110 -0.2084  0.4231 -1.1139
 3249TIP3    H231239   5.852   6.632  13.188  2.0248 -0.7700  0.4362
 3250TIP3   OH231240   6.694   1.285  11.463  1.0076 -0.5481 -0.1051
 3250TIP3    H131241   6.735   1.371  11.469  0.3841 -0.1902 -0.7616
 3250TIP3    H231242   6.661   1.280  11.373 -1.0946 -0.4678  0.5952
 3251TIP3   OH231243   2.445   3.787   4.665  0.1795  0.0251  0.2382
 3251TIP3    H131244   2.527   3.829   4.637  0.2477 -1.6571 -2.4907
 3251TIP3    H231245   2.384   3.806   4.595 -1.4319  0.1265  1.6132
 3252TIP3   OH231246   5.598   2.193  17.163 -0.2628  0.1623  0.1127
 3252TIP3    H131247   5.570   2.233  17.081 -0.5053 -1.3677 -0.5852
 3252TIP3    H231248   5.524   2.138  17.189  0.8464 -1.5142 -0.1227
 3253TIP3   OH231249   0.329   6.209   2.582  0.7272  0.1017 -0.4863
 3253TIP3    H131250   0.303   6.124   2.548 -0.5861  0.5027 -0.5372
 3253TIP3    H231251   0.281   6.272   2.528  0.4313  0.8129  0.5670
 3254TIP3   OH231252   5.215   1.179  12.539  0.3647  0.5485  0.1676
 3254TIP3    H131253   5.131   1.224  12.535 -0.2229 -0.5469 -0.1401
 3254TIP3    H231254   5.265   1.227  12.606 -0.2620  1.5884 -0.0952
 3255TIP3   OH231255   1.881   2.410   1.641  0.2420  0.1528  0.6849
 3255TIP3    H131256   1.950   2.351   1.613 -0.0547  0.1435 -0.0459
 3255TIP3    H231257   1.800   2.369   1.611  0.0054  0.7481  0.4810
 3256TIP3   OH231258   0.940   5.150  10.692 -0.0784 -0.3196  0.4552
 3256TIP3    H131259   0.892   5.218  10.645  1.0046  0.1223 -0.0274
 3256TIP3    H231260   0.876   5.080  10.703 -0.1552 -0.8812 -2.5815
 3257TIP3   OH231261   1.427   5.863  14.542  0.4402 -0.1634  0.2891
 3257TIP3    H131262   1.485   5.819  14.480 -0.5467 -1.2611  0.0978
 3257TIP3    H231263   1.404   5.945  14.500  0.8150 -0.3122 -0.2151
 3258TIP3   OH231264   2.756   5.040   3.415  0.0944  0.0990 -0.3504
 3258TIP3    H131265   2.769   5.055   3.509 -1.9899 -1.5804  0.2775
 3258TIP3    H231266   2.791   4.953   3.399 -2.2174 -0.8832 -0.4270
 3259TIP3   OH231267   0.891   5.310   0.634 -0.2502  0.1939 -0.8041
 3259TIP3    H131268   0.980   5.331   0.662 -0.4059 -0.5601  0.3188
 3259TIP3    H231269   0.853   5.393   0.607  0.5199  0.6499 -0.4952
 3260TIP3   OH231270   3.339   0.582   5.141 -0.7080 -0.1455 -0.6435
 3260TIP3    H131271   3.377   0.573   5.053 -0.3062  1.4667 -0.6590
 3260TIP3    H231272   3.411   0.612   5.196 -0.8230 -1.6219  0.3929
 3261TIP3   OH231273   0.397   1.618   1.302  0.0872  0.0046  0.0328
 3261TIP3    H131274   0.415   1.530   1.269 -1.1594 -0.3000  0.1268
 3261TIP3    H231275   0.484   1.656   1.317  0.6859 -1.7338  1.4052
 3262TIP3   OH231276   2.565   1.398  14.589  0.1434  0.2912  0.8175
 3262TIP3    H131277   2.585   1.391  14.682 -2.1364 -1.7392  1.2459
 3262TIP3    H231278   2.503   1.470  14.583 -0.8948 -0.5342  1.1669
 3263TIP3   OH231279   6.812   2.414   1.933 -0.4146  0.0121 -0.8734
 3263TIP3    H131280   6.868   2.486   1.903 -2.0113  1.9560  0.4772
 3263TIP3    H231281   6.764   2.451   2.008 -2.3498 -2.0262 -0.9956
 3264TIP3   OH231282   3.502   5.711  15.813  0.3506  0.0117  0.0285
 3264TIP3    H131283   3.486   5.723  15.719 -1.4112 -0.8523  0.1853
 3264TIP3    H231284   3.597   5.724  15.823  0.7961 -1.1911 -2.0791
 3265TIP3   OH231285   2.621   5.229  16.807  0.3735  0.2909  0.2522
 3265TIP3    H131286   2.636   5.294  16.874  2.7846 -0.2869  0.3703
 3265TIP3    H231287   2.582   5.277  16.734 -0.4506  1.2863  1.3228
 3266TIP3   OH231288   2.385   4.247   0.547 -0.0580 -0.4645  0.4319
 3266TIP3    H131289   2.431   4.180   0.497  3.0017  1.9219 -0.2845
 3266TIP3    H231290   2.443   4.267   0.620 -1.5378  0.4641  1.4045
 3267TIP3   OH231291   5.026   5.369  14.861  0.0416  0.3047  0.2473
 3267TIP3    H131292   5.090   5.406  14.800 -1.1785  0.5449 -0.9632
 3267TIP3    H231293   5.050   5.277  14.868  0.0396  0.1920 -0.8933
 3268TIP3   OH231294   6.368   3.486  11.050 -0.2915  0.1064 -0.3759
 3268TIP3    H131295   6.446   3.443  11.086 -0.1200  1.0740  0.4495
 3268TIP3    H231296   6.306   3.414  11.035  0.0479 -0.4600  0.8010
 3269TIP3   OH231297   0.508   3.635   6.234 -0.2298  0.1534 -0.1285
 3269TIP3    H131298   0.585   3.579   6.223 -0.5049 -0.2482 -0.0441
 3269TIP3    H231299   0.517   3.673   6.321  0.4812  1.0510 -0.5900
 3270TIP3   OH231300   6.128   1.849   2.673 -0.3320 -0.1674  0.2940
 3270TIP3    H131301   6.173   1.811   2.748 -0.0557 -0.4081  0.0076
 3270TIP3    H231302   6.089   1.774   2.627 -0.1682 -0.0637 -0.0201
 3271TIP3   OH231303   0.075   0.085  16.078 -0.6381  0.1416  0.9252
 3271TIP3    H131304   0.019   0.156  16.046 -1.1060 -0.6161  0.0247
 3271TIP3    H231305   0.161   0.104  16.042 -0.8427  0.0651  0.3901
 3272TIP3   OH231306   2.019   0.382   0.179  0.6142  0.0996 -0.5318
 3272TIP3    H131307   1.951   0.450   0.182  1.8788  1.3888  0.0671
 3272TIP3    H231308   2.101   0.431   0.175  1.9902 -1.0781  4.7128
 3273TIP3   OH231309   4.637   2.066  12.197  0.0147 -0.7456  0.2493
 3273TIP3    H131310   4.629   2.097  12.107  1.1242 -2.0266 -0.3325
 3273TIP3    H231311   4.634   1.970  12.190 -1.7592 -0.8594  1.7977
 3274TIP3   OH231312   2.018   4.037  12.451  0.2365 -0.3376  0.1373
 3274TIP3    H131313   1.954   4.103  12.425  0.2017 -0.4689 -0.1129
 3274TIP3    H231314   1.967   3.956  12.459  0.1742 -0.2197  0.9954
 3275TIP3   OH231315   5.793   2.894  15.849 -0.3568  0.5756 -0.0563
 3275TIP3    H131316   5.699   2.905  15.856 -0.0893  1.8484  4.0513
 3275TIP3    H231317   5.806   2.799  15.840 -1.9749  0.4939 -2.0323
 3276TIP3   OH231318   6.585   5.086   3.600 -0.6457 -0.4541  0.4609
 3276TIP3    H131319   6.500   5.087   3.645 -0.7822 -1.9930  0.2997
 3276TIP3    H231320   6.640   5.030   3.655  0.1686  0.2545  0.3773
 3277TIP3   OH231321   2.222   2.578  15.743 -0.7171  0.2642  0.1818
 3277TIP3    H131322   2.152   2.631  15.781 -0.8693 -1.6949  2.8455
 3277TIP3    H231323   2.297   2.637  15.740 -1.1638  0.9875  2.0495
 3278TIP3   OH231324   4.954   4.356   1.146 -1.2908 -0.1235  0.1078
 3278TIP3    H131325   4.881   4.368   1.207 -1.0910 -2.6107  0.9548
 3278TIP3    H231326   5.032   4.372   1.198 -1.1579  0.6711 -0.3133
 3279TIP3   OH231327   4.988   1.635   2.825 -0.3561  0.2889 -0.6859
 3279TIP3    H131328   4.924   1.577   2.868 -0.3981  1.3378  0.7422
 3279TIP3    H231329   5.021   1.690   2.896 -0.4920  2.1794 -2.0264
 3280TIP3   OH231330   1.497   0.973   2.501 -0.0751  0.3391 -0.3970
 3280TIP3    H131331   1.539   1.034   2.561 -2.9537  0.6909  1.4471
 3280TIP3    H231332   1.474   1.026   2.425 -0.2751  0.9421  0.0805
 3281TIP3   OH231333   2.459   5.357   4.866 -0.0481 -0.4061 -0.1677
 3281TIP3    H131334   2.541   5.325   4.903  0.2615 -1.5423 -1.7155
 3281TIP3    H231335   2.476   5.362   4.772 -2.1918 -2.2599 -0.7584
 3282TIP3   OH231336   2.341   3.222   3.358 -0.3325 -0.5906 -0.3505
 3282TIP3    H131337   2.288   3.298   3.337 -1.1278 -0.4693  1.7596
 3282TIP3    H231338   2.421   3.231   3.306 -0.1541  2.0050  0.2552
 3283TIP3   OH231339   2.176   0.801   2.937  0.0192  0.4706  0.2706
 3283TIP3    H131340   2.102   0.741   2.933  0.3633  0.1127 -2.3551
 3283TIP3    H231341   2.252   0.746   2.919  0.6449  1.2519  0.4811
 3284TIP3   OH231342   4.893   0.947   6.532 -0.0061 -0.1895  0.1608
 3284TIP3    H131343   4.820   0.980   6.479  1.9846  2.6849 -1.0325
 3284TIP3    H231344   4.856   0.873   6.580 -3.5949  0.9464 -0.5666
 3285TIP3   OH231345   1.548   4.452   3.694 -0.6394 -0.5842  0.0483
 3285TIP3    H131346   1.478   4.482   3.752 -0.9238  1.2804 -1.1699
 3285TIP3    H231347   1.626   4.447   3.750 -1.1104  0.1876  0.7891
 3286TIP3   OH231348   6.392   6.087  11.468  0.3242  0.5974 -0.0799
 3286TIP3    H131349   6.477   6.044  11.464  0.0436 -0.1426  1.3780
 3286TIP3    H231350   6.364   6.093  11.377  0.9588 -1.1245 -0.4224
 3287TIP3   OH231351   6.653   0.910  12.803  0.2182 -0.0143 -0.0577
 3287TIP3    H131352   6.564   0.877  12.814  0.1808 -0.2621 -0.9823
 3287TIP3    H231353   6.645   0.979  12.737  0.8752 -0.8623 -1.0586
 3288TIP3   OH231354   1.715   3.738  13.932 -0.1493  0.4208 -0.4698
 3288TIP3    H131355   1.707   3.786  14.015  0.7499  1.2530 -0.8424
 3288TIP3    H231356   1.784   3.673  13.949  0.3569  0.8892 -0.6800
 3289TIP3   OH231357   1.394   0.381  11.593  0.0620 -0.4403  0.0737
 3289TIP3    H131358   1.425   0.431  11.517  2.3568 -0.6911  0.7488
 3289TIP3    H231359   1.471   0.331  11.621 -0.7146 -0.4063  2.5060
 3290TIP3   OH231360   5.745   1.181  14.646  0.1606 -0.1287 -0.2528
 3290TIP3    H131361   5.762   1.208  14.737 -1.9272 -0.4862  0.2962
 3290TIP3    H231362   5.831   1.159  14.611  1.2643  1.7683  1.0520
 3291TIP3   OH231363   4.007   5.915   6.377 -0.2857 -0.1717 -0.1918
 3291TIP3    H131364   3.928   5.864   6.363 -0.5045  0.1681 -0.2107
 3291TIP3    H231365   4.077   5.850   6.385 -0.3454 -0.4189 -1.5331
 3292TIP3   OH231366   0.524   4.207  12.144 -0.4048 -0.1767  0.0710
 3292TIP3    H131367   0.453   4.225  12.205 -0.1353 -0.3111  0.4245
 3292TIP3    H231368   0.491   4.237  12.059 -0.5787  0.4911  0.3700
 3293TIP3   OH231369   1.585   6.047   2.563 -0.6158  0.5524 -0.0287
 3293TIP3    H131370   1.577   5.958   2.527 -0.2195  0.3155  0.4577
 3293TIP3    H231371   1.523   6.048   2.637  1.4600 -0.3148  1.8561
 3294TIP3   OH231372   3.409   5.401   0.344  0.7255 -0.1002  0.7972
 3294TIP3    H131373   3.451   5.435   0.265  1.2277  0.5479  1.3309
 3294TIP3    H231374   3.445   5.313   0.354  2.5876  0.7016  1.6627
 3295TIP3   OH231375   1.675   2.893   5.222 -0.0309  0.5175 -0.3690
 3295TIP3    H131376   1.673   2.797   5.218 -1.0810  0.4628  0.7681
 3295TIP3    H231377   1.590   2.917   5.258  0.5579  1.8385  0.1986
 3296TIP3   OH231378   1.794   4.243   4.991  0.0953  0.2790  0.4999
 3296TIP3    H131379   1.768   4.305   5.059 -0.3932  2.0138 -1.1452
 3296TIP3    H231380   1.884   4.220   5.013  0.4973  2.0503  0.9147
 3297TIP3   OH231381   1.138   0.157  14.125  0.3956  0.3882  0.3660
 3297TIP3    H131382   1.058   0.144  14.074  0.3453  1.7013  0.0801
 3297TIP3    H231383   1.184   0.228  14.080 -0.3778  2.6686  2.9025
 3298TIP3   OH231384   6.338   5.394  16.332 -0.0226 -0.1046  0.2815
 3298TIP3    H131385   6.347   5.299  16.323  0.6945 -0.1229  1.0631
 3298TIP3    H231386   6.342   5.409  16.426  0.1746  0.7356  0.1391
 3299TIP3   OH231387   5.748   4.550   3.712 -0.5393  0.4497 -0.2537
 3299TIP3    H131388   5.745   4.494   3.790 -0.8325  0.4084 -0.2919
 3299TIP3    H231389   5.840   4.551   3.687 -0.3197  1.0749  0.5348
 3300TIP3   OH231390   6.324   4.178  10.189  0.4606 -0.1552  0.2999
 3300TIP3    H131391   6.418   4.169  10.173  0.3386 -2.2547  0.5505
 3300TIP3    H231392   6.287   4.094  10.166 -0.8952 -0.5778  3.4221
 3301TIP3   OH231393   2.007   1.910   3.615  0.0921 -0.0843 -0.1195
 3301TIP3    H131394   1.949   1.877   3.684  0.6020 -1.4455 -0.3002
 3301TIP3    H231395   2.095   1.905   3.655  0.1061  2.1349  0.2278
 3302TIP3   OH231396   0.255   2.027   0.544  0.1331 -0.1910  0.2426
 3302TIP3    H131397   0.345   2.047   0.570 -0.0511 -0.7546  1.3997
 3302TIP3    H231398   0.207   2.108   0.563  0.4223  0.1965 -0.6141
 3303TIP3   OH231399   6.794   2.644  15.807  0.2683 -0.1534  0.1734
 3303TIP3    H131400   6.879   2.678  15.833 -0.5161  1.3439  0.9075
 3303TIP3    H231401   6.732   2.689  15.864 -0.9282 -2.1419  0.5261
 3304TIP3   OH231402   3.627   3.257   0.485 -0.2716 -0.6072 -0.0135
 3304TIP3    H131403   3.565   3.192   0.517 -0.2964 -0.4318  0.3107
 3304TIP3    H231404   3.642   3.314   0.561 -1.6063  0.8102 -0.7686
 3305TIP3   OH231405   0.407   1.161  17.048  0.3054  0.0535  0.2397
 3305TIP3    H131406   0.333   1.222  17.051  0.7944  0.7154 -0.6816
 3305TIP3    H231407   0.371   1.078  17.079 -0.2034  0.9575  2.1925
 3306TIP3   OH231408   1.327   2.619  11.348  0.0569 -0.3144 -0.3825
 3306TIP3    H131409   1.401   2.647  11.294 -1.0606  1.0775 -1.2624
 3306TIP3    H231410   1.312   2.693  11.408  0.1292 -1.0950  0.6237
 3307TIP3   OH231411   4.455   0.942   5.882 -0.0284  0.0216  0.5598
 3307TIP3    H131412   4.360   0.936   5.895 -0.1586  0.1717 -0.3186
 3307TIP3    H231413   4.489   0.954   5.971 -0.7754 -0.6399  0.9567
 3308TIP3   OH231414   6.431   3.764   1.754  0.2049  0.2109 -0.3591
 3308TIP3    H131415   6.384   3.760   1.837 -0.1180  1.9573 -0.4153
 3308TIP3    H231416   6.364   3.741   1.688  0.1726 -0.1001 -0.2172
 3309TIP3   OH231417   3.298   3.938   1.454 -0.6989  0.2372  0.3805
 3309TIP3    H131418   3.311   4.031   1.473  1.9833  0.1371 -0.5415
 3309TIP3    H231419   3.283   3.934   1.360 -0.7138 -0.2736  0.4021
 3310TIP3   OH231420   2.338   5.888  14.292 -0.2650 -0.1392 -0.4505
 3310TIP3    H131421   2.248   5.861  14.313 -0.5982  0.9702 -0.3811
 3310TIP3    H231422   2.393   5.835  14.349 -0.9761  0.3681  0.7343
 3311TIP3   OH231423   5.775   2.101  12.904 -0.1537 -0.7281 -0.5791
 3311TIP3    H131424   5.699   2.088  12.960 -0.6068 -0.2274 -1.0601
 3311TIP3    H231425   5.762   2.040  12.831  0.8761 -2.0053  0.2872
 3312TIP3   OH231426   3.258   0.514  16.213  0.7402  0.3305 -0.1453
 3312TIP3    H131427   3.290   0.433  16.172 -0.3541 -0.3428  0.3037
 3312TIP3    H231428   3.167   0.520  16.186  0.2520  0.3583  1.4354
 3313TIP3   OH231429   3.801   0.504  15.282 -0.0600 -0.2536  0.7220
 3313TIP3    H131430   3.883   0.550  15.299  0.0172  1.0916 -2.5034
 3313TIP3    H231431   3.734   0.561  15.317  0.2154  0.9456 -0.5838
 3314TIP3   OH231432   1.782   0.655   3.793 -0.3222 -0.0224 -0.5982
 3314TIP3    H131433   1.717   0.628   3.727 -1.3089 -0.1512  0.4089
 3314TIP3    H231434   1.735   0.716   3.850  0.2247 -0.6965  0.5970
 3315TIP3   OH231435   1.556   6.314   4.738 -0.3956  0.5914  0.7058
 3315TIP3    H131436   1.509   6.234   4.712 -0.2796  0.9364 -0.6643
 3315TIP3    H231437   1.584   6.298   4.828 -1.5495 -0.3617  0.9227
 3316TIP3   OH231438   4.394   3.439  16.911  0.1360  0.2266  0.2859
 3316TIP3    H131439   4.418   3.517  16.961 -0.2782  0.9210 -0.5758
 3316TIP3    H231440   4.432   3.453  16.825 -1.1205  0.1298 -0.3035
 3317TIP3   OH231441   1.555   2.684  11.197 -0.2718  1.2682  0.1993
 3317TIP3    H131442   1.606   2.652  11.272 -1.2315  0.4087  0.5166
 3317TIP3    H231443   1.587   2.634  11.123 -1.6388 -0.3832  0.6628
 3318TIP3   OH231444   0.251   3.679  17.146 -0.2696  0.3930  0.1652
 3318TIP3    H131445   0.194   3.745  17.105  1.2986  0.3393 -2.2996
 3318TIP3    H231446   0.241   3.601  17.091  2.2857  0.4691 -0.5534
 3319TIP3   OH231447   3.748   0.822   4.463 -0.6560 -0.1083  0.0312
 3319TIP3    H131448   3.778   0.731   4.468  1.2604  0.2329 -2.7733
 3319TIP3    H231449   3.729   0.836   4.370 -2.0334  2.0704  0.5637
 3320TIP3   OH231450   2.923   2.699  15.876 -0.5430  0.6020 -0.1574
 3320TIP3    H131451   2.976   2.742  15.808  0.1300  0.8204  0.4886
 3320TIP3    H231452   2.853   2.655  15.828  0.9568 -0.8033 -1.1831
 3321TIP3   OH231453   3.454   3.548   2.241  0.7697  0.2248  0.9749
 3321TIP3    H131454   3.503   3.472   2.209  1.1580  1.3896 -1.4359
 3321TIP3    H231455   3.487   3.621   2.188 -2.2522  1.3948  0.5182
 3322TIP3   OH231456   5.420   2.338   4.832 -0.1947  0.2531  0.8552
 3322TIP3    H131457   5.343   2.288   4.807  0.2414  0.3136 -0.6854
 3322TIP3    H231458   5.387   2.426   4.850 -0.3491  0.6041 -0.9980
 3323TIP3   OH231459   2.079   2.688   0.564  0.3995  0.4642 -0.2776
 3323TIP3    H131460   2.020   2.629   0.613  0.1830  0.9382  0.0374
 3323TIP3    H231461   2.132   2.629   0.510 -0.4364  0.0261 -0.6517
 3324TIP3   OH231462   5.569   4.171  15.483 -0.0688 -0.4926  0.7726
 3324TIP3    H131463   5.598   4.123  15.404  1.3060  1.2598  0.1432
 3324TIP3    H231464   5.582   4.108  15.554  1.3448 -1.2132 -0.0606
 3325TIP3   OH231465   2.745   0.316  15.117 -0.6997  0.3639 -0.5222
 3325TIP3    H131466   2.787   0.308  15.203  2.4048 -3.0191 -2.0655
 3325TIP3    H231467   2.798   0.381  15.071 -1.1752  0.7896 -0.4663
 3326TIP3   OH231468   1.189   2.423  16.492 -0.4079 -0.5447  0.2598
 3326TIP3    H131469   1.178   2.452  16.402  0.6678  1.8616  0.8092
 3326TIP3    H231470   1.282   2.438  16.511 -1.1113  1.6631  2.5279
 3327TIP3   OH231471   3.512   5.944   4.966 -0.0147  1.2173  0.1653
 3327TIP3    H131472   3.606   5.939   4.979  0.1060 -0.6217 -1.0630
 3327TIP3    H231473   3.476   5.875   5.023 -0.4797  1.0097 -0.3603
 3328TIP3   OH231474   4.646   5.688  11.242 -0.9813 -0.3056 -0.0075
 3328TIP3    H131475   4.601   5.627  11.300 -0.9131  1.2508  1.7711
 3328TIP3    H231476   4.674   5.634  11.168 -0.3859 -2.5830  1.7467
 3329TIP3   OH231477   3.769   6.612   2.721  0.5222  0.0402  0.3718
 3329TIP3    H131478   3.729   6.653   2.797  0.8015  0.9346  0.0508
 3329TIP3    H231479   3.698   6.562   2.680 -0.3987  1.8706 -0.3845
 3330TIP3   OH231480   6.597   3.143  12.246  0.0782  0.2890 -0.8624
 3330TIP3    H131481   6.670   3.117  12.190 -0.1561  0.1911 -1.1249
 3330TIP3    H231482   6.619   3.110  12.332  1.0876  1.5921 -0.5907
 3331TIP3   OH231483   4.866   1.493   1.875 -0.4509  0.2772  0.1504
 3331TIP3    H131484   4.937   1.462   1.819  0.4697  1.8439  0.3846
 3331TIP3    H231485   4.797   1.427   1.866  0.6104 -0.7269 -0.9235
 3332TIP3   OH231486   1.570   2.917   2.634 -0.4566 -0.1529 -0.3334
 3332TIP3    H131487   1.576   2.909   2.729  1.4448  1.1175 -0.2743
 3332TIP3    H231488   1.612   3.001   2.614  2.3496 -1.8765 -2.5104
 3333TIP3   OH231489   0.390   4.087  14.773 -0.1154 -0.5084 -0.1278
 3333TIP3    H131490   0.400   4.124  14.685 -0.2575 -1.8707 -0.7405
 3333TIP3    H231491   0.417   4.158  14.831 -0.5026  0.5955 -1.2405
 3334TIP3   OH231492   0.639   2.156  16.579 -0.2675  0.1909  0.6539
 3334TIP3    H131493   0.716   2.135  16.527  0.4484  1.6040  1.0843
 3334TIP3    H231494   0.619   2.247  16.558 -0.5195  0.5083  2.1200
 3335TIP3   OH231495   0.105   0.945  16.642 -0.1286 -0.3997 -0.2853
 3335TIP3    H131496   0.153   0.864  16.660  0.2335 -0.5938 -1.9447
 3335TIP3    H231497   0.073   0.934  16.552  0.2065  1.4037 -0.6626
 3336TIP3   OH231498   0.140   2.618  12.911  0.2223  0.1835  0.8652
 3336TIP3    H131499   0.053   2.623  12.871 -0.3459  2.4561  2.1797
 3336TIP3    H231500   0.184   2.698  12.881  1.5356 -0.4878  0.9487
 3337TIP3   OH231501   2.025   4.615  10.820  0.5412 -0.2486  0.2399
 3337TIP3    H131502   1.989   4.703  10.831  1.5719  0.0833  1.1009
 3337TIP3    H231503   2.083   4.622  10.744 -0.1698 -0.4572 -0.3340
 3338TIP3   OH231504   4.146   2.578  15.176 -0.6703 -0.5347  0.1468
 3338TIP3    H131505   4.208   2.509  15.151  1.4075  0.6365  1.7377
 3338TIP3    H231506   4.070   2.562  15.120  1.5187 -1.2980 -2.9362
 3339TIP3   OH231507   0.104   4.031  16.482 -0.1760  0.1217 -0.1878
 3339TIP3    H131508   0.036   4.066  16.539 -0.7539 -1.3767  0.0807
 3339TIP3    H231509   0.063   4.027  16.396  0.1488  0.8146 -0.3809
 3340TIP3   OH231510   4.008   3.841   5.956 -0.1697  0.4186  0.0277
 3340TIP3    H131511   4.033   3.920   6.004 -1.1124  1.2342 -0.7741
 3340TIP3    H231512   4.019   3.770   6.019 -0.6790  1.3627  1.2225
 3341TIP3   OH231513   3.931   3.182  12.356 -0.1706 -0.4074 -0.3571
 3341TIP3    H131514   3.979   3.115  12.404 -0.2282 -1.4521 -1.6849
 3341TIP3    H231515   3.994   3.214  12.291 -0.4496  0.1294 -0.3660
 3342TIP3   OH231516   6.195   0.822   0.334  0.3737  0.1126 -0.3701
 3342TIP3    H131517   6.188   0.800   0.427 -0.3693 -0.5276 -0.5697
 3342TIP3    H231518   6.174   0.741   0.288 -0.0367  0.6246 -1.1068
 3343TIP3   OH231519   0.333   3.055   2.483 -0.5657 -0.4994  0.3420
 3343TIP3    H131520   0.419   3.085   2.455  0.0683 -2.5106 -0.0333
 3343TIP3    H231521   0.310   3.112   2.557  1.5585 -0.5613  1.1134
 3344TIP3   OH231522   6.556   1.747  13.507  0.1851  0.5222  0.4547
 3344TIP3    H131523   6.521   1.739  13.419  0.4608 -1.0880  0.4612
 3344TIP3    H231524   6.491   1.706  13.564  2.5053 -3.9663  0.3093
 3345TIP3   OH231525   3.204   6.742   1.024  0.2780  0.1415  0.4378
 3345TIP3    H131526   3.254   6.688   0.963 -1.6335 -0.7633 -0.4259
 3345TIP3    H231527   3.125   6.766   0.976 -0.6335  0.6155  2.0869
 3346TIP3   OH231528   0.807   4.674   0.897 -0.1723 -0.7149  0.2800
 3346TIP3    H131529   0.715   4.685   0.923 -0.0080  0.9224  0.2527
 3346TIP3    H231530   0.855   4.735   0.954  1.0129 -2.1531  0.8778
 3347TIP3   OH231531   1.984   0.013   5.386  0.0276 -0.2738 -0.8008
 3347TIP3    H131532   1.995  -0.062   5.444  1.2685  0.0786 -0.5506
 3347TIP3    H231533   2.072   0.030   5.352 -0.5257  0.0597 -2.1262
 3348TIP3   OH231534   3.409   2.051   4.735  1.2185  0.1616  0.3303
 3348TIP3    H131535   3.394   2.137   4.696  0.1025 -1.2067 -2.5450
 3348TIP3    H231536   3.337   2.041   4.798  0.7816  0.9597 -0.0265
 3349TIP3   OH231537   6.654   6.078   3.470 -0.2110 -0.3999 -0.0480
 3349TIP3    H131538   6.658   6.001   3.526  2.2480 -0.7552 -0.5697
 3349TIP3    H231539   6.711   6.142   3.513 -1.1522  0.6327 -0.3086
 3350TIP3   OH231540   5.388   3.790  12.154 -0.2894  0.0427 -0.5221
 3350TIP3    H131541   5.346   3.861  12.105 -2.3684 -0.9194 -0.2379
 3350TIP3    H231542   5.319   3.754  12.209  1.6303  0.2548  2.2800
 3351TIP3   OH231543   0.418   6.328  12.264 -0.0032  0.0906 -0.3421
 3351TIP3    H131544   0.513   6.334  12.272  0.0743 -1.8867  0.8615
 3351TIP3    H231545   0.388   6.306  12.352 -1.2691 -2.0928 -1.2298
 3352TIP3   OH231546   6.784   0.974   4.114 -0.7369  0.4468  0.1223
 3352TIP3    H131547   6.703   0.980   4.063 -1.4475 -2.4799  0.7205
 3352TIP3    H231548   6.849   0.942   4.052 -0.3299  1.4857 -0.0196
 3353TIP3   OH231549   4.485   4.481  16.452 -0.3737 -0.1215 -0.5755
 3353TIP3    H131550   4.422   4.544  16.417 -1.6067 -1.3532 -0.6938
 3353TIP3    H231551   4.475   4.404  16.396  3.0967  0.4490 -2.2033
 3354TIP3   OH231552   1.169   0.724  10.864 -0.3469  0.1986 -0.7925
 3354TIP3    H131553   1.170   0.772  10.947 -0.6584 -1.0561 -0.0446
 3354TIP3    H231554   1.079   0.732  10.833 -0.9094 -1.4264  0.2809
 3355TIP3   OH231555   2.563   5.446  16.358  0.2851  0.2578 -0.3325
 3355TIP3    H131556   2.549   5.447  16.453 -0.3928 -0.3184 -0.4155
 3355TIP3    H231557   2.475   5.446  16.321  0.5201  3.0718 -1.0477
 3356TIP3   OH231558   5.670   6.492  12.626 -0.0092 -0.1102  0.6586
 3356TIP3    H131559   5.730   6.507  12.699  0.3871 -1.1003  0.5430
 3356TIP3    H231560   5.603   6.561  12.636  0.2488  0.0074  1.7171
 3357TIP3   OH231561   6.256   2.679   2.959 -0.2469  0.4084 -0.1692
 3357TIP3    H131562   6.235   2.745   3.025  1.2436  1.7121 -0.9470
 3357TIP3    H231563   6.326   2.627   2.999  0.9448  1.4521 -0.8024
 3358TIP3   OH231564   5.766   3.378  12.490 -0.2303 -0.4274 -0.9003
 3358TIP3    H131565   5.815   3.302  12.519  1.0840  0.8830  0.5137
 3358TIP3    H231566   5.737   3.356  12.402  2.6488 -1.4251 -1.7038
 3359TIP3   OH231567   4.641   2.967  11.994 -0.2563  0.0604 -0.4643
 3359TIP3    H131568   4.668   3.008  11.911  3.0552 -0.4121  0.2432
 3359TIP3    H231569   4.695   3.010  12.060  0.1558 -2.3725  0.8777
 3360TIP3   OH231570   4.975   4.632  15.695 -0.1628  0.0688 -0.3434
 3360TIP3    H131571   5.042   4.566  15.713  0.6455  1.2609  1.3455
 3360TIP3    H231572   4.928   4.641  15.778 -0.7631  1.0256 -0.7729
 3361TIP3   OH231573   0.973   3.150   5.797  0.3247 -0.5388  0.1729
 3361TIP3    H131574   0.932   3.185   5.718 -0.0705  0.4796  0.8129
 3361TIP3    H231575   1.067   3.159   5.781  0.2440 -0.1155 -0.0940
 3362TIP3   OH231576   4.633   4.925  14.292 -0.1142 -0.1529 -0.2011
 3362TIP3    H131577   4.645   4.955  14.382  0.6358  1.0323 -0.6744
 3362TIP3    H231578   4.701   4.859  14.279 -0.3799 -0.5048  0.1706
 3363TIP3   OH231579   6.081   5.861   1.254  0.5010  0.5452 -0.2916
 3363TIP3    H131580   6.054   5.922   1.186 -0.8755  0.0211 -0.2372
 3363TIP3    H231581   6.002   5.813   1.277  0.7179  1.3346  2.3609
 3364TIP3   OH231582   4.884   3.717   4.361  0.1555 -0.1880 -0.6386
 3364TIP3    H131583   4.795   3.692   4.386 -0.7520  2.6932 -0.5492
 3364TIP3    H231584   4.897   3.679   4.275 -1.6690  0.2997 -1.1715
 3365TIP3   OH231585   4.177   2.300  16.621 -0.2068 -0.3938  0.2878
 3365TIP3    H131586   4.166   2.315  16.527 -1.1638  0.6651  0.5486
 3365TIP3    H231587   4.175   2.387  16.660  1.9971 -0.6584  1.1524
 3366TIP3   OH231588   2.611   1.735   1.893 -0.0226 -0.1097 -0.2612
 3366TIP3    H131589   2.635   1.695   1.810 -2.2153 -0.3705 -0.8356
 3366TIP3    H231590   2.638   1.827   1.885  1.6689 -0.5973 -0.3956
 3367TIP3   OH231591   2.122   1.872   6.223 -0.0934 -0.2952  0.4881
 3367TIP3    H131592   2.064   1.861   6.298  0.9843  0.3128  1.4484
 3367TIP3    H231593   2.163   1.958   6.237  1.9888 -1.2398  0.5440
 3368TIP3   OH231594   3.098   5.085  13.110 -0.7261  0.6507  0.2990
 3368TIP3    H131595   3.124   4.994  13.123  0.6357  0.7943 -1.0348
 3368TIP3    H231596   3.152   5.134  13.172 -1.2275  0.5865  0.7919
 3369TIP3   OH231597   3.982   3.051   2.467  0.2296  0.1694 -0.0195
 3369TIP3    H131598   3.946   2.991   2.402 -0.8967  2.5182 -1.6862
 3369TIP3    H231599   3.925   3.040   2.544 -0.0903 -0.7111 -0.3754
 3370TIP3   OH231600   0.745   1.725  17.183  0.4706 -0.0305 -0.2064
 3370TIP3    H131601   0.654   1.756  17.189  0.6125  0.1566  3.3868
 3370TIP3    H231602   0.740   1.633  17.209  1.1946 -0.3635 -1.2152
 3371TIP3   OH231603   0.041   1.994   2.284  0.2010  0.3383 -0.0972
 3371TIP3    H131604   0.103   2.066   2.276 -0.8415  1.2976  0.2578
 3371TIP3    H231605  -0.021   2.022   2.351  0.8826 -1.7411  1.4999
 3372TIP3   OH231606   5.582   6.463  13.481 -0.5945  0.0518  0.1208
 3372TIP3    H131607   5.525   6.392  13.453 -2.3173  1.4967 -0.2732
 3372TIP3    H231608   5.617   6.500  13.400 -1.4731  0.9876  0.1359
 3373TIP3   OH231609   3.225   1.087  13.272  0.5727 -0.4785  0.5844
 3373TIP3    H131610   3.199   1.173  13.303  1.0379 -0.5086  1.0776
 3373TIP3    H231611   3.207   1.029  13.346 -1.1034 -1.0571 -0.2330
 3374TIP3   OH231612   3.398   4.830  16.730  0.1919 -0.0527  0.2775
 3374TIP3    H131613   3.452   4.787  16.663 -0.6580  0.0574 -0.5019
 3374TIP3    H231614   3.440   4.915  16.743 -1.0199  1.0155 -2.0425
 3375TIP3   OH231615   3.664   4.037  12.608  0.0048  0.1932  0.2598
 3375TIP3    H131616   3.675   3.990  12.690  1.3858  1.8892  1.1228
 3375TIP3    H231617   3.726   3.996  12.548  0.8691  0.5901  0.8650
 3376TIP3   OH231618   3.151   3.293   1.285  0.3300 -0.1430 -0.6655
 3376TIP3    H131619   3.217   3.225   1.298 -0.0384 -0.3048  0.4077
 3376TIP3    H231620   3.101   3.264   1.208  0.5726 -0.7577 -0.5938
 3377TIP3   OH231621   6.523   6.004  15.881  0.1240 -0.6322  0.2862
 3377TIP3    H131622   6.465   6.073  15.913  0.7376  0.3985 -0.7550
 3377TIP3    H231623   6.601   6.010  15.935  0.0017 -0.8209  0.4883
 3378TIP3   OH231624   3.215   5.617   4.095  0.8374  0.4298 -0.4046
 3378TIP3    H131625   3.225   5.579   4.007 -2.8280 -1.7177 -0.1046
 3378TIP3    H231626   3.269   5.563   4.151  0.8830 -0.0926 -0.9437
 3379TIP3   OH231627   2.425   3.717  12.647 -0.2138 -0.3904 -0.6192
 3379TIP3    H131628   2.447   3.793  12.702 -1.3903 -1.7944  1.9641
 3379TIP3    H231629   2.335   3.734  12.619 -0.1215 -0.3751 -0.9124
 3380TIP3   OH231630   0.860   6.029   2.153  0.2024  0.0665 -0.5276
 3380TIP3    H131631   0.871   5.939   2.123 -2.4976 -0.7646  0.6775
 3380TIP3    H231632   0.840   6.021   2.246 -1.0067  1.8257 -0.5917
 3381TIP3   OH231633   5.286   0.739  12.236 -0.5621  0.1456 -0.0887
 3381TIP3    H131634   5.270   0.777  12.322 -0.9054  0.9120 -0.4785
 3381TIP3    H231635   5.361   0.680  12.249 -1.1095 -0.3658  0.8922
 3382TIP3   OH231636   3.426   1.188   4.454 -0.3231 -0.7352  0.3513
 3382TIP3    H131637   3.336   1.195   4.486 -0.0185  0.0677  1.0791
 3382TIP3    H231638   3.419   1.198   4.359 -0.8844  0.5686  0.5144
 3383TIP3   OH231639   0.386   5.975  14.619 -0.3129  0.2761 -0.1559
 3383TIP3    H131640   0.415   6.063  14.595 -0.6713 -0.0975 -2.1460
 3383TIP3    H231641   0.453   5.917  14.584 -0.9805 -0.3156 -0.4893
 3384TIP3   OH231642   2.420   4.816   1.334  0.3591  0.1566  0.1544
 3384TIP3    H131643   2.350   4.760   1.301  0.2922  0.3233  0.0098
 3384TIP3    H231644   2.500   4.782   1.294  0.4750 -0.5324  0.9403
 3385TIP3   OH231645   2.083   3.183  15.835 -0.2461 -0.0055  0.7853
 3385TIP3    H131646   1.997   3.215  15.861  0.0631  1.7512 -0.1730
 3385TIP3    H231647   2.080   3.180  15.739  0.9793  0.8725  0.6844
 3386TIP3   OH231648   3.929   6.671   5.861  0.0980 -0.6291  0.2412
 3386TIP3    H131649   4.009   6.690   5.812 -0.1702  1.3920  0.4860
 3386TIP3    H231650   3.904   6.583   5.834  1.9342 -0.9672 -0.4811
 3387TIP3   OH231651   0.121   4.624   0.187 -0.0407 -0.0941 -0.2568
 3387TIP3    H131652   0.029   4.650   0.194 -0.1113 -0.4148  0.0243
 3387TIP3    H231653   0.167   4.705   0.166 -0.3257  0.1601  0.0846
 3388TIP3   OH231654   1.058   2.753  15.203 -0.0252  0.1145  0.1359
 3388TIP3    H131655   1.015   2.812  15.141  0.5364  0.8138  0.3993
 3388TIP3    H231656   1.018   2.774  15.288  0.1500  0.0838  0.2258
 3389TIP3   OH231657   6.059   3.282  14.802 -0.3076  0.0837 -0.3359
 3389TIP3    H131658   6.018   3.254  14.720  0.1034 -1.3362 -0.0880
 3389TIP3    H231659   5.999   3.348  14.837  0.1236  1.6543 -2.3448
 3390TIP3   OH231660   1.243   5.736  11.100  0.2920 -0.4330 -0.4724
 3390TIP3    H131661   1.290   5.668  11.051  0.2841  0.1560 -1.3189
 3390TIP3    H231662   1.189   5.687  11.163  0.0121 -1.2400 -1.3176
 3391TIP3   OH231663   6.065   3.723  15.656  0.0115  0.1577 -0.0413
 3391TIP3    H131664   6.040   3.753  15.569 -0.5002  1.7247  0.6117
 3391TIP3    H231665   6.149   3.767  15.673  0.2507 -0.3645  0.1420
 3392TIP3   OH231666   3.936   4.438  14.670 -0.1781 -0.5668 -0.2479
 3392TIP3    H131667   3.876   4.374  14.708  0.1787 -0.5254  0.3896
 3392TIP3    H231668   3.898   4.458  14.584 -1.8290  0.5340  0.7013
 3393TIP3   OH231669   3.513   0.700  13.101  0.0590  0.1293  0.1628
 3393TIP3    H131670   3.586   0.739  13.052 -0.3783  1.6901  0.7054
 3393TIP3    H231671   3.500   0.614  13.060  0.7036  0.7623 -1.4354
 3394TIP3   OH231672   1.601   1.791   5.192  0.3003  0.1238  0.1887
 3394TIP3    H131673   1.585   1.844   5.114 -0.5353  1.3669  1.1693
 3394TIP3    H231674   1.514   1.762   5.220  0.2808  1.7296  2.0102
 3395TIP3   OH231675   6.619   3.934   0.864  0.0797 -0.5184 -0.5875
 3395TIP3    H131676   6.653   4.022   0.846  1.3029 -1.0254 -0.8821
 3395TIP3    H231677   6.563   3.914   0.789 -0.8338  0.2978 -0.1435
 3396TIP3   OH231678   4.162   2.887   0.506  0.1396  0.4487 -0.0097
 3396TIP3    H131679   4.082   2.937   0.520  0.3305  0.7819 -0.1108
 3396TIP3    H231680   4.221   2.915   0.576 -0.8682 -2.0081  1.9729
 3397TIP3   OH231681   1.376   4.693   0.353 -0.4024 -0.3541  0.3004
 3397TIP3    H131682   1.458   4.743   0.351 -0.3325 -0.4846 -2.2184
 3397TIP3    H231683   1.318   4.746   0.408  0.8811  0.4993  0.8850
 3398TIP3   OH231684   3.403   4.207   2.069 -0.4741 -0.3816  0.0990
 3398TIP3    H131685   3.405   4.220   1.974 -0.4140 -0.0181  0.1481
 3398TIP3    H231686   3.415   4.295   2.105 -0.4925 -0.5207  0.4435
 3399TIP3   OH231687   1.837   4.577   1.228 -0.1948 -0.5693  0.1237
 3399TIP3    H131688   1.776   4.506   1.208 -1.0269  0.0258  0.4835
 3399TIP3    H231689   1.807   4.612   1.312  0.7773 -0.4043  0.4110
 3400TIP3   OH231690   5.936   4.760   1.858  0.7034  0.3867  0.4883
 3400TIP3    H131691   5.999   4.701   1.818  2.8180  2.1885  0.9642
 3400TIP3    H231692   5.981   4.796   1.934 -0.8692  1.8327  0.8225
 3401TIP3   OH231693   4.743   2.853   0.058  0.7510 -0.1851 -0.3702
 3401TIP3    H131694   4.828   2.876   0.021  0.8347  1.0223  0.5025
 3401TIP3    H231695   4.755   2.867   0.152 -0.6791  0.9461 -0.3249
 3402TIP3   OH231696   1.857   4.807  12.797  0.1705 -0.2477  0.0253
 3402TIP3    H131697   1.827   4.875  12.736  0.9460 -1.0568 -1.3018
 3402TIP3    H231698   1.777   4.776  12.839 -0.1081  2.1859  1.4706
 3403TIP3   OH231699   5.778   1.966   3.785  0.5289  0.2355  0.4451
 3403TIP3    H131700   5.704   2.014   3.822  0.9277 -0.0297  1.6287
 3403TIP3    H231701   5.855   2.006   3.826  0.9873 -0.0546 -0.1218
 3404TIP3   OH231702   0.809   0.014  12.410  0.6049 -0.1234  0.5357
 3404TIP3    H131703   0.851  -0.020  12.331  0.0330  1.8789 -0.6905
 3404TIP3    H231704   0.877   0.008  12.478  1.8340  0.1226 -0.6359
 3405TIP3   OH231705   2.056   2.153   1.227  0.8003  0.1101 -0.8237
 3405TIP3    H131706   1.967   2.137   1.258  1.3044 -0.4603  0.3999
 3405TIP3    H231707   2.053   2.135   1.133 -0.4170  0.3189 -0.8338
 3406TIP3   OH231708   2.403   0.957   5.788 -0.6060 -0.3126 -0.0044
 3406TIP3    H131709   2.368   0.868   5.798  0.1317 -0.4572  1.6354
 3406TIP3    H231710   2.368   1.005   5.864  0.3590  0.3256  0.0521
 3407TIP3   OH231711   3.889   5.481  16.000  0.1504 -0.9057  0.1366
 3407TIP3    H131712   3.875   5.419  16.072 -0.5726 -0.7850  0.1090
 3407TIP3    H231713   3.855   5.564  16.034 -2.3207 -1.3100 -1.1103
 3408TIP3   OH231714   2.328   1.037   6.688  0.0428  0.1128  0.1715
 3408TIP3    H131715   2.415   1.048   6.725 -0.5745 -0.3436  1.8115
 3408TIP3    H231716   2.296   1.126   6.675  1.1089  0.3040 -1.3891
 3409TIP3   OH231717   0.272   4.266  13.728  0.1304  0.2530  0.6291
 3409TIP3    H131718   0.361   4.233  13.745 -0.5906 -2.0655  0.3348
 3409TIP3    H231719   0.278   4.308  13.643  1.0539  0.5759  0.8373
 3410TIP3   OH231720   6.679   3.570  15.710 -0.2248 -0.1605  0.4061
 3410TIP3    H131721   6.661   3.478  15.729 -2.1924  0.2290  0.6685
 3410TIP3    H231722   6.609   3.597  15.650  1.5279  0.6417 -1.4017
 3411TIP3   OH231723   3.202   2.681  12.479 -0.2291  0.4566  0.0120
 3411TIP3    H131724   3.270   2.745  12.498  0.4558 -0.4005  0.5614
 3411TIP3    H231725   3.205   2.671  12.384  1.4399 -0.6073  0.1203
 3412TIP3   OH231726   3.818   4.777  15.158 -0.1456  0.5343  0.8172
 3412TIP3    H131727   3.829   4.843  15.226 -0.9598  0.3306  1.1692
 3412TIP3    H231728   3.769   4.706  15.201  0.0385  0.0459  0.2403
 3413TIP3   OH231729   1.391   0.136  16.825 -0.2441  0.5446  0.1970
 3413TIP3    H131730   1.352   0.080  16.892  2.1803 -1.5530  0.0056
 3413TIP3    H231731   1.321   0.150  16.762 -1.2496 -1.5655  0.7403
 3414TIP3   OH231732   5.591   5.557   6.689 -0.3122  0.1072 -0.3288
 3414TIP3    H131733   5.578   5.531   6.780  1.5409 -1.4978 -0.4617
 3414TIP3    H231734   5.684   5.544   6.673 -0.3435  1.6702 -2.0772
 3415TIP3   OH231735   1.321   5.018   4.911 -0.3371 -0.0964  0.0131
 3415TIP3    H131736   1.367   5.101   4.899 -1.0601  0.5565  1.5266
 3415TIP3    H231737   1.324   5.002   5.005 -0.3188 -1.7499 -0.2254
 3416TIP3   OH231738   0.551   6.638   5.649 -0.2796 -0.0657 -0.6533
 3416TIP3    H131739   0.636   6.618   5.688 -1.7128 -2.2152  1.7305
 3416TIP3    H231740   0.524   6.556   5.607 -1.5272  0.3135 -0.6240
 3417TIP3   OH231741   2.522   5.929  15.141 -0.1029 -0.4076  0.6987
 3417TIP3    H131742   2.509   5.835  15.134  0.0830 -0.3454 -0.6891
 3417TIP3    H231743   2.586   5.940  15.212 -0.3502 -1.2895  1.0688
 3418TIP3   OH231744   4.902   2.748   3.514  0.7046 -0.0393 -0.4854
 3418TIP3    H131745   4.958   2.740   3.436  0.8774  2.5777 -0.7499
 3418TIP3    H231746   4.836   2.813   3.489 -1.7880 -2.1218  0.2469
 3419TIP3   OH231747   5.529   3.010   5.798  0.2738 -0.1270  0.3709
 3419TIP3    H131748   5.587   3.085   5.807 -0.3169  0.4911 -0.7898
 3419TIP3    H231749   5.455   3.042   5.746 -0.2160 -1.3834  0.2453
 3420TIP3   OH231750   5.171   1.567  12.555  0.3244 -0.2682  0.0190
 3420TIP3    H131751   5.179   1.652  12.598 -0.4998 -0.1249 -0.0889
 3420TIP3    H231752   5.152   1.506  12.627 -1.5475  0.0484 -0.1441
 3421TIP3   OH231753   1.647   4.357  12.870 -0.0043  0.1359 -0.4514
 3421TIP3    H131754   1.598   4.385  12.793 -0.9094 -0.1633 -0.0001
 3421TIP3    H231755   1.583   4.309  12.922  0.3260  1.1472  0.9425
 3422TIP3   OH231756   4.886   0.777   1.894 -0.0652 -0.0215 -0.1925
 3422TIP3    H131757   4.922   0.846   1.949 -1.5048 -1.0922  2.2957
 3422TIP3    H231758   4.953   0.709   1.893  0.9246  0.9132 -1.7950
 3423TIP3   OH231759   5.397   5.755  12.510 -0.2680  0.3910 -0.3694
 3423TIP3    H131760   5.491   5.760  12.492 -0.7157  1.3338 -2.8779
 3423TIP3    H231761   5.356   5.769  12.424 -2.7272  1.9925  0.9695
 3424TIP3   OH231762   5.178   0.381  14.589  0.2427 -0.1362 -0.1583
 3424TIP3    H131763   5.230   0.413  14.663 -0.5932  1.1835 -0.1095
 3424TIP3    H231764   5.230   0.309  14.553  2.9305  2.1255 -1.1506
 3425TIP3   OH231765   5.615   3.974   2.276 -0.3066 -0.2346  0.4441
 3425TIP3    H131766   5.704   3.977   2.312 -0.1421 -1.0627  0.1357
 3425TIP3    H231767   5.567   4.040   2.325  0.4757  0.2070  0.6327
 3426TIP3   OH231768   0.850   1.305  13.120 -0.0451 -0.1512 -0.3124
 3426TIP3    H131769   0.831   1.238  13.054  2.3973 -0.1686 -1.1054
 3426TIP3    H231770   0.810   1.273  13.200 -1.4377 -1.0923 -1.3495
 3427TIP3   OH231771   1.086   0.660   0.517  0.1271 -0.6347 -0.2376
 3427TIP3    H131772   1.043   0.623   0.595 -0.9247 -0.4620 -0.7074
 3427TIP3    H231773   1.096   0.586   0.457 -2.2305 -0.1960 -1.2886
 3428TIP3   OH231774   3.732   4.491   3.953 -0.0522  0.0239 -0.7792
 3428TIP3    H131775   3.646   4.514   3.920 -1.1708 -0.0232  1.8319
 3428TIP3    H231776   3.716   4.418   4.013  1.6379  0.5858  0.4605
 3429TIP3   OH231777   4.535   4.361  14.277 -0.1790 -0.3394 -0.3943
 3429TIP3    H131778   4.496   4.443  14.304  1.3550 -0.1545  1.4454
 3429TIP3    H231779   4.538   4.366  14.181  1.5442  2.6069 -0.2986
 3430TIP3   OH231780   1.523   1.695   2.941  0.0756  0.5832  0.4670
 3430TIP3    H131781   1.432   1.685   2.913  0.4365 -0.3387 -0.4563
 3430TIP3    H231782   1.517   1.734   3.028 -1.1722  1.2140  0.1245
 3431TIP3   OH231783   4.682   4.277  15.766 -0.1514  0.0617  0.0338
 3431TIP3    H131784   4.604   4.312  15.722  0.4745  1.2520 -0.1699
 3431TIP3    H231785   4.658   4.187  15.790 -1.6539  0.4658  0.1422
 3432TIP3   OH231786   6.456   6.380  10.489  0.0721 -0.3883  0.2611
 3432TIP3    H131787   6.525   6.379  10.555  0.0637  1.3544  0.3578
 3432TIP3    H231788   6.380   6.415  10.535 -0.0058  0.5922 -0.5664
 3433TIP3   OH231789   3.297   4.548  16.964 -0.3425 -0.0293 -0.3510
 3433TIP3    H131790   3.237   4.623  16.972  0.7703  0.9049 -0.3811
 3433TIP3    H231791   3.247   4.474  16.998 -1.1763  0.8902  0.5453
 3434TIP3   OH231792   6.422   0.594   5.079  0.2726 -0.7486 -0.0797
 3434TIP3    H131793   6.488   0.643   5.030  0.5526 -1.8600 -0.8405
 3434TIP3    H231794   6.423   0.507   5.040  1.1183 -1.9677  2.4569
 3435TIP3   OH231795   4.566   6.379  12.515 -0.4043 -0.3166  0.1627
 3435TIP3    H131796   4.644   6.342  12.558  0.1365 -0.2476 -0.7252
 3435TIP3    H231797   4.531   6.307  12.463 -0.3847 -0.0873 -0.1739
 3436TIP3   OH231798   1.492   4.558  15.139 -0.1198  0.0087  0.5776
 3436TIP3    H131799   1.424   4.510  15.187  0.1280 -0.5652  0.3617
 3436TIP3    H231800   1.552   4.590  15.207  0.5634 -1.3214  0.6303
 3437TIP3   OH231801   2.700   1.907  11.162 -0.1265  0.2716  0.8510
 3437TIP3    H131802   2.610   1.938  11.154  0.0502  0.5876 -0.0864
 3437TIP3    H231803   2.752   1.971  11.113  0.8450  1.0478  2.8238
 3438TIP3   OH231804   1.279   4.295  11.640 -0.2556 -0.2783 -0.0901
 3438TIP3    H131805   1.269   4.263  11.730 -1.1728  1.9304  0.6728
 3438TIP3    H231806   1.240   4.383  11.642 -1.2284 -0.5546 -2.8935
 3439TIP3   OH231807   5.795   0.047   1.889 -0.3121 -0.1845  0.3616
 3439TIP3    H131808   5.757   0.130   1.918  1.8117  0.5780  1.1077
 3439TIP3    H231809   5.777  -0.014   1.961  1.0661  0.5510  1.3711
 3440TIP3   OH231810   0.995   6.419   5.694 -0.3136 -1.0249 -0.5141
 3440TIP3    H131811   1.043   6.375   5.764 -0.4269 -1.0103 -0.4281
 3440TIP3    H231812   1.054   6.415   5.619  0.1605 -0.2965 -0.1908
 3441TIP3   OH231813   5.462   5.500   2.188 -0.5163  0.2315 -0.2092
 3441TIP3    H131814   5.405   5.574   2.168 -0.9226 -0.0956 -0.2616
 3441TIP3    H231815   5.450   5.441   2.114  1.5977  1.1628 -1.3967
 3442TIP3   OH231816   5.022   2.971  16.211 -0.8568 -0.0069  0.7032
 3442TIP3    H131817   5.088   3.006  16.270 -1.7970  1.9278  0.6979
 3442TIP3    H231818   5.011   2.880  16.238  0.2047  0.2599  2.1437
 3443TIP3   OH231819   5.525   4.061   0.423  0.2429 -0.5954  0.4051
 3443TIP3    H131820   5.455   4.036   0.484 -0.4159  0.1814 -0.0165
 3443TIP3    H231821   5.516   3.998   0.351  0.6250 -1.1221  0.8067
 3444TIP3   OH231822   4.910   3.507  11.781  0.0225  0.3751  0.0299
 3444TIP3    H131823   4.900   3.602  11.771 -0.1056  0.4129  0.5198
 3444TIP3    H231824   4.964   3.496  11.859  0.3914  0.0539 -0.2675
 3445TIP3   OH231825   2.276   2.606  12.638  0.3118 -0.5225  0.0781
 3445TIP3    H131826   2.298   2.633  12.549 -0.6329 -2.7003 -0.9040
 3445TIP3    H231827   2.341   2.539  12.659 -0.5301 -1.2844  0.3070
 3446TIP3   OH231828   3.155   0.843   4.249 -0.2230 -0.0669 -0.5037
 3446TIP3    H131829   3.243   0.865   4.218 -0.5021  0.5627 -0.8559
 3446TIP3    H231830   3.152   0.747   4.244  0.1990 -0.0555 -1.1695
 3447TIP3   OH231831   0.534   5.192  15.016  0.0776  0.1230  0.4539
 3447TIP3    H131832   0.509   5.207  15.107  2.1638  0.5961  1.0184
 3447TIP3    H231833   0.550   5.279  14.981  0.0763 -0.1009 -0.1083
 3448TIP3   OH231834   4.740   5.582  13.800  0.3714 -0.0373 -0.3741
 3448TIP3    H131835   4.797   5.556  13.873  1.8607  2.9709 -0.3193
 3448TIP3    H231836   4.791   5.562  13.722 -0.8044 -2.2896 -0.6504
 3449TIP3   OH231837   0.649   5.835  13.430 -0.1399  0.3471 -0.6495
 3449TIP3    H131838   0.697   5.897  13.375  1.7846 -0.2464  0.2734
 3449TIP3    H231839   0.560   5.836  13.395 -0.7824  5.0179  0.4913
 3450TIP3   OH231840   3.235   1.835  11.586 -0.1914  0.1814  0.1421
 3450TIP3    H131841   3.235   1.914  11.639  0.2556  1.1294 -1.2289
 3450TIP3    H231842   3.156   1.842  11.532 -0.7065 -0.8329  0.7097
 3451TIP3   OH231843   6.625   1.115  14.130  0.4378  0.6733  0.4178
 3451TIP3    H131844   6.560   1.147  14.192 -0.2842 -0.1080  0.0824
 3451TIP3    H231845   6.574   1.067  14.064  1.3936 -0.3939  0.4236
 3452TIP3   OH231846   6.133   2.096   5.839 -0.2701 -0.5389  0.2472
 3452TIP3    H131847   6.068   2.163   5.815  1.2456  1.1667  0.7136
 3452TIP3    H231848   6.155   2.115   5.930 -0.4042 -2.2231  0.6614
 3453TIP3   OH231849   0.981   5.268  12.482 -0.8171 -0.0638 -0.2045
 3453TIP3    H131850   0.966   5.201  12.549  0.1799  0.2920  0.3931
 3453TIP3    H231851   1.021   5.221  12.409  1.2674  0.0743  0.7768
 3454TIP3   OH231852   5.801   3.051  17.150  0.0653  0.6200  0.3299
 3454TIP3    H131853   5.737   3.091  17.208  1.1266  0.4744  1.6522
 3454TIP3    H231854   5.885   3.062  17.195  0.6855 -1.0689 -0.3233
 3455TIP3   OH231855   6.255   4.362   4.361  0.3143 -0.0561  0.2797
 3455TIP3    H131856   6.311   4.292   4.396 -0.4987 -0.2738  1.2119
 3455TIP3    H231857   6.193   4.380   4.432  0.4827  1.6003  0.0408
 3456TIP3   OH231858   2.832   5.100   5.388  0.2216  0.4019 -0.5340
 3456TIP3    H131859   2.805   5.022   5.339 -1.9268  0.3708  0.6282
 3456TIP3    H231860   2.759   5.161   5.379  0.6482  1.1773  0.9783
 3457TIP3   OH231861   2.319   1.667  11.626  0.4439 -1.1311 -0.2061
 3457TIP3    H131862   2.410   1.667  11.594  1.0120 -0.2426  1.3071
 3457TIP3    H231863   2.306   1.581  11.664  1.1700 -0.7667  0.9018
 3458TIP3   OH231864   1.835   4.047   5.738 -0.1539 -0.1779  0.1497
 3458TIP3    H131865   1.913   4.036   5.793  0.0011 -1.5282 -0.2997
 3458TIP3    H231866   1.864   4.021   5.650 -1.1298 -0.7923 -0.0011
 3459TIP3   OH231867   3.049   5.492  11.777 -0.6028 -0.1023 -0.2962
 3459TIP3    H131868   2.965   5.537  11.769  0.6337  2.4729  0.0416
 3459TIP3    H231869   3.065   5.486  11.871  0.8437  2.1821 -0.3090
 3460TIP3   OH231870   0.725   2.095   4.756  0.0083  0.6099 -0.0843
 3460TIP3    H131871   0.707   2.007   4.722  0.6146  0.2459  0.4957
 3460TIP3    H231872   0.751   2.145   4.679 -1.7063  0.6852 -0.6566
 3461TIP3   OH231873   3.654   1.349   2.761  0.4221 -0.0150  0.3634
 3461TIP3    H131874   3.559   1.350   2.759  0.4316  0.9852 -0.6384
 3461TIP3    H231875   3.676   1.330   2.853 -0.7288 -0.1710  0.6200
 3462TIP3   OH231876   1.443   2.257   5.977 -0.2688  0.4319 -0.2116
 3462TIP3    H131877   1.482   2.179   6.016 -2.3412 -0.7897 -0.4290
 3462TIP3    H231878   1.476   2.257   5.887 -0.1391 -0.1105 -0.1675
 3463TIP3   OH231879   4.490   1.219   0.209 -0.1746  0.3695 -0.5912
 3463TIP3    H131880   4.399   1.206   0.182 -0.8609  0.5297  1.4443
 3463TIP3    H231881   4.513   1.306   0.176 -1.6883  1.4657  1.0293
 3464TIP3   OH231882   5.118   1.027  14.594  0.1937 -0.2900 -0.4076
 3464TIP3    H131883   5.111   1.049  14.687  1.5890 -2.4111  0.2825
 3464TIP3    H231884   5.027   1.022  14.564 -0.2556  1.5665  0.5046
 3465TIP3   OH231885   5.670   4.619   0.466  0.2458 -0.2994 -0.3175
 3465TIP3    H131886   5.698   4.563   0.539 -1.3557 -0.7318  0.0098
 3465TIP3    H231887   5.580   4.592   0.448 -0.7054  2.3402  0.0180
 3466TIP3   OH231888   6.300   3.239  15.692  0.4890  0.0133 -0.4766
 3466TIP3    H131889   6.370   3.280  15.641  0.9088 -0.0510  0.0327
 3466TIP3    H231890   6.346   3.178  15.750  0.0292  0.1138  0.0032
 3467TIP3   OH231891   3.975   5.817  11.168  0.4595 -0.8423 -0.4989
 3467TIP3    H131892   3.985   5.889  11.105  1.9400  0.3411  0.9668
 3467TIP3    H231893   4.048   5.830  11.230 -2.2310 -0.3938  2.8812
 3468TIP3   OH231894   0.838   1.547   2.307 -0.0878  0.4966  0.2084
 3468TIP3    H131895   0.797   1.603   2.240 -0.6385 -1.2885 -1.0290
 3468TIP3    H231896   0.765   1.521   2.363  0.1874  1.0691  0.8500
 3469TIP3   OH231897   2.329   2.123  14.826  0.2662  0.1960 -0.2570
 3469TIP3    H131898   2.413   2.162  14.799 -0.3978  0.4189 -2.1445
 3469TIP3    H231899   2.344   2.029  14.819  0.4288  0.2287 -0.3734
 3470TIP3   OH231900   3.631   0.018  15.261  0.2806 -0.8988  0.2353
 3470TIP3    H131901   3.725   0.025  15.280  0.4608 -1.0147 -0.5712
 3470TIP3    H231902   3.591   0.087  15.314  0.9362 -0.1773 -0.1728
 3471TIP3   OH231903   4.374   2.018  16.090 -0.1316 -0.3021 -0.0994
 3471TIP3    H131904   4.381   1.951  16.158  0.4760  1.2616  1.4627
 3471TIP3    H231905   4.290   2.060  16.106 -0.0729 -0.0498 -0.4311
 3472TIP3   OH231906   0.099   2.067   0.115  0.2727 -0.1356 -0.0186
 3472TIP3    H131907   0.136   1.988   0.154  3.3531  0.1903 -1.9746
 3472TIP3    H231908   0.075   2.040   0.026 -0.8772  0.6118  0.0473
 3473TIP3   OH231909   5.154   1.285   2.736  0.0301 -0.0798 -0.5368
 3473TIP3    H131910   5.198   1.263   2.654 -1.5094 -0.9835 -1.1654
 3473TIP3    H231911   5.065   1.309   2.710 -0.2690  0.3456  0.8046
 3474TIP3   OH231912   0.129   0.342   2.471 -0.2555  0.0991 -0.0929
 3474TIP3    H131913   0.185   0.331   2.394  0.6851 -0.7013  0.6979
 3474TIP3    H231914   0.180   0.397   2.530 -0.4243 -0.3720  0.5009
 3475TIP3   OH231915   1.900   6.369   5.289  0.9863  0.0338 -0.5409
 3475TIP3    H131916   1.941   6.440   5.338  3.1751 -0.6966 -1.1967
 3475TIP3    H231917   1.917   6.390   5.198 -1.1839  0.2715 -0.9537
 3476TIP3   OH231918   3.452   0.784   2.996 -0.9417  0.1169  0.1992
 3476TIP3    H131919   3.381   0.754   3.052 -1.7551 -0.1798 -0.9523
 3476TIP3    H231920   3.463   0.714   2.932  0.6216  0.0159  0.5372
 3477TIP3   OH231921   5.079   1.046   5.644 -0.5003  0.0999 -0.2688
 3477TIP3    H131922   5.013   1.072   5.579  0.3775  1.1967 -0.7592
 3477TIP3    H231923   5.134   0.982   5.598 -1.1242 -0.7183  0.0988
 3478TIP3   OH231924   6.160   2.062  12.926 -0.0512 -0.2963 -0.2333
 3478TIP3    H131925   6.102   2.041  12.853 -1.2447 -0.1694  0.6419
 3478TIP3    H231926   6.155   1.985  12.984 -1.4066  0.7243  1.0932
 3479TIP3   OH231927   1.678   2.068  14.916 -0.2815  0.2682  0.3546
 3479TIP3    H131928   1.619   2.076  14.841  0.1461 -0.5215 -0.0856
 3479TIP3    H231929   1.713   1.979  14.909  2.4606  1.3046 -0.5447
 3480TIP3   OH231930   0.588   3.516   1.993  0.1583 -0.0079 -0.8829
 3480TIP3    H131931   0.671   3.564   1.991  0.1587  0.1607  1.2256
 3480TIP3    H231932   0.613   3.424   1.989  0.4468  0.0443 -0.2663
 3481TIP3   OH231933   0.299   5.569   0.678  0.4361 -0.0536 -0.3668
 3481TIP3    H131934   0.307   5.658   0.711 -0.7540  0.3563 -1.1355
 3481TIP3    H231935   0.207   5.546   0.693  0.3381 -0.5519 -1.6525
 3482TIP3   OH231936   3.405   4.653  14.440 -0.3253  0.0001 -0.7330
 3482TIP3    H131937   3.409   4.747  14.459  0.5095 -0.5337  2.2231
 3482TIP3    H231938   3.334   4.621  14.495 -0.8356 -1.1169 -1.9749
 3483TIP3   OH231939   4.727   3.567  12.653  0.4846  0.6348 -0.2665
 3483TIP3    H131940   4.822   3.578  12.659  0.5907 -0.1642 -0.3786
 3483TIP3    H231941   4.692   3.626  12.720  1.1011  0.3088  0.3560
 3484TIP3   OH231942   6.618   5.708  16.859 -0.1585  0.2395 -0.4844
 3484TIP3    H131943   6.694   5.758  16.831 -0.8307  1.5303 -0.0656
 3484TIP3    H231944   6.587   5.753  16.938 -0.8897 -0.7341 -0.1911
 3485TIP3   OH231945   6.152   5.804  11.518 -0.6769 -0.0740  0.3453
 3485TIP3    H131946   6.195   5.731  11.563  0.5694 -0.1075 -0.8246
 3485TIP3    H231947   6.192   5.805  11.431  0.6963  3.1399  0.8952
 3486TIP3   OH231948   3.958   0.118  13.902  0.2567 -0.0401 -0.4814
 3486TIP3    H131949   4.036   0.068  13.927  0.7258 -0.2248 -2.1796
 3486TIP3    H231950   3.886   0.054  13.907  0.5241 -0.3643 -0.7116
 3487TIP3   OH231951   0.029   4.391   5.021 -0.1210  0.4254 -0.2684
 3487TIP3    H131952  -0.012   4.344   5.094  1.6751 -0.2233  0.3597
 3487TIP3    H231953   0.022   4.484   5.045 -1.1556  0.3291 -0.1590
 3488TIP3   OH231954   4.141   5.400  14.404  0.2442  0.0657 -0.6031
 3488TIP3    H131955   4.224   5.353  14.393  0.0433 -0.6680  0.7751
 3488TIP3    H231956   4.160   5.466  14.470 -0.8288 -1.7250  1.6360
 3489TIP3   OH231957   0.870   3.084   6.473  0.1472 -0.3520  0.5127
 3489TIP3    H131958   0.893   3.025   6.401 -1.5765 -2.1735  1.3551
 3489TIP3    H231959   0.926   3.057   6.545 -0.7088 -1.0824  0.9274
 3490TIP3   OH231960   4.686   0.021   4.411  0.3961  0.0075 -0.2675
 3490TIP3    H131961   4.690   0.082   4.484  0.3979  1.2415 -1.2621
 3490TIP3    H231962   4.720  -0.061   4.446  0.5047  0.6009  1.0721
 3491TIP3   OH231963   2.877   2.072  11.661  0.3592  0.0253 -0.0197
 3491TIP3    H131964   2.852   2.019  11.586  0.3026  0.3407 -0.2263
 3491TIP3    H231965   2.820   2.043  11.732  1.6687 -1.5971  0.4333
 3492TIP3   OH231966   4.447   0.713  17.031 -0.9147 -0.1043  0.5471
 3492TIP3    H131967   4.541   0.704  17.017 -1.1628 -0.3299 -1.1171
 3492TIP3    H231968   4.412   0.743  16.947 -2.3445 -0.0637  1.1211
 3493TIP3   OH231969   5.827   3.700   2.987  0.5268 -0.2602  0.0076
 3493TIP3    H131970   5.838   3.790   2.956  0.3198  0.1149  0.9814
 3493TIP3    H231971   5.892   3.650   2.937 -0.7521  0.0294 -2.0643
 3494TIP3   OH231972   1.717   5.868  10.959 -0.3822  0.6527 -0.7822
 3494TIP3    H131973   1.711   5.773  10.962  0.1852  0.6322 -0.0255
 3494TIP3    H231974   1.774   5.887  10.884  2.1621  0.2249  0.8924
 3495TIP3   OH231975   1.065   0.194   4.704  0.6608 -0.3291  0.0823
 3495TIP3    H131976   1.009   0.236   4.638  1.8181  0.5165 -0.3979
 3495TIP3    H231977   1.029   0.105   4.712  0.1572 -0.2846 -1.2995
 3496TIP3   OH231978   0.059   6.182   5.901 -0.4023  0.7827  0.2808
 3496TIP3    H131979   0.116   6.124   5.852 -0.7861  0.3253  0.3713
 3496TIP3    H231980  -0.026   6.138   5.902 -0.3816  0.7418  1.4142
 3497TIP3   OH231981   2.397   1.443  15.139  0.0747  0.1622  1.0406
 3497TIP3    H131982   2.343   1.494  15.200 -4.6656 -3.4603  0.4822
 3497TIP3    H231983   2.410   1.359  15.185  0.3167 -1.0342 -1.1029
 3498TIP3   OH231984   2.831   5.979   4.418  0.1875  0.1052  0.7345
 3498TIP3    H131985   2.805   6.052   4.475  0.6529  0.5700  0.3576
 3498TIP3    H231986   2.922   5.960   4.444  0.2386  0.0002  0.4786
 3499TIP3   OH231987   0.977   1.709   2.018 -0.5126  0.6846  0.0367
 3499TIP3    H131988   0.894   1.705   2.065  0.3332  0.2217  1.5546
 3499TIP3    H231989   1.002   1.801   2.022 -0.2647  0.5899  0.8500
 3500TIP3   OH231990   0.131   2.027  11.147 -0.2628  0.4924  0.3250
 3500TIP3    H131991   0.096   2.048  11.061  1.9779 -0.1241 -0.8079
 3500TIP3    H231992   0.151   2.112  11.186 -0.6698  0.7506 -0.0232
 3501TIP3   OH231993   4.859   4.473   5.687 -0.0852  0.2903  0.1062
 3501TIP3    H131994   4.864   4.393   5.636 -0.7208 -0.4072  1.0946
 3501TIP3    H231995   4.949   4.488   5.718  0.0690  0.0616 -0.2329
 3502TIP3   OH231996   5.747   4.739   0.250 -0.0777  0.3663 -0.2272
 3502TIP3    H131997   5.787   4.670   0.197  2.3405  0.9079  0.7741
 3502TIP3    H231998   5.707   4.692   0.324 -2.9078 -0.3299 -2.0479
 3503TIP3   OH231999   1.879   1.912   4.099 -0.6215 -0.4832 -0.1884
 3503TIP3    H132000   1.924   1.850   4.157  1.3840  0.6548 -0.4156
 3503TIP3    H232001   1.950   1.965   4.062 -1.8478 -0.9535 -3.4736
 3504TIP3   OH232002   6.121   1.143  17.114  0.5215  0.0966  0.0398
 3504TIP3    H132003   6.042   1.166  17.065  1.2011  0.3134 -0.9986
 3504TIP3    H232004   6.146   1.057  17.080  0.1935 -0.4126  1.0639
 3505TIP3   OH232005   5.764   2.957   1.965 -0.1130  0.3016 -0.2188
 3505TIP3    H132006   5.844   3.008   1.966 -0.8770  1.5338  1.3251
 3505TIP3    H232007   5.794   2.866   1.962  1.2843  0.7526 -1.5271
 3506TIP3   OH232008   6.086   4.106  15.946 -0.2758 -0.4136 -0.4695
 3506TIP3    H132009   6.154   4.168  15.921 -1.1292  0.6122 -0.3346
 3506TIP3    H232010   6.132   4.035  15.989  0.4816  2.2029  3.5696
 3507TIP3   OH232011   4.637   4.939   4.632 -0.1469 -0.3941 -0.6118
 3507TIP3    H132012   4.723   4.912   4.601 -0.8406 -1.6070 -1.5351
 3507TIP3    H232013   4.621   4.885   4.709 -0.0167 -0.0389 -0.3310
 3508TIP3   OH232014   3.066   5.317   0.994 -0.0720  0.7266  0.2200
 3508TIP3    H132015   3.088   5.356   1.078  0.9466 -2.1428  1.4194
 3508TIP3    H232016   3.016   5.238   1.016 -0.3569  0.2404 -1.9039
 3509TIP3   OH232017   0.748   1.963  15.914 -0.5695 -0.2190  0.1071
 3509TIP3    H132018   0.788   1.973  15.828  0.3030  0.6369  0.6003
 3509TIP3    H232019   0.771   2.042  15.961 -0.4066 -0.9997  1.3941
 3510TIP3   OH232020   3.726   6.435   5.809  0.4467 -0.0764 -0.1553
 3510TIP3    H132021   3.661   6.481   5.861 -1.3644 -0.9229 -1.5457
 3510TIP3    H232022   3.714   6.343   5.830 -0.2721 -0.4328 -1.9149
 3511TIP3   OH232023   4.876   1.722   0.670  0.0629 -0.3284 -0.3311
 3511TIP3    H132024   4.831   1.743   0.752 -1.3971 -0.1683 -1.1200
 3511TIP3    H232025   4.859   1.798   0.614  1.6123 -0.1371 -0.5714
 3512TIP3   OH232026   1.152   2.141  11.115 -0.0480  0.1565 -0.2069
 3512TIP3    H132027   1.168   2.209  11.181  1.1822  0.9735 -1.2929
 3512TIP3    H232028   1.114   2.069  11.164 -0.2027  1.1507  1.2095
 3513TIP3   OH232029   2.598   4.708   3.596 -0.3318  0.5146 -0.1873
 3513TIP3    H132030   2.517   4.689   3.549 -0.7428  1.4798  0.0984
 3513TIP3    H232031   2.648   4.626   3.593 -0.3851  0.4988 -2.1921
 3514TIP3   OH232032   0.035   0.982   2.987  0.3083  0.1019 -0.4430
 3514TIP3    H132033   0.042   0.901   3.037 -1.3361  0.8202  1.0699
 3514TIP3    H232034  -0.053   1.015   3.006  0.8886  2.2024 -1.0739
 3515TIP3   OH232035   5.428   3.338   3.028 -0.1467  0.4639  0.0891
 3515TIP3    H132036   5.447   3.431   3.032 -0.0623  0.4551 -0.1240
 3515TIP3    H232037   5.413   3.320   2.935 -1.6354  0.5641  0.2870
 3516TIP3   OH232038   3.082   6.012   0.933 -0.2279 -0.6078 -0.3358
 3516TIP3    H132039   3.080   5.917   0.945  0.6467 -0.4298  1.6169
 3516TIP3    H232040   3.020   6.046   0.997  0.4119  0.1912 -0.1201
 3517TIP3   OH232041   5.195   2.990  15.119 -0.0442  0.1380 -0.3320
 3517TIP3    H132042   5.117   2.978  15.173  1.3460  0.5054  1.8607
 3517TIP3    H232043   5.163   3.037  15.042 -2.0014  0.1855  0.4433
 3518TIP3   OH232044   6.165   0.212   1.068 -0.5752  0.3133  0.7222
 3518TIP3    H132045   6.202   0.300   1.067  0.0072  0.0849  1.2695
 3518TIP3    H232046   6.157   0.190   1.161  0.2635 -0.6020  0.5978
 3519TIP3   OH232047   0.139   0.864   3.907  0.5579  0.0682  0.0352
 3519TIP3    H132048   0.200   0.790   3.908 -1.6883 -1.9241  1.2034
 3519TIP3    H232049   0.062   0.830   3.862 -0.1921  2.0847 -0.3034
 3520TIP3   OH232050   6.753   5.406  16.181  0.0302 -0.2132 -0.6519
 3520TIP3    H132051   6.763   5.383  16.274  0.4967 -0.1303 -0.6808
 3520TIP3    H232052   6.659   5.395  16.164 -0.2749  0.9370  0.1448
 3521TIP3   OH232053   1.595   3.992   5.533  0.2007  0.5479 -0.2115
 3521TIP3    H132054   1.665   3.926   5.527  1.1944  1.6398 -1.0442
 3521TIP3    H232055   1.555   3.992   5.446 -0.8529 -0.0430  0.2508
 3522TIP3   OH232056   5.657   1.166   4.197 -0.4874 -0.2584  0.2811
 3522TIP3    H132057   5.605   1.148   4.118  1.5265  1.7657 -1.6799
 3522TIP3    H232058   5.647   1.260   4.211  1.1934 -0.1259  0.8561
 3523TIP3   OH232059   4.482   5.637  15.531 -0.0515 -0.0381 -0.0828
 3523TIP3    H132060   4.444   5.562  15.576 -0.5551  0.6890  0.7259
 3523TIP3    H232061   4.415   5.705  15.535  0.7577  0.7854  0.0565
 3524TIP3   OH232062   2.121   0.075  15.133  0.4288 -0.2483  0.6166
 3524TIP3    H132063   2.157   0.053  15.219 -0.5430 -0.8388  0.8864
 3524TIP3    H232064   2.110  -0.010  15.090 -1.1533 -0.1370  0.7550
 3525TIP3   OH232065   6.587   2.003   1.298 -0.5058 -0.5264 -0.1920
 3525TIP3    H132066   6.537   2.068   1.250 -1.0026  0.5703  1.7130
 3525TIP3    H232067   6.531   1.980   1.373  0.2583 -2.1030 -0.0640
 3526TIP3   OH232068   0.611   1.950  14.616  0.0991 -0.1211  0.1395
 3526TIP3    H132069   0.677   2.010  14.581  0.3259 -0.0778  0.6460
 3526TIP3    H232070   0.540   1.953  14.551  1.9131 -2.6347 -2.1546
 3527TIP3   OH232071   5.517   3.436   3.766 -0.1504 -0.1564  0.1813
 3527TIP3    H132072   5.595   3.453   3.713 -0.3776  0.7097  0.1136
 3527TIP3    H232073   5.448   3.419   3.702  0.2171 -2.1588  0.2445
 3528TIP3   OH232074   4.366   1.171   1.618 -0.3285  0.1380  0.3381
 3528TIP3    H132075   4.375   1.075   1.613 -0.1789 -0.0704  2.9957
 3528TIP3    H232076   4.455   1.204   1.606 -0.6285  0.1566 -2.5033
 3529TIP3   OH232077   1.876   1.903   1.615 -0.2190 -0.1545 -0.0924
 3529TIP3    H132078   1.843   1.853   1.540  0.9398 -1.0056 -0.0540
 3529TIP3    H232079   1.960   1.862   1.637 -1.2015 -0.9527  2.6646
 3530TIP3   OH232080   0.307   5.494   5.871 -0.0393 -0.1831 -0.4099
 3530TIP3    H132081   0.322   5.401   5.887  2.5188  0.4109  1.2212
 3530TIP3    H232082   0.239   5.496   5.804 -0.6471 -3.1905 -0.0161
 3531TIP3   OH232083   0.422   6.804   0.965  0.2295  0.0678 -0.4277
 3531TIP3    H132084   0.338   6.795   0.921  0.0532  0.4571 -0.1704
 3531TIP3    H232085   0.425   6.731   1.027 -0.2932  0.5472  0.1715
 3532TIP3   OH232086   3.357   1.606  14.163 -0.1066 -0.4374  0.7794
 3532TIP3    H132087   3.314   1.521  14.156  0.8920 -0.9228  0.3589
 3532TIP3    H232088   3.449   1.585  14.180  0.3948  0.5367 -0.6010
 3533TIP3   OH232089   0.910   4.862  16.754  0.1515 -0.1436  0.2214
 3533TIP3    H132090   0.847   4.905  16.812 -0.7625 -0.4666 -0.5099
 3533TIP3    H232091   0.993   4.905  16.774  0.0538 -0.7870  2.3541
 3534TIP3   OH232092   2.592   5.660   2.282 -0.2593  0.3120  0.0606
 3534TIP3    H132093   2.620   5.622   2.199 -0.1843 -1.5960  0.9141
 3534TIP3    H232094   2.612   5.754   2.273  1.1122 -0.0769 -1.4937
 3535TIP3   OH232095   2.637   6.195  14.337  0.3797  0.3042  0.1650
 3535TIP3    H132096   2.688   6.137  14.394  0.4117 -0.3138 -0.4668
 3535TIP3    H232097   2.664   6.171  14.248 -1.6813 -0.7269 -0.2537
 3536TIP3   OH232098   4.881   3.064   4.134 -0.3382 -0.4388  0.1465
 3536TIP3    H132099   4.946   3.089   4.068 -0.3300 -0.5804  0.0995
 3536TIP3    H232100   4.912   2.980   4.167 -0.9926 -0.9767 -0.5562
 3537TIP3   OH232101   3.680   1.484  12.878  0.4642 -0.1749  0.2132
 3537TIP3    H132102   3.750   1.548  12.872  3.7285 -3.2473  1.7751
 3537TIP3    H232103   3.682   1.439  12.793 -0.1485  0.1905 -0.0004
 3538TIP3   OH232104   2.294   4.805   5.860  0.3706  0.0485  0.1895
 3538TIP3    H132105   2.280   4.730   5.918  0.6098 -0.6341 -0.6333
 3538TIP3    H232106   2.377   4.787   5.816 -0.9871 -0.7045 -2.2505
 3539TIP3   OH232107   5.374   4.048   2.087 -0.2670 -0.5602 -0.0646
 3539TIP3    H132108   5.366   3.970   2.142 -2.2512 -0.8805 -0.7357
 3539TIP3    H232109   5.388   4.119   2.149 -2.4373 -0.9129  0.9245
 3540TIP3   OH232110   1.170   6.389  13.283  0.1593 -0.0254 -0.3119
 3540TIP3    H132111   1.142   6.299  13.298 -0.4823  0.1286 -0.5653
 3540TIP3    H232112   1.178   6.427  13.370  0.4809 -0.3377 -0.2009
 3541TIP3   OH232113   6.549   0.048   2.606 -0.3072  0.7924 -0.3183
 3541TIP3    H132114   6.506   0.052   2.521 -0.4457 -0.2069 -0.3196
 3541TIP3    H232115   6.618  -0.017   2.595  0.1907  1.2397  0.1187
 3542TIP3   OH232116   5.123   3.213   3.372  0.0447 -0.1275 -0.4368
 3542TIP3    H132117   5.104   3.303   3.398 -0.8936 -0.0117 -1.4357
 3542TIP3    H232118   5.189   3.183   3.435 -0.6978  0.7550  0.8023
 3543TIP3   OH232119   1.073   6.204  11.928 -0.4767 -0.6441  0.0097
 3543TIP3    H132120   1.135   6.156  11.874 -0.3752 -0.2025 -0.2702
 3543TIP3    H232121   1.085   6.168  12.016  0.5506 -0.2094  0.0660
 3544TIP3   OH232122   2.159   1.462   4.619 -0.3475  0.0972 -0.6579
 3544TIP3    H132123   2.200   1.376   4.630  0.2388  0.3946 -0.4839
 3544TIP3    H232124   2.108   1.453   4.538 -0.5608 -0.5125 -0.4663
 3545TIP3   OH232125   0.048   2.539  15.377  0.3766  0.3048  0.3266
 3545TIP3    H132126   0.025   2.599  15.448 -0.8143  1.0332 -0.6246
 3545TIP3    H232127   0.037   2.452  15.413  0.4311  0.6610  1.2214
 3546TIP3   OH232128   4.395   0.585  11.614  0.5385  0.3427  1.5291
 3546TIP3    H132129   4.381   0.646  11.687 -1.5536  2.7816 -0.6959
 3546TIP3    H232130   4.314   0.534  11.610 -1.5612  3.4729 -1.7153
 3547TIP3   OH232131   0.837   2.788   3.245  0.3444 -0.1577 -0.3697
 3547TIP3    H132132   0.838   2.882   3.228  0.9441  0.1567  1.2011
 3547TIP3    H232133   0.925   2.769   3.278  1.3253 -1.9092 -3.5367
 3548TIP3   OH232134   3.978   1.554  11.801 -0.4580  0.5903 -0.0850
 3548TIP3    H132135   4.000   1.461  11.805 -2.4518  0.0235 -1.1830
 3548TIP3    H232136   4.007   1.582  11.715 -1.2025  0.6031 -0.3362
 3549TIP3   OH232137   3.774   4.680  11.448 -0.6989  0.0438  0.2761
 3549TIP3    H132138   3.795   4.660  11.539  0.4921 -2.1299 -0.4097
 3549TIP3    H232139   3.828   4.757  11.427  1.7901 -1.5307  0.4562
 3550TIP3   OH232140   6.191   5.801   4.886  0.2675  0.2616 -0.9211
 3550TIP3    H132141   6.136   5.739   4.935  1.3999 -0.9882 -1.1512
 3550TIP3    H232142   6.187   5.882   4.937 -0.1271 -0.4308  0.1916
 3551TIP3   OH232143   1.736   5.271  12.929 -0.0919 -0.2001 -0.5872
 3551TIP3    H132144   1.741   5.360  12.893 -1.0227  0.7665  1.5109
 3551TIP3    H232145   1.708   5.283  13.020  0.4490 -2.6146 -0.0260
 3552TIP3   OH232146   4.908   1.280   4.223 -0.0632 -0.3042  0.5345
 3552TIP3    H132147   4.825   1.306   4.186 -0.1992  1.2142  1.8054
 3552TIP3    H232148   4.967   1.272   4.148 -1.1617 -0.7219 -0.3047
 3553TIP3   OH232149   1.393   2.102  14.303  0.4776 -0.2702 -0.3086
 3553TIP3    H132150   1.427   2.017  14.329  0.3840 -0.4510 -0.7697
 3553TIP3    H232151   1.298   2.091  14.303  0.3647  0.3509  1.3846
 3554TIP3   OH232152   0.888   5.752   0.707 -0.2586 -0.5415  0.5651
 3554TIP3    H132153   0.822   5.683   0.699  0.3466 -1.1407  0.6211
 3554TIP3    H232154   0.840   5.827   0.740 -1.0351 -0.7718  0.0001
 3555TIP3   OH232155   3.701   5.458  15.399 -0.1421 -0.1036 -0.0665
 3555TIP3    H132156   3.788   5.433  15.369  0.3833  1.2538  0.2554
 3555TIP3    H232157   3.713   5.544  15.438 -1.4367 -0.3452  0.9407
 3556TIP3   OH232158   6.486   1.673   5.303 -0.5736  0.0728 -0.2589
 3556TIP3    H132159   6.528   1.711   5.380  0.2846  1.1336 -1.2242
 3556TIP3    H232160   6.524   1.586   5.295  0.8588  0.7087 -0.6351
 3557TIP3   OH232161   3.082   5.183  13.484  0.3007 -0.0971  0.3361
 3557TIP3    H132162   3.060   5.185  13.578 -0.1927  2.1994  0.2517
 3557TIP3    H232163   3.000   5.206  13.440  0.8941  0.3702 -0.5517
 3558TIP3   OH232164   2.803   2.137   0.844 -0.1554  0.1332  0.0350
 3558TIP3    H132165   2.728   2.096   0.801  1.5484  0.2824 -3.4179
 3558TIP3    H232166   2.764   2.188   0.916 -3.2659 -0.3334 -1.1413
 3559TIP3   OH232167   5.309   5.889  15.359  0.2794 -0.1364 -0.6637
 3559TIP3    H132168   5.321   5.910  15.452  2.9336  2.6532 -1.4230
 3559TIP3    H232169   5.268   5.803  15.358 -0.3288 -0.0555  3.0669
 3560TIP3   OH232170   5.129   3.725  14.804 -0.3978  0.2128 -0.0080
 3560TIP3    H132171   5.039   3.710  14.835 -0.9647 -1.3287 -2.2086
 3560TIP3    H232172   5.118   3.783  14.728  0.3541 -0.7972 -0.9054
 3561TIP3   OH232173   5.015   4.353  12.500 -0.4413 -0.3119  0.3698
 3561TIP3    H132174   5.000   4.413  12.573  0.7414  1.0513 -0.4299
 3561TIP3    H232175   4.957   4.384  12.431  0.8503  0.5781 -0.3706
 3562TIP3   OH232176   5.308   2.111   3.694 -0.1183 -0.2966  0.1818
 3562TIP3    H132177   5.292   2.107   3.789  1.5804  0.7989  0.5654
 3562TIP3    H232178   5.369   2.184   3.683 -0.8093  0.0402 -1.8649
 3563TIP3   OH232179   0.358   2.797  13.106  0.0691 -0.1328  0.3491
 3563TIP3    H132180   0.347   2.851  13.184 -1.1592 -1.1311  0.8994
 3563TIP3    H232181   0.353   2.707  13.138 -1.1935 -0.5635 -0.9543
 3564TIP3   OH232182   0.288   0.803   2.289 -0.6191  0.4235 -0.3313
 3564TIP3    H132183   0.220   0.766   2.346  0.3900 -0.1804  0.5063
 3564TIP3    H232184   0.273   0.760   2.204 -0.8695 -0.2073  0.0250
 3565TIP3   OH232185   4.658   5.152  14.785  0.1878  0.4382  0.0399
 3565TIP3    H132186   4.751   5.169  14.796  0.4951  0.9804 -2.6097
 3565TIP3    H232187   4.615   5.228  14.824  0.8839  0.4880  0.7227
 3566TIP3   OH232188   6.535   1.120   1.511 -0.7076  0.0877 -0.3031
 3566TIP3    H132189   6.619   1.165   1.513 -1.1688  0.9551  0.3339
 3566TIP3    H232190   6.536   1.070   1.429  0.4898 -0.0661 -0.2180
 3567TIP3   OH232191   2.757   6.269   4.398 -0.9242  0.0221 -0.2377
 3567TIP3    H132192   2.712   6.341   4.353  0.8056  1.2508 -0.0942
 3567TIP3    H232193   2.740   6.192   4.344  0.3186  1.2606 -2.5221
 3568TIP3   OH232194   5.938   6.564  11.112  0.3512 -0.4300 -0.0914
 3568TIP3    H132195   6.017   6.511  11.125 -0.3660 -1.3215  0.8144
 3568TIP3    H232196   5.906   6.539  11.026  1.0053 -0.1131 -0.4375
 3569TIP3   OH232197   3.428   1.619   3.065 -0.5113 -0.5103  0.3750
 3569TIP3    H132198   3.462   1.647   2.980  0.4840  0.4093  1.0557
 3569TIP3    H232199   3.445   1.524   3.067 -1.9762 -0.8585 -1.0670
 3570TIP3   OH232200   4.179   5.714  11.864 -0.4493 -0.2134  0.3992
 3570TIP3    H132201   4.268   5.707  11.899 -0.2016  0.6085 -0.0439
 3570TIP3    H232202   4.191   5.734  11.771 -1.0997 -0.4458  0.2592
 3571TIP3   OH232203   6.129   5.539  16.156 -0.1961 -0.6560 -0.7677
 3571TIP3    H132204   6.221   5.556  16.176 -0.2315  0.0230 -1.1637
 3571TIP3    H232205   6.125   5.444  16.142  0.1758 -0.8763  0.5680
 3572TIP3   OH232206   4.917   2.543  17.239  0.2423  0.3422 -1.0396
 3572TIP3    H132207   4.915   2.620  17.296 -0.6009 -1.0346  0.9005
 3572TIP3    H232208   4.827   2.534  17.208 -0.2202 -1.0840  0.5636
 3573TIP3   OH232209   2.768   0.397  14.551  0.1363 -0.0067  0.6035
 3573TIP3    H132210   2.778   0.307  14.581 -3.5081  0.0043  2.4751
 3573TIP3    H232211   2.832   0.446  14.603  0.1440 -1.1829  1.7684
 3574TIP3   OH232212   4.833   1.783   4.298  0.2598  0.0750  0.0654
 3574TIP3    H132213   4.868   1.694   4.290  1.4246  0.4149  1.0969
 3574TIP3    H232214   4.865   1.814   4.382 -0.7962  1.2009  0.0760
 3575TIP3   OH232215   2.914   4.031   5.199  0.0560  0.0203 -0.4931
 3575TIP3    H132216   2.985   4.044   5.261  0.0302 -1.5330 -0.0940
 3575TIP3    H232217   2.863   3.958   5.236 -1.2930  0.5900 -1.1646
 3576TIP3   OH232218   5.944   2.611  15.597 -0.4570 -0.1845  0.6110
 3576TIP3    H132219   5.990   2.641  15.519 -0.7787 -0.4070  0.3306
 3576TIP3    H232220   5.851   2.613  15.572 -0.4827 -1.6493  0.4747
 3577TIP3   OH232221   3.224   6.511  13.164 -0.1381  0.5580  0.2047
 3577TIP3    H132222   3.286   6.581  13.184 -1.2156  1.2501  1.2496
 3577TIP3    H232223   3.209   6.518  13.070  0.6650  0.9746  0.1018
 3578TIP3   OH232224   6.043   5.235   6.446  0.2191 -0.4190  0.4626
 3578TIP3    H132225   6.122   5.287   6.463  0.5906 -0.0212 -2.0676
 3578TIP3    H232226   5.971   5.298   6.453  0.4344 -0.0974 -0.1240
 3579TIP3   OH232227   6.431   3.689  14.045 -0.7467  0.5404 -0.0098
 3579TIP3    H132228   6.354   3.642  14.078 -0.4102 -0.6471 -0.8718
 3579TIP3    H232229   6.478   3.624  13.993  1.0401  1.1441  0.7936
 3580TIP3   OH232230   3.920   2.195  12.737 -0.8045 -0.4170 -0.0887
 3580TIP3    H132231   3.980   2.121  12.746 -0.1924  0.0889  0.0973
 3580TIP3    H232232   3.928   2.242  12.821  0.5906  1.1483 -1.0364
 3581TIP3   OH232233   3.603   3.147  15.817  0.0594  0.1513  0.4364
 3581TIP3    H132234   3.548   3.084  15.771 -0.5361 -1.1772  2.7973
 3581TIP3    H232235   3.679   3.097  15.846 -0.7816  0.1830  3.0012
 3582TIP3   OH232236   1.839   0.494   2.203 -0.1514 -0.9233 -0.2129
 3582TIP3    H132237   1.864   0.442   2.127 -0.2867  1.2901 -1.8866
 3582TIP3    H232238   1.745   0.479   2.214 -0.6557  0.4893 -2.0384
 3583TIP3   OH232239   6.432   0.044  13.128 -0.5130  0.5760 -0.2802
 3583TIP3    H132240   6.352   0.096  13.126 -0.7388  0.2249 -0.4515
 3583TIP3    H232241   6.441   0.010  13.039 -1.6578 -1.6137  0.3622
 3584TIP3   OH232242   4.587   3.773   6.488 -0.4289  0.1736 -0.3362
 3584TIP3    H132243   4.594   3.719   6.409  0.4756 -0.7606  0.3647
 3584TIP3    H232244   4.665   3.829   6.485 -1.2596  1.3346 -0.9577
 3585TIP3   OH232245   1.582   2.646   1.402  0.4056  0.4235  0.0394
 3585TIP3    H132246   1.518   2.578   1.424  0.0179  0.4033 -1.1088
 3585TIP3    H232247   1.537   2.702   1.339  1.5658  0.3231 -0.9097
 3586TIP3   OH232248   2.915   2.079   3.450 -0.1824  0.9111 -0.2026
 3586TIP3    H132249   2.920   2.000   3.396 -1.5874  0.7059 -0.0637
 3586TIP3    H232250   2.843   2.063   3.511 -0.8944  2.5202 -0.5529
 3587TIP3   OH232251   5.090   2.593   5.889 -0.1966 -0.2084 -0.3480
 3587TIP3    H132252   5.087   2.687   5.903  0.0092 -0.0975 -1.0065
 3587TIP3    H232253   5.143   2.559   5.961 -0.9543  0.0724  0.3659
 3588TIP3   OH232254   5.493   0.054   3.582  0.0284  0.1505  0.1971
 3588TIP3    H132255   5.456   0.139   3.604 -0.3240  0.5541 -1.7829
 3588TIP3    H232256   5.555   0.072   3.512 -1.0266 -1.3279 -1.2114
 3589TIP3   OH232257   6.023   1.869   0.325 -0.0402  0.1129 -0.5491
 3589TIP3    H132258   5.967   1.945   0.337 -0.6822 -0.4482  0.1096
 3589TIP3    H232259   5.963   1.798   0.302  0.4833 -0.3254 -0.5859
 3590TIP3   OH232260   0.501   1.147   4.030  0.2861  0.5956 -0.0129
 3590TIP3    H132261   0.466   1.234   4.053 -0.8800 -0.0129  0.6253
 3590TIP3    H232262   0.432   1.086   4.057  0.9310 -0.5116 -0.7860
 3591TIP3   OH232263   4.811   1.211  15.952 -0.4940 -0.1495 -0.1739
 3591TIP3    H132264   4.725   1.173  15.966 -0.7887 -0.4844 -2.4320
 3591TIP3    H232265   4.872   1.148  15.989 -1.1731 -0.4222  0.4963
 3592TIP3   OH232266   1.024   6.348   5.059  0.0828  0.4344  0.1052
 3592TIP3    H132267   0.991   6.262   5.087  1.3118  0.0098  0.3262
 3592TIP3    H232268   0.963   6.376   4.991 -0.2080 -0.7176 -0.1340
 3593TIP3   OH232269   0.435   0.419   3.311 -0.0546  0.4358  0.1263
 3593TIP3    H132270   0.519   0.377   3.326 -0.8057 -0.9750  0.5106
 3593TIP3    H232271   0.376   0.381   3.376 -1.3632  0.2498 -1.1053
 3594TIP3   OH232272   3.808   2.532  11.130 -0.3709 -0.0506 -0.3995
 3594TIP3    H132273   3.826   2.438  11.130  0.4980  0.1081 -0.5119
 3594TIP3    H232274   3.864   2.567  11.060 -0.2663  0.6315  0.0190
 3595TIP3   OH232275   4.755   2.947  11.198 -0.6627  0.5533 -0.0810
 3595TIP3    H132276   4.832   2.895  11.223 -1.3333  0.0860  1.1395
 3595TIP3    H232277   4.768   2.968  11.106  2.2687  2.8217  0.7064
 3596TIP3   OH232278   4.568   0.662   4.849  0.1848  0.3836 -0.0385
 3596TIP3    H132279   4.621   0.689   4.924 -0.3651  1.0709  0.1076
 3596TIP3    H232280   4.584   0.730   4.784  1.8814 -0.9922 -1.1568
 3597TIP3   OH232281   1.882   3.949  15.337  0.1656  0.0387  0.8966
 3597TIP3    H132282   1.931   3.868  15.347  1.8228  0.9749  0.6717
 3597TIP3    H232283   1.867   3.957  15.243  0.1042  0.0652  0.9083
 3598TIP3   OH232284   1.623   0.025   4.034  0.1583  0.1382  0.1410
 3598TIP3    H132285   1.528   0.025   4.021  0.2794 -0.8626 -0.8878
 3598TIP3    H232286   1.635   0.067   4.119 -1.1345  1.1303 -0.1421
 3599TIP3   OH232287   4.641   4.747  16.125  0.1306  0.5064 -0.0411
 3599TIP3    H132288   4.610   4.735  16.215  0.0264 -0.7840 -0.2334
 3599TIP3    H232289   4.695   4.826  16.129 -0.1924  0.6929  1.0685
 3600TIP3   OH232290   0.348   2.129   5.102  0.3865  0.3062 -0.1425
 3600TIP3    H132291   0.319   2.213   5.138 -2.4143  0.2631 -1.9483
 3600TIP3    H232292   0.442   2.139   5.091  0.5354  2.2317  2.0254
 3601TIP3   OH232293   2.261   3.199  14.474 -0.4458 -0.0452 -0.3493
 3601TIP3    H132294   2.208   3.187  14.553 -0.5044 -0.9588 -0.5185
 3601TIP3    H232295   2.218   3.145  14.407 -0.2532  0.5166 -0.9413
 3602TIP3   OH232296   1.470   6.513  15.028 -0.1337  0.1045 -0.2270
 3602TIP3    H132297   1.380   6.486  15.043  0.1840 -1.1719 -0.5744
 3602TIP3    H232298   1.473   6.536  14.935 -0.2094  0.6039 -0.1091
 3603TIP3   OH232299   5.401   0.323   1.296  0.1470  0.5983 -0.5840
 3603TIP3    H132300   5.489   0.309   1.331  0.6044  1.6517 -1.2455
 3603TIP3    H232301   5.416   0.358   1.208 -0.8944  1.7326 -0.3417
 3604TIP3   OH232302   1.079   3.273   2.768 -0.1312 -0.3767  0.5131
 3604TIP3    H132303   1.057   3.364   2.747 -2.3552 -0.3409  2.5909
 3604TIP3    H232304   1.026   3.221   2.707 -0.5008 -0.2867  0.7597
 3605TIP3   OH232305   1.653   1.351  12.043 -0.0553  0.3627  0.7808
 3605TIP3    H132306   1.647   1.441  12.076 -1.7936  1.0886 -1.3128
 3605TIP3    H232307   1.568   1.312  12.064  0.3298 -0.4907  0.8051
 3606TIP3   OH232308   0.130   5.781  13.008  0.0709  0.0378  0.1374
 3606TIP3    H132309   0.128   5.876  13.001  0.0592  0.0985  0.9126
 3606TIP3    H232310   0.108   5.750  12.920  0.1019  0.7476 -0.1251
 3607TIP3   OH232311   2.861   6.082   5.510 -0.6158 -1.0496  0.2052
 3607TIP3    H132312   2.937   6.046   5.555 -1.6861 -2.1454  1.2210
 3607TIP3    H232313   2.864   6.044   5.423  0.3675 -0.5178 -0.0114
 3608TIP3   OH232314   2.397   0.619   2.829 -0.1446  0.4538  0.1826
 3608TIP3    H132315   2.478   0.647   2.785 -0.6647  1.3651 -0.2265
 3608TIP3    H232316   2.416   0.629   2.923  0.5233 -0.2298  0.1285
 3609TIP3   OH232317   5.782   4.219   1.529  0.1680 -0.4770 -0.3251
 3609TIP3    H132318   5.717   4.168   1.578 -1.3956  1.2085 -0.5237
 3609TIP3    H232319   5.813   4.284   1.592  0.4205 -0.2154 -0.7198
 3610TIP3   OH232320   3.593   3.613  13.785 -0.3433  0.0852 -0.7838
 3610TIP3    H132321   3.543   3.570  13.716 -0.6516 -0.7069 -0.0923
 3610TIP3    H232322   3.655   3.669  13.739  0.2766 -1.3222 -1.7604
 3611TIP3   OH232323   4.235   4.430   1.605  0.2299  0.0196 -0.5408
 3611TIP3    H132324   4.164   4.494   1.610 -0.0767 -0.2841 -0.8674
 3611TIP3    H232325   4.310   4.474   1.645 -0.2610  0.1758  0.2361
 3612TIP3   OH232326   1.003   2.923  14.316 -0.6741 -0.0536  0.7812
 3612TIP3    H132327   0.912   2.930  14.344 -0.3687 -1.1385  2.1586
 3612TIP3    H232328   1.029   2.834  14.340  1.1431  0.6643  1.7212
 3613TIP3   OH232329   0.158   5.082   1.210 -0.1379  0.3528 -0.0922
 3613TIP3    H132330   0.169   5.089   1.304  2.9945 -1.6123 -0.1707
 3613TIP3    H232331   0.145   4.988   1.194 -1.0232  0.6925 -1.6125
 3614TIP3   OH232332   6.352   5.140   5.366  0.3701 -0.5593 -0.4319
 3614TIP3    H132333   6.264   5.119   5.333  0.4768  0.7527 -1.6654
 3614TIP3    H232334   6.354   5.236   5.369  1.6766 -0.5815 -0.1623
 3615TIP3   OH232335   1.363   1.601  13.785  0.0892  0.5792  0.1048
 3615TIP3    H132336   1.276   1.562  13.771 -0.0884 -0.3068  2.9694
 3615TIP3    H232337   1.411   1.534  13.835  1.9423  1.6502 -0.1487
 3616TIP3   OH232338   4.350   1.266  17.093  0.4887 -0.1625 -0.5001
 3616TIP3    H132339   4.266   1.240  17.056  1.5649 -2.8591 -1.3350
 3616TIP3    H232340   4.380   1.338  17.037 -1.9753  2.1397  0.9273
 3617TIP3   OH232341   1.188   4.178   4.780 -0.1970 -0.0225  0.1390
 3617TIP3    H132342   1.197   4.265   4.821  2.5942 -0.2623  0.2666
 3617TIP3    H232343   1.216   4.117   4.849 -0.4660 -0.8741 -0.4962
 3618TIP3   OH232344   5.950   5.207   3.673 -0.5983  0.6626 -0.6204
 3618TIP3    H132345   5.872   5.162   3.704  0.9556 -2.1095 -0.4787
 3618TIP3    H232346   5.946   5.200   3.578 -0.6672  0.8044 -0.6286
 3619TIP3   OH232347   1.216   3.017  13.418  0.1271 -0.1059 -0.5781
 3619TIP3    H132348   1.233   2.924  13.431  3.2036  0.5699  1.3786
 3619TIP3    H232349   1.240   3.034  13.327  0.2752 -1.0813 -0.7277
 3620TIP3   OH232350   3.829   3.143   4.633 -0.3018  0.0184  0.7364
 3620TIP3    H132351   3.852   3.079   4.700 -0.8894 -1.8171 -0.7392
 3620TIP3    H232352   3.741   3.118   4.604 -0.3963  1.2740 -0.1532
 3621TIP3   OH232353   1.810   4.777  13.924  0.1494 -0.1246  0.0871
 3621TIP3    H132354   1.810   4.757  14.017 -0.1780  2.1752  0.6552
 3621TIP3    H232355   1.717   4.784  13.901  0.2277  0.7242 -0.0268
 3622TIP3   OH232356   2.429   2.847  13.510 -0.4522 -0.1350 -0.4553
 3622TIP3    H132357   2.472   2.880  13.432  0.1604  1.0970  0.3782
 3622TIP3    H232358   2.495   2.854  13.579 -1.3026 -0.2159  0.3921
 3623TIP3   OH232359   2.410   3.416  15.454  0.0150  0.6220  0.1636
 3623TIP3    H132360   2.388   3.473  15.381  1.0801  1.4033  0.4298
 3623TIP3    H232361   2.377   3.461  15.532  0.7205  0.8117  0.3600
 3624TIP3   OH232362   1.233   4.475   4.355 -0.6021  0.0108  0.0329
 3624TIP3    H132363   1.258   4.409   4.291 -0.9933  0.7169 -0.8829
 3624TIP3    H232364   1.198   4.426   4.429  2.6663 -0.9675  1.0482
 3625TIP3   OH232365   1.086   4.813  12.449  0.1824  0.1831 -0.2240
 3625TIP3    H132366   1.084   4.900  12.488  0.6568 -0.6339  1.7479
 3625TIP3    H232367   1.111   4.828  12.358 -1.1249  2.2054 -0.3209
 3626TIP3   OH232368   1.596   2.130  10.808  0.1551 -0.8431  0.0037
 3626TIP3    H132369   1.663   2.147  10.741 -0.8606  1.0385 -0.6037
 3626TIP3    H232370   1.520   2.181  10.780 -1.5055 -2.7323  0.7987
 3627TIP3   OH232371   5.865   4.868   4.242 -0.0275  0.3257  0.9737
 3627TIP3    H132372   5.911   4.835   4.164  0.9771 -0.4672  1.8706
 3627TIP3    H232373   5.895   4.811   4.313 -2.4325 -0.2680  1.6155
 3628TIP3   OH232374   1.135   4.137  16.354  0.1076  0.6074  0.3244
 3628TIP3    H132375   1.221   4.127  16.313 -0.1087 -0.1775  0.0401
 3628TIP3    H232376   1.153   4.144  16.448  0.6176  2.5812  0.1023
 3629TIP3   OH232377   2.802   5.197  12.104 -0.1543  0.4183  0.8966
 3629TIP3    H132378   2.818   5.103  12.096  1.3241  0.7355 -0.3720
 3629TIP3    H232379   2.727   5.203  12.164 -0.8742 -1.5892  0.3070
 3630TIP3   OH232380   1.476   5.697   0.051 -0.2884  0.3481  1.0504
 3630TIP3    H132381   1.406   5.631   0.052 -0.2817  0.2448 -0.9650
 3630TIP3    H232382   1.549   5.654   0.006 -0.7041  2.0611 -1.4799
 3631TIP3   OH232383   2.269   2.069   2.620 -0.6359  0.0080 -0.4616
 3631TIP3    H132384   2.221   2.115   2.551  0.4959 -0.0805 -1.3331
 3631TIP3    H232385   2.237   1.979   2.615 -0.8816  0.1005 -0.5796
 3632TIP3   OH232386   5.508   0.809   2.770  0.0715  0.3983 -0.2067
 3632TIP3    H132387   5.604   0.804   2.775  0.1956 -0.3040 -2.1351
 3632TIP3    H232388   5.489   0.902   2.777  0.6419  0.3679  2.7413
 3633TIP3   OH232389   6.544   2.784   0.710  0.1463  0.2050 -0.0898
 3633TIP3    H132390   6.553   2.843   0.635 -1.8899  0.3154 -0.3081
 3633TIP3    H232391   6.505   2.838   0.778 -1.2495 -0.7007 -0.1172
 3634TIP3   OH232392   5.293   3.421  16.812  0.0391 -0.3327  0.2480
 3634TIP3    H132393   5.199   3.422  16.791  0.1591 -4.4796 -1.3540
 3634TIP3    H232394   5.299   3.371  16.894  0.8423  0.4482  0.6832
 3635TIP3   OH232395   3.995   6.548   3.734 -0.5926 -0.1791 -0.0082
 3635TIP3    H132396   3.920   6.577   3.683  0.3759  1.7528 -0.4332
 3635TIP3    H232397   4.071   6.577   3.684  0.4417 -1.2736  0.8560
 3636TIP3   OH232398   2.347   2.352   4.075 -0.4349 -0.6356 -0.2515
 3636TIP3    H132399   2.410   2.374   4.143  0.1427 -0.4485 -0.8332
 3636TIP3    H232400   2.264   2.391   4.104 -0.0839 -0.1561  0.1122
 3637TIP3   OH232401   6.483   3.878   5.117  0.1626 -0.9137  0.2206
 3637TIP3    H132402   6.454   3.831   5.195 -1.1104  0.3561  0.5631
 3637TIP3    H232403   6.452   3.825   5.044  0.3112 -1.4990  0.5757
 3638TIP3   OH232404   5.549   2.219   4.111 -0.1943 -0.4168  0.4440
 3638TIP3    H132405   5.600   2.158   4.165  0.6692  0.8900  1.1432
 3638TIP3    H232406   5.578   2.306   4.139 -0.6370  0.3131 -1.2552
 3639TIP3   OH232407   5.520   4.576   0.841  0.3717  0.1580  0.2864
 3639TIP3    H132408   5.604   4.583   0.797 -0.2181 -0.9509 -1.0745
 3639TIP3    H232409   5.519   4.488   0.878  0.1393  0.4645  1.0330
 3640TIP3   OH232410   0.228   6.803  13.921  0.5521 -0.0460 -0.3758
 3640TIP3    H132411   0.147   6.794  13.973  0.9519  0.1765  0.2954
 3640TIP3    H232412   0.197   6.809  13.830 -0.1825 -0.0773 -0.1385
 3641TIP3   OH232413   2.901   0.883   2.476  0.3208 -0.1210 -0.3574
 3641TIP3    H132414   2.816   0.927   2.472  1.5372  2.5322  0.5950
 3641TIP3    H232415   2.914   0.850   2.387 -1.5515 -0.3686 -0.5926
 3642TIP3   OH232416   6.153   3.728   3.976 -0.0615  0.1841  0.3145
 3642TIP3    H132417   6.232   3.766   3.940  2.8790 -2.6958  3.0879
 3642TIP3    H232418   6.120   3.793   4.038  1.0991  0.7799  0.3114
 3643TIP3   OH232419   4.798   0.869   2.689 -0.2908 -0.2377  0.0016
 3643TIP3    H132420   4.729   0.935   2.678  1.5145  1.3720 -2.7886
 3643TIP3    H232421   4.770   0.795   2.634 -1.0999 -0.8078  1.1405
 3644TIP3   OH232422   1.375   3.570   5.578  0.1277  0.1262  0.0384
 3644TIP3    H132423   1.463   3.592   5.609 -0.0716  0.2773  0.5105
 3644TIP3    H232424   1.319   3.639   5.615 -0.2960 -0.3905  0.3706
 3645TIP3   OH232425   4.371   3.421  15.324 -0.1060  0.1093  0.9122
 3645TIP3    H132426   4.400   3.362  15.254  0.5545 -1.1332  2.1849
 3645TIP3    H232427   4.289   3.459  15.291 -0.5456 -1.5205  0.0397
 3646TIP3   OH232428   6.077   1.893  15.833  0.3013 -0.3300  0.2295
 3646TIP3    H132429   6.117   1.821  15.784  1.7583 -0.0342  0.9102
 3646TIP3    H232430   6.023   1.939  15.769 -0.1099 -1.6081 -0.3776
 3647TIP3   OH232431   0.675   6.361   5.978  0.1769  0.1783 -0.2622
 3647TIP3    H132432   0.760   6.379   6.019  0.1354 -0.1335 -0.0331
 3647TIP3    H232433   0.620   6.330   6.050 -0.1693  0.4902 -0.3854
 3648TIP3   OH232434   2.785   3.608   6.124  0.3932  0.3018 -0.1950
 3648TIP3    H132435   2.837   3.571   6.053 -0.4994  0.2547 -0.8432
 3648TIP3    H232436   2.800   3.549   6.198 -1.8741 -2.1136 -1.4997
 3649TIP3   OH232437   3.990   5.882   1.695 -0.4575 -0.0229  0.2415
 3649TIP3    H132438   3.926   5.926   1.639  1.6577  1.2152 -1.3553
 3649TIP3    H232439   4.071   5.931   1.682  1.0184 -1.9386  1.6242
 3650TIP3   OH232440   1.564   4.725   1.312 -0.2485  0.2932  0.0481
 3650TIP3    H132441   1.648   4.763   1.335 -0.5126  2.0361 -1.6280
 3650TIP3    H232442   1.577   4.687   1.225 -1.7200  2.8123 -1.4007
 3651TIP3   OH232443   0.553   5.751  14.716  0.6840  0.0110  0.0392
 3651TIP3    H132444   0.487   5.726  14.780  0.5041 -0.5945 -0.3830
 3651TIP3    H232445   0.607   5.816  14.763  0.9097 -0.8440  1.0047
 3652TIP3   OH232446   0.828   5.845   4.380 -0.0868  0.6944  0.4389
 3652TIP3    H132447   0.794   5.756   4.388  0.3875  0.2684 -1.6138
 3652TIP3    H232448   0.923   5.835   4.392 -0.0313  0.9063  0.1930
 3653TIP3   OH232449   3.006   1.973   0.462 -1.0466 -0.4614  0.1400
 3653TIP3    H132450   2.961   2.050   0.497  0.5881  0.1134  1.0493
 3653TIP3    H232451   3.012   1.912   0.535 -0.5275 -0.6126 -0.0215
 3654TIP3   OH232452   5.380   6.254   5.285  0.4576 -0.0191 -0.8460
 3654TIP3    H132453   5.435   6.324   5.322 -0.7972 -0.5917  2.4434
 3654TIP3    H232454   5.293   6.294   5.278 -0.1845 -1.0882  0.6966
 3655TIP3   OH232455   4.314   6.787   0.751 -0.2806 -0.2422 -0.1436
 3655TIP3    H132456   4.225   6.752   0.749 -0.5382  0.3280  0.7918
 3655TIP3    H232457   4.343   6.772   0.841  0.1091  0.6975 -0.1090
 3656TIP3   OH232458   0.646   0.511   5.164 -0.3821  0.4910 -0.1177
 3656TIP3    H132459   0.741   0.500   5.170 -0.5713 -0.7162  1.0058
 3656TIP3    H232460   0.635   0.589   5.108  1.2869  1.7121  1.1463
 3657TIP3   OH232461   0.114   3.515  14.593  0.0701  0.5705 -0.2791
 3657TIP3    H132462   0.091   3.439  14.540 -2.0974 -0.0082  1.3443
 3657TIP3    H232463   0.084   3.590  14.542  1.2962  0.3286 -1.4272
 3658TIP3   OH232464   0.641   0.010   5.469  0.1795  0.2783 -0.0290
 3658TIP3    H132465   0.648  -0.068   5.525 -0.8015  0.8814  0.9896
 3658TIP3    H232466   0.550   0.008   5.439 -1.0011  2.8116  2.8478
 3659TIP3   OH232467   5.613   2.742   4.858 -0.1736  0.1794 -0.0144
 3659TIP3    H132468   5.694   2.749   4.907  0.1071  0.1035 -0.4574
 3659TIP3    H232469   5.641   2.726   4.768 -0.6789 -1.3510  0.0649
 3660TIP3   OH232470   2.326   5.888  13.745 -0.1887 -0.0697 -0.1996
 3660TIP3    H132471   2.263   5.821  13.718  1.7813 -1.2451 -2.2951
 3660TIP3    H232472   2.350   5.864  13.834  0.6069 -2.3848 -0.9463
 3661TIP3   OH232473   0.046   1.616   4.468 -1.1676  0.1478 -0.1073
 3661TIP3    H132474   0.103   1.693   4.463 -1.8648  0.9167  2.3610
 3661TIP3    H232475   0.105   1.542   4.475 -0.3859  0.9331  2.4576
 3662TIP3   OH232476   2.409   1.418   3.045  0.7784 -0.1600 -0.0660
 3662TIP3    H132477   2.396   1.324   3.052  3.5687 -0.5676  0.9648
 3662TIP3    H232478   2.455   1.430   2.961  2.1632 -0.0202  0.6725
 3663TIP3   OH232479   5.931   0.017   5.206  0.2207 -0.1827  0.2827
 3663TIP3    H132480   5.969   0.043   5.122 -1.4846 -0.4429 -0.6137
 3663TIP3    H232481   5.951   0.089   5.266  3.0469 -0.8041  0.1929
 3664TIP3   OH232482   1.277   0.158   0.843  0.3710  0.2510 -0.1867
 3664TIP3    H132483   1.371   0.149   0.825  0.0583 -0.6484 -1.4936
 3664TIP3    H232484   1.253   0.242   0.804  0.7781  0.8642  0.8525
 3665TIP3   OH232485   0.386   2.688   1.094 -0.1519  0.0579  0.1384
 3665TIP3    H132486   0.421   2.684   1.183  0.3394 -2.5633 -0.1028
 3665TIP3    H232487   0.291   2.689   1.106 -0.1124  2.0578  0.6842
 3666TIP3   OH232488   2.291   2.778   1.325  0.3507  0.5539  0.3221
 3666TIP3    H132489   2.317   2.691   1.294  1.3243  0.7993  0.4232
 3666TIP3    H232490   2.210   2.763   1.373  0.9294 -0.4386  1.0249
 3667TIP3   OH232491   0.422   0.900   2.770 -0.2745 -0.0657  0.0542
 3667TIP3    H132492   0.472   0.819   2.765 -0.9285 -0.4217 -0.8967
 3667TIP3    H232493   0.435   0.942   2.685 -0.7680  0.3258  0.1683
 3668TIP3   OH232494   1.648   5.840   6.113  0.0260 -0.2367  0.4090
 3668TIP3    H132495   1.732   5.846   6.067  0.9913  1.6229  2.2315
 3668TIP3    H232496   1.658   5.764   6.171  0.4499 -0.0491  0.5879
 3669TIP3   OH232497   3.301   6.144   0.850 -0.8475  0.4589 -0.1979
 3669TIP3    H132498   3.273   6.230   0.819 -1.2868 -0.1046 -1.4060
 3669TIP3    H232499   3.226   6.110   0.899 -0.4909  0.9524  0.7269
 3670TIP3   OH232500   5.098   2.031   3.535  0.0252 -0.1810 -0.1162
 3670TIP3    H132501   5.088   2.096   3.466 -0.8045  0.7394  0.8449
 3670TIP3    H232502   5.180   2.054   3.579 -0.3040  0.2798  0.2694
 3671TIP3   OH232503   3.400   6.109   4.492 -0.6126  0.8743  0.4713
 3671TIP3    H132504   3.467   6.040   4.495  0.5718  2.0078  1.9502
 3671TIP3    H232505   3.436   6.175   4.433 -0.2716  1.5884  1.4397
 3672TIP3   OH232506   0.091   5.396   5.448 -0.1404  0.0237 -0.7608
 3672TIP3    H132507   0.155   5.467   5.437  0.2169 -0.2730 -0.6332
 3672TIP3    H232508   0.102   5.342   5.370 -1.3843  0.8584 -1.5358
 3673TIP3   OH232509   5.094   0.352   3.268  0.4485  1.2685  0.1415
 3673TIP3    H132510   5.061   0.262   3.269  0.7740  1.1429 -0.1526
 3673TIP3    H232511   5.037   0.398   3.206 -0.0848  1.4077  0.7347
 3674TIP3   OH232512   4.583   1.009  13.180 -0.5200  0.7385 -0.1874
 3674TIP3    H132513   4.565   1.012  13.274 -0.1442  0.1622 -0.0884
 3674TIP3    H232514   4.561   1.096  13.148  1.3778  1.6583  0.8146
 3675TIP3   OH232515   0.327   1.671   3.550  0.3020  0.1553 -0.4003
 3675TIP3    H132516   0.319   1.733   3.477 -1.6507  1.1279  0.5734
 3675TIP3    H232517   0.261   1.604   3.532  0.8327 -0.4145 -0.2580
 3676TIP3   OH232518   5.940   2.808  14.493  0.0823  0.0358 -0.3104
 3676TIP3    H132519   5.999   2.745  14.452  0.6565  0.7757 -0.6451
 3676TIP3    H232520   5.853   2.767  14.487  0.2436 -0.1562 -1.7151
 3677TIP3   OH232521   6.621   5.649  16.479  0.4030 -0.6053 -0.0371
 3677TIP3    H132522   6.582   5.732  16.506  0.6340 -1.2361  2.5606
 3677TIP3    H232523   6.715   5.668  16.470  0.6965 -0.8155  2.0211
 3678TIP3   OH232524   1.717   4.154  14.180  0.0941 -0.0846 -0.0440
 3678TIP3    H132525   1.691   4.063  14.185  1.5652 -0.7589 -2.5391
 3678TIP3    H232526   1.793   4.161  14.237 -1.6268  0.3484  2.3219
 3679TIP3   OH232527   3.532   2.571  13.509 -0.1011  0.1939  0.6179
 3679TIP3    H132528   3.496   2.619  13.584  1.5603  0.5649  1.2125
 3679TIP3    H232529   3.501   2.481  13.523  0.1192  0.2686  1.7219
 3680TIP3   OH232530   2.874   3.586   4.387 -0.1432 -0.1702  0.1176
 3680TIP3    H132531   2.948   3.544   4.430  0.9521 -0.0693 -1.5435
 3680TIP3    H232532   2.843   3.521   4.324 -0.5241  0.3233 -0.2120
 3681TIP3   OH232533   3.113   6.664   5.506  0.0517  0.1855 -0.3194
 3681TIP3    H132534   3.092   6.647   5.414  1.4345 -0.5402 -0.5130
 3681TIP3    H232535   3.115   6.760   5.513 -1.2278  0.2664 -0.7456
 3682TIP3   OH232536   2.446   3.393   5.043  0.3900 -0.6773 -0.3546
 3682TIP3    H132537   2.419   3.419   4.955 -2.5473 -1.8744  0.0845
 3682TIP3    H232538   2.542   3.400   5.041  0.3252  1.0780 -3.0318
 3683TIP3   OH232539   4.765   3.816  14.298  0.5635 -1.0654 -0.1865
 3683TIP3    H132540   4.685   3.764  14.291  1.3574 -2.3206 -0.1470
 3683TIP3    H232541   4.737   3.905  14.277 -0.8799 -1.4459  0.0284
 3684TIP3   OH232542   0.133   6.371   3.778  0.4798  0.7208  0.2286
 3684TIP3    H132543   0.209   6.425   3.757  0.3340  0.3811 -1.3308
 3684TIP3    H232544   0.164   6.310   3.845  1.5722  0.6321 -0.3404
 3685TIP3   OH232545   4.248   4.304   0.716 -0.6610  0.2822  0.0149
 3685TIP3    H132546   4.303   4.256   0.778 -0.9271  1.6334  1.3631
 3685TIP3    H232547   4.189   4.355   0.772 -3.4316 -1.2020 -1.3667
 3686TIP3   OH232548   2.542   6.309   1.447  0.2234 -0.6455  0.4406
 3686TIP3    H132549   2.484   6.343   1.379 -1.2398 -0.8721  1.5195
 3686TIP3    H232550   2.552   6.216   1.425  0.8444 -0.4361 -0.1923
 3687TIP3   OH232551   2.677   3.219   5.995  0.4843 -0.3515  0.2406
 3687TIP3    H132552   2.705   3.283   6.061  0.1917 -0.3139  0.3284
 3687TIP3    H232553   2.754   3.208   5.938  0.1266  1.0980 -0.5847
 3688TIP3   OH232554   1.889   1.565  14.959 -0.4773 -0.5084 -0.2587
 3688TIP3    H132555   1.920   1.482  14.996 -0.1571  0.6876  2.3351
 3688TIP3    H232556   1.796   1.568  14.980 -0.7695 -0.7281 -1.4483
 3689TIP3   OH232557   4.403   4.828  14.129 -0.4324  0.8556  0.2988
 3689TIP3    H132558   4.498   4.835  14.128 -0.2852 -0.0490 -2.7887
 3689TIP3    H232559   4.373   4.909  14.169  1.6071  1.8800 -0.1207
 3690TIP3   OH232560   0.021   6.072   4.949  0.6194 -0.3491  0.3735
 3690TIP3    H132561   0.022   6.167   4.958 -0.3930 -0.2672 -0.2629
 3690TIP3    H232562   0.102   6.043   4.992  0.6658  0.7460  1.0667
 3691TIP3   OH232563   6.110   0.063  11.124 -0.3439 -0.1307 -0.3369
 3691TIP3    H132564   6.151  -0.022  11.134  0.6521  0.4976  1.2284
 3691TIP3    H232565   6.164   0.109  11.059 -0.4950 -0.4408 -0.6854
 3692TIP3   OH232566   0.343   3.789   0.955 -0.7128  0.5091 -0.7111
 3692TIP3    H132567   0.344   3.737   1.035  1.9987  0.2973 -0.7766
 3692TIP3    H232568   0.299   3.734   0.891 -2.1619  0.3286  0.3965
 3693TIP3   OH232569   5.388   4.813  16.503  0.3986 -0.3373  0.2856
 3693TIP3    H132570   5.311   4.851  16.546 -0.1426  0.1827 -1.0949
 3693TIP3    H232571   5.378   4.719  16.515 -0.1100 -0.2392  0.6792
 3694TIP3   OH232572   6.683   6.364  15.325  0.4757  0.6013 -0.2840
 3694TIP3    H132573   6.697   6.458  15.317 -2.7214  1.2336  0.2264
 3694TIP3    H232574   6.638   6.340  15.244 -0.1930 -0.1312  0.2931
 3695TIP3   OH232575   0.513   2.872  10.573  0.1428 -0.3187  0.8392
 3695TIP3    H132576   0.426   2.836  10.587 -0.2612 -0.5507 -1.6648
 3695TIP3    H232577   0.567   2.796  10.550 -0.3425  0.2543 -2.8938
 3696TIP3   OH232578   1.419   3.530   6.121  0.0101 -0.6003  0.2993
 3696TIP3    H132579   1.493   3.588   6.135 -1.4079  1.0633  1.2470
 3696TIP3    H232580   1.416   3.475   6.199 -0.1810 -0.1565  0.6094
 3697TIP3   OH232581   5.696   6.486  13.763  0.0812 -0.2066  0.3904
 3697TIP3    H132582   5.679   6.505  13.671 -0.2601  2.1090  0.8546
 3697TIP3    H232583   5.616   6.444  13.795 -1.2014  2.0484  0.3564
 3698TIP3   OH232584   2.178   1.979   4.091  0.4552  0.0760  0.1292
 3698TIP3    H132585   2.244   2.048   4.102  1.3156 -0.9451  1.8518
 3698TIP3    H232586   2.224   1.899   4.115 -0.9737 -0.8860 -0.2784
 3699TIP3   OH232587   0.256   3.502   4.119 -0.4256  0.1424 -0.7986
 3699TIP3    H132588   0.268   3.409   4.138 -0.9246  0.0041 -1.1487
 3699TIP3    H232589   0.331   3.545   4.160 -0.1681 -0.4186 -0.6794
 3700TIP3   OH232590   0.707   3.549   0.511  0.2580  0.3007 -0.0908
 3700TIP3    H132591   0.729   3.640   0.533  0.6754  0.4694 -1.1410
 3700TIP3    H232592   0.759   3.530   0.433 -0.1129 -0.7238 -0.1046
 3701TIP3   OH232593   6.787   2.452  16.776  0.2455  0.0367  0.1081
 3701TIP3    H132594   6.719   2.390  16.801  0.3428 -0.3856 -0.6237
 3701TIP3    H232595   6.866   2.399  16.768  0.4673  0.3661  0.0926
 3702TIP3   OH232596   1.788   2.123   4.819  0.2614  0.1359 -0.4412
 3702TIP3    H132597   1.768   2.204   4.773  0.0494 -0.2977 -1.1235
 3702TIP3    H232598   1.816   2.063   4.750  0.0036 -0.5016  0.0055
 3703TIP3   OH232599   6.234   3.698   3.592 -0.5406 -0.3323  0.0015
 3703TIP3    H132600   6.316   3.728   3.554  0.0584 -1.3559  0.4416
 3703TIP3    H232601   6.260   3.626   3.650 -1.4686  0.8344  1.9417
 3704TIP3   OH232602   5.316   5.594  14.747  0.2877  0.0042  0.1212
 3704TIP3    H132603   5.390   5.639  14.706  0.8290  0.6060  1.6772
 3704TIP3    H232604   5.286   5.532  14.681  1.9445  0.0089 -0.6898
 3705TIP3   OH232605   4.353   3.023  14.368 -0.1845  0.3007  0.3633
 3705TIP3    H132606   4.276   3.028  14.312  0.1196  0.5966 -0.0264
 3705TIP3    H232607   4.418   2.977  14.316  0.4539  1.5226  0.0571
 3706TIP3   OH232608   4.408   5.629  13.860  0.2017 -0.8005  0.1586
 3706TIP3    H132609   4.378   5.610  13.771  0.9023  0.4647 -0.3710
 3706TIP3    H232610   4.488   5.680  13.849  0.8338 -1.4202  1.5309
 3707TIP3   OH232611   2.205   0.908   2.010  0.2495  0.3866 -0.5400
 3707TIP3    H132612   2.293   0.907   1.973  0.6419  0.5784  0.3587
 3707TIP3    H232613   2.192   0.999   2.038 -1.2873  1.0333 -3.0643
 3708TIP3   OH232614   3.711   1.210  14.951  0.3131  0.2471 -0.0985
 3708TIP3    H132615   3.743   1.301  14.956  1.1971  0.1734 -2.5931
 3708TIP3    H232616   3.616   1.218  14.957  0.3762  1.3643 -0.2509
 3709TIP3   OH232617   4.743   3.813   0.708  0.5356 -0.1944 -0.3883
 3709TIP3    H132618   4.739   3.837   0.615 -1.2106 -1.1233 -0.5924
 3709TIP3    H232619   4.737   3.896   0.754 -0.7979  0.1450 -1.1123
 3710TIP3   OH232620   3.132   5.975  15.855  0.1231 -0.6312 -0.1080
 3710TIP3    H132621   3.208   5.947  15.905  0.2655  3.7867  2.7077
 3710TIP3    H232622   3.165   6.042  15.795 -1.1233 -1.0057 -1.2875
 3711TIP3   OH232623   2.108   1.627   5.121  0.2736  0.5021  0.3340
 3711TIP3    H132624   2.079   1.595   5.207  2.6004  0.8151  1.3206
 3711TIP3    H232625   2.191   1.670   5.139  2.5847 -2.2621 -2.5227
 3712TIP3   OH232626   5.702   5.753   0.731 -0.3064  0.3691 -0.1369
 3712TIP3    H132627   5.714   5.693   0.657  1.3901 -1.2007  1.3097
 3712TIP3    H232628   5.721   5.700   0.808 -1.6253  2.0544  1.4391
 3713TIP3   OH232629   3.398   6.180   4.822  0.2152  0.3083 -0.0442
 3713TIP3    H132630   3.446   6.228   4.756  0.8593  1.3649  1.1559
 3713TIP3    H232631   3.456   6.107   4.846  0.5465  0.6728  0.2737
 3714TIP3   OH232632   4.423   0.126  13.803 -0.2356  0.4050  0.0333
 3714TIP3    H132633   4.345   0.167  13.841 -0.9441 -2.5577  2.1216
 3714TIP3    H232634   4.490   0.136  13.870  0.0626 -0.3638 -0.1472
 3715TIP3   OH232635   0.954   6.706   0.208 -0.2139  0.2272 -0.5404
 3715TIP3    H132636   0.878   6.745   0.251  0.5041  0.5947  0.4480
 3715TIP3    H232637   1.012   6.780   0.191  0.5259 -0.2112  0.0094
 3716TIP3   OH232638   6.031   1.458  15.298 -0.4771  0.2276  0.3559
 3716TIP3    H132639   6.003   1.372  15.266 -1.9228  0.4599  0.9280
 3716TIP3    H232640   6.125   1.462  15.278 -1.1183  0.1570 -3.3814
 3717TIP3   OH232641   4.943   2.804   4.221  0.5251  0.7172 -0.9617
 3717TIP3    H132642   4.973   2.717   4.195 -2.3021 -0.1527 -1.6922
 3717TIP3    H232643   4.896   2.789   4.303 -0.7183  1.3873 -1.5376
 3718TIP3   OH232644   4.226   4.761   1.851 -0.3572 -0.4095  0.6057
 3718TIP3    H132645   4.239   4.795   1.763 -0.5949  1.4394  1.2310
 3718TIP3    H232646   4.305   4.710   1.869 -0.7353 -1.6316 -1.0013
 3719TIP3   OH232647   2.301   3.940  14.472 -0.7076  0.4417 -0.2006
 3719TIP3    H132648   2.340   3.865  14.516  0.1245  0.8336 -0.2388
 3719TIP3    H232649   2.324   3.928  14.380  0.4960  1.3377 -0.0512
 3720TIP3   OH232650   4.779   1.955   1.104 -0.1166  0.1627  0.5219
 3720TIP3    H132651   4.846   1.889   1.086 -1.0448  0.0702 -3.4564
 3720TIP3    H232652   4.826   2.038   1.106  0.3638 -0.0911 -0.1456
 3721TIP3   OH232653   1.978   1.951   6.006 -0.2551  0.1085  0.4079
 3721TIP3    H132654   2.026   1.879   6.048  0.1968  0.1520 -0.0336
 3721TIP3    H232655   1.983   2.022   6.070 -1.5142 -0.5279  1.2675
 3722TIP3   OH232656   4.020   3.470   1.298  0.5004 -0.2927  0.2434
 3722TIP3    H132657   4.004   3.384   1.337  0.2044  0.2865  1.4401
 3722TIP3    H232658   3.935   3.515   1.304  0.8135  0.3078  0.2145
 3723TIP3   OH232659   2.032   6.413   2.283 -0.1620 -0.4822  0.7368
 3723TIP3    H132660   2.032   6.482   2.349 -0.0752 -0.7979  1.0689
 3723TIP3    H232661   2.116   6.368   2.293  0.9343  0.9954 -1.2232
 3724TIP3   OH232662   2.718   5.705   1.129 -0.4328  0.5808 -0.3107
 3724TIP3    H132663   2.708   5.714   1.035 -1.3275  0.6190 -0.2225
 3724TIP3    H232664   2.687   5.617   1.149 -1.1580  0.9030  0.0535
 3725TIP3   OH232665   0.559   2.571  12.732 -0.0340 -0.1665  0.4003
 3725TIP3    H132666   0.500   2.638  12.697 -0.9075 -0.6817  0.8541
 3725TIP3    H232667   0.592   2.525  12.655 -0.4088 -0.0247  0.1526
 3726TIP3   OH232668   0.372   1.898   1.486 -0.3682 -0.1879 -0.0071
 3726TIP3    H132669   0.347   1.958   1.556  2.1816 -1.1277  1.8753
 3726TIP3    H232670   0.331   1.934   1.408 -2.8398  1.2697  1.8167
 3727TIP3   OH232671   5.789   0.319   0.211 -0.3896 -0.2493 -0.1258
 3727TIP3    H132672   5.708   0.347   0.254 -0.0673 -0.9006  0.9700
 3727TIP3    H232673   5.787   0.224   0.218 -0.0056 -0.3240 -1.0012
 3728TIP3   OH232674   0.501   0.945   1.737 -0.2520  0.2547 -0.4078
 3728TIP3    H132675   0.430   0.887   1.708 -2.3588  1.4683  1.9787
 3728TIP3    H232676   0.508   0.929   1.831  1.1586  1.7437 -0.2195
 3729TIP3   OH232677   1.285   0.156   4.829 -0.3993 -0.0971 -0.0437
 3729TIP3    H132678   1.262   0.215   4.901  0.5502 -1.1792  1.2092
 3729TIP3    H232679   1.209   0.157   4.771 -0.7223  1.7027  0.3608
 3730TIP3   OH232680   2.675   5.114  17.104  0.1354 -0.0338  0.0951
 3730TIP3    H132681   2.625   5.179  17.153  3.3331  1.6389  1.4531
 3730TIP3    H232682   2.722   5.165  17.037  3.0220 -0.6953  1.4441
 3731TIP3   OH232683   6.035   5.629   5.013  0.0397 -0.1468 -0.1902
 3731TIP3    H132684   6.028   5.702   5.074 -0.2713  0.6770 -1.1771
 3731TIP3    H232685   5.948   5.590   5.011  0.0023 -0.0631 -0.2253
 3732TIP3   OH232686   3.892   3.242   3.780  0.0549 -0.0378  0.0687
 3732TIP3    H132687   3.810   3.206   3.747 -0.3126 -0.8076  1.7430
 3732TIP3    H232688   3.930   3.172   3.834  1.7693  0.3399 -0.5862
 3733TIP3   OH232689   3.944   1.151  16.751 -0.0820 -0.5943 -0.4136
 3733TIP3    H132690   3.884   1.174  16.822 -0.0065 -1.0556 -0.2050
 3733TIP3    H232691   3.887   1.142  16.674 -0.3199 -1.3458 -0.1480
 3734TIP3   OH232692   0.839   2.423   3.977  0.0125 -0.4436 -0.4340
 3734TIP3    H132693   0.797   2.386   4.054 -2.0615  0.2899 -1.1522
 3734TIP3    H232694   0.788   2.390   3.903  0.4632  0.7843 -1.3403
 3735TIP3   OH232695   4.061   4.761  16.774  0.6696  0.1269 -0.4255
 3735TIP3    H132696   4.119   4.832  16.746  2.1174 -0.0523  1.8327
 3735TIP3    H232697   4.044   4.780  16.866 -2.0079 -0.4618 -0.7358
 3736TIP3   OH232698   0.600   6.300  14.352  0.4358  0.3559 -0.0241
 3736TIP3    H132699   0.651   6.222  14.374  0.0364  0.3839  1.0334
 3736TIP3    H232700   0.552   6.275  14.273  1.8118  0.2148 -0.8412
 3737TIP3   OH232701   4.378   3.553   6.120 -0.0493 -0.6992 -0.4208
 3737TIP3    H132702   4.454   3.606   6.145 -0.5273 -0.4297  0.5084
 3737TIP3    H232703   4.409   3.500   6.047  0.5284  0.6755 -1.2129
 3738TIP3   OH232704   5.552   0.208   6.218  0.3670  0.3383 -0.6703
 3738TIP3    H132705   5.529   0.248   6.302  2.5990 -1.0321  0.6776
 3738TIP3    H232706   5.647   0.220   6.211  0.2701  0.2360 -2.9348
 3739TIP3   OH232707   3.282   4.343  11.288  0.4471 -0.6019  0.0720
 3739TIP3    H132708   3.310   4.339  11.196  0.4046 -1.0449  0.0745
 3739TIP3    H232709   3.251   4.433  11.300  2.1434  0.0091  0.1467
 3740TIP3   OH232710   2.758   0.810   0.642 -0.2348  0.0507 -0.1245
 3740TIP3    H132711   2.688   0.745   0.632  0.3545 -0.6828  0.4408
 3740TIP3    H232712   2.828   0.763   0.687  0.4700  0.8925 -0.3284
 3741TIP3   OH232713   1.246   0.344  13.323  0.0678 -0.3213 -0.0073
 3741TIP3    H132714   1.173   0.396  13.356  0.3189 -0.8370  1.4250
 3741TIP3    H232715   1.298   0.323  13.400  0.1896 -2.3711 -0.5767
 3742TIP3   OH232716   2.210   0.353  17.187  0.1962 -0.0854 -0.0846
 3742TIP3    H132717   2.173   0.268  17.211 -1.0867  0.2752 -0.6936
 3742TIP3    H232718   2.212   0.352  17.091 -0.9472  0.9917 -0.1546
 3743TIP3   OH232719   4.059   1.004  16.137 -0.2276  0.0996  0.3651
 3743TIP3    H132720   4.022   1.092  16.144 -1.9528 -0.5781  0.3495
 3743TIP3    H232721   4.053   0.968  16.226 -1.9697 -0.8907 -0.1133
 3744TIP3   OH232722   1.543   1.090   2.806 -0.0552 -0.2311 -0.0841
 3744TIP3    H132723   1.597   1.136   2.870 -0.6132  0.4480 -0.0820
 3744TIP3    H232724   1.506   1.016   2.854  0.5674 -0.4802  0.0139
 3745TIP3   OH232725   5.264   4.731  10.690  0.0038 -0.1253 -0.0636
 3745TIP3    H132726   5.179   4.773  10.704  0.5253  1.2008 -0.6792
 3745TIP3    H232727   5.325   4.783  10.742  0.6550 -0.1550 -0.7812
 3746TIP3   OH232728   6.075   5.933  12.431  0.5489  0.8742 -0.0575
 3746TIP3    H132729   6.162   5.920  12.470  1.4899  0.7717 -2.0387
 3746TIP3    H232730   6.085   5.901  12.341 -1.5969  0.7557 -0.2875
 3747TIP3   OH232731   5.342   6.012   0.246  0.0407 -0.2960  0.0197
 3747TIP3    H132732   5.410   6.069   0.283  0.0982  0.0889 -0.6495
 3747TIP3    H232733   5.281   5.997   0.318  0.0765  0.5386  0.2349
 3748TIP3   OH232734   0.557   2.574  16.262 -0.1734 -0.2970 -0.3354
 3748TIP3    H132735   0.473   2.533  16.243  0.1777 -1.1450 -0.0821
 3748TIP3    H232736   0.542   2.625  16.342  0.0191 -1.9433  0.7820
 3749TIP3   OH232737   3.953   6.738  12.866  0.1941  0.2231 -0.4485
 3749TIP3    H132738   3.898   6.679  12.918  0.0883  0.8965  0.2155
 3749TIP3    H232739   3.996   6.680  12.803 -0.1249 -0.5284  0.0017
 3750TIP3   OH232740   1.956   5.963  13.172  0.5297  0.0421  0.3324
 3750TIP3    H132741   2.017   5.927  13.107 -1.2658 -0.4970 -1.1557
 3750TIP3    H232742   1.977   6.056  13.176  2.0587 -0.2941  0.5720
 3751TIP3   OH232743   6.591   5.603   3.801 -0.1709 -0.8280  0.0012
 3751TIP3    H132744   6.549   5.638   3.879 -2.3191  0.1730 -1.4856
 3751TIP3    H232745   6.669   5.658   3.788 -2.0484  1.8730 -0.8100
 3752TIP3   OH232746   6.332   0.983  13.050 -0.1043 -0.3953 -0.1057
 3752TIP3    H132747   6.365   0.957  12.964  0.3181 -0.7911  0.1686
 3752TIP3    H232748   6.408   0.975  13.107 -0.1799  0.6426  0.1542
 3753TIP3   OH232749   3.732   5.242  14.061 -0.3412  0.2039  0.1209
 3753TIP3    H132750   3.743   5.187  14.139  0.8710  0.5387  0.1969
 3753TIP3    H232751   3.690   5.184  13.997  0.6189 -0.7312  0.3101
 3754TIP3   OH232752   6.619   6.804   3.175  0.4965  0.6898 -0.3571
 3754TIP3    H132753   6.599   6.883   3.126  1.3088  0.6591 -0.7592
 3754TIP3    H232754   6.605   6.828   3.267 -0.7943  0.8181 -0.5745
 3755TIP3   OH232755   6.779   1.045  14.492  0.1820 -0.1129 -0.0750
 3755TIP3    H132756   6.700   1.024  14.442 -0.9954  0.3282  1.5300
 3755TIP3    H232757   6.817   0.960  14.514 -0.5576 -0.3649  0.2346
 3756TIP3   OH232758   2.897   4.324   3.412 -0.5682 -0.2126  0.3345
 3756TIP3    H132759   2.894   4.240   3.458 -0.8344  0.0798  0.8535
 3756TIP3    H232760   2.813   4.330   3.367 -0.6066 -0.1540  0.4149
 3757TIP3   OH232761   6.402   4.486   0.463 -0.0384 -0.0980  0.3470
 3757TIP3    H132762   6.369   4.521   0.545  0.9403 -0.1937  0.7977
 3757TIP3    H232763   6.370   4.396   0.460 -0.0012 -0.1224  0.6669
 3758TIP3   OH232764   4.799   2.790   3.182 -0.3526  0.2490 -0.3306
 3758TIP3    H132765   4.745   2.845   3.240 -0.8331  0.0583 -0.5882
 3758TIP3    H232766   4.859   2.745   3.241  0.0082  1.0039 -0.1068
 3759TIP3   OH232767   6.665   3.516   0.277 -0.4623 -0.1026 -0.2062
 3759TIP3    H132768   6.737   3.502   0.215  1.6050  2.0162  1.5182
 3759TIP3    H232769   6.659   3.433   0.326 -0.8118 -1.1024 -1.8715
 3760TIP3   OH232770   1.464   1.854  13.068 -0.3532 -0.1668  0.5735
 3760TIP3    H132771   1.417   1.822  13.145  1.5915  0.0641  1.9147
 3760TIP3    H232772   1.460   1.781  13.006  0.8829 -1.6919  2.1847
 3761TIP3   OH232773   5.591   0.142   2.882  0.0797 -0.2275  0.0396
 3761TIP3    H132774   5.508   0.181   2.908 -0.6094 -0.4819 -1.6991
 3761TIP3    H232775   5.575   0.105   2.796  1.6256 -1.4919  0.2436
 3762TIP3   OH232776   2.482   3.500   1.627  0.1085 -0.8761  0.0743
 3762TIP3    H132777   2.396   3.462   1.609  0.4528 -1.4884 -0.2765
 3762TIP3    H232778   2.545   3.436   1.595  0.7156  0.5912 -1.8825
 3763TIP3   OH232779   3.390   1.176  14.592 -0.0245 -0.0607  0.2170
 3763TIP3    H132780   3.454   1.106  14.603  0.0390 -0.1140 -0.4186
 3763TIP3    H232781   3.350   1.158  14.506 -0.0423  0.6467  0.0689
 3764TIP3   OH232782   4.899   5.863  14.755 -0.1077  0.3420 -0.5836
 3764TIP3    H132783   4.920   5.956  14.752  0.0488  0.2979 -0.9511
 3764TIP3    H232784   4.963   5.826  14.816 -0.6123  0.5837  0.1013
 3765TIP3   OH232785   2.346   2.201   1.178 -0.3113  0.0890 -0.2810
 3765TIP3    H132786   2.389   2.137   1.235  2.4413  0.9196 -1.2465
 3765TIP3    H232787   2.253   2.179   1.183 -0.0883 -0.7657  3.3641
 3766TIP3   OH232788   5.785   5.921  13.577  0.3615 -0.0325 -0.2299
 3766TIP3    H132789   5.847   5.987  13.547  1.3814 -1.5263 -1.5918
 3766TIP3    H232790   5.821   5.888  13.659 -0.3824  1.3310  0.6963
 3767TIP3   OH232791   1.920   3.710   2.501  0.0053 -0.0130 -0.0556
 3767TIP3    H132792   1.841   3.720   2.448  0.0643 -2.3803 -0.7072
 3767TIP3    H232793   1.888   3.708   2.591 -0.6067 -0.2741 -0.2734
 3768TIP3   OH232794   1.308   6.409   0.147 -0.2257 -0.3831 -0.4012
 3768TIP3    H132795   1.268   6.442   0.066 -2.2188  0.3580  0.8139
 3768TIP3    H232796   1.396   6.447   0.147 -0.2389 -0.2491 -2.1156
 3769TIP3   OH232797   4.306   3.337   3.272 -0.2567 -0.4034 -0.4180
 3769TIP3    H132798   4.217   3.354   3.300 -0.0232 -1.0896  0.7802
 3769TIP3    H232799   4.361   3.387   3.332  0.1930 -0.4327 -0.7919
 3770TIP3   OH232800   0.855   1.703   3.986  0.1339 -0.8716  0.0580
 3770TIP3    H132801   0.787   1.676   3.924  0.0845  1.3811 -0.9423
 3770TIP3    H232802   0.926   1.641   3.972 -0.2769 -1.0135 -1.5400
 3771TIP3   OH232803   4.573   3.856  15.290 -0.1724  0.5391 -0.0588
 3771TIP3    H132804   4.608   3.920  15.228 -0.0575  0.1743 -0.3694
 3771TIP3    H232805   4.500   3.814  15.244  0.2350 -0.0890 -0.1342
 3772TIP3   OH232806   3.477   5.061  12.434 -0.0442 -0.0062 -0.0137
 3772TIP3    H132807   3.417   4.988  12.450 -2.2553  1.3014 -1.7631
 3772TIP3    H232808   3.549   5.022  12.384 -1.5965 -0.9047 -1.6616
 3773TIP3   OH232809   0.510   2.175   0.467  0.1725  0.0539  0.0617
 3773TIP3    H132810   0.513   2.203   0.559  2.2775 -1.1301  0.4162
 3773TIP3    H232811   0.527   2.255   0.417 -0.6930  0.6523  0.6923
 3774TIP3   OH232812   1.745   1.531   5.083 -0.4325 -0.2631  0.6135
 3774TIP3    H132813   1.770   1.441   5.062  2.0470  0.6152 -0.6167
 3774TIP3    H232814   1.667   1.548   5.030 -1.5136 -1.9503  1.6008
 3775TIP3   OH232815   4.677   2.526  13.598 -0.3966  0.1635  0.1002
 3775TIP3    H132816   4.769   2.501  13.606 -0.3358  0.4673  0.4054
 3775TIP3    H232817   4.670   2.607  13.650 -0.9109 -0.0511  0.3740
 3776TIP3   OH232818   4.651   4.147   4.772  0.0187  0.1321 -0.3042
 3776TIP3    H132819   4.633   4.130   4.865  0.5128  1.3991  0.0359
 3776TIP3    H232820   4.676   4.061   4.737  1.9065 -0.0084  1.2116
 3777TIP3   OH232821   1.496   4.661   4.909  0.9672  0.7800  0.8781
 3777TIP3    H132822   1.502   4.566   4.915  2.4002  0.7754 -0.2228
 3777TIP3    H232823   1.453   4.676   4.825 -0.1545  1.1115  1.4925
 3778TIP3   OH232824   1.841   0.222   2.309 -0.3616  0.2349 -0.8320
 3778TIP3    H132825   1.773   0.208   2.243  0.0806  0.2479 -1.2967
 3778TIP3    H232826   1.921   0.189   2.268  0.2605  1.8576 -1.0166
 3779TIP3   OH232827   5.378   4.330   0.854  0.2632  0.5833 -0.0913
 3779TIP3    H132828   5.362   4.411   0.806  1.1599  1.1146  0.4848
 3779TIP3    H232829   5.291   4.292   0.866 -0.2611  1.8697  0.3560
 3780TIP3   OH232830   3.140   6.267   4.814  0.1684 -0.0976 -0.0604
 3780TIP3    H132831   3.232   6.258   4.838  0.1581 -0.5539 -0.1792
 3780TIP3    H232832   3.142   6.299   4.724  0.2075  0.3196  0.0857
 3781TIP3   OH232833   2.592   5.688   1.479 -0.3076  0.3076  0.3403
 3781TIP3    H132834   2.534   5.764   1.474 -1.0095 -0.2987 -2.4553
 3781TIP3    H232835   2.534   5.616   1.504 -0.3586  0.1057 -0.3286
 3782TIP3   OH232836   0.538   3.251   4.654  0.2730 -0.1740  0.7120
 3782TIP3    H132837   0.576   3.334   4.623  2.2750 -0.7217  1.5541
 3782TIP3    H232838   0.559   3.188   4.586 -0.1316 -0.2508  0.6585
 3783TIP3   OH232839   2.574   3.427   6.361  0.4441  0.4431  0.1755
 3783TIP3    H132840   2.571   3.518   6.392 -0.4459  1.0485 -1.5487
 3783TIP3    H232841   2.566   3.434   6.266  2.3205 -1.3606 -0.1785
 3784TIP3   OH232842   5.482   6.255  13.308  0.6631  0.0092 -0.0862
 3784TIP3    H132843   5.445   6.194  13.243 -1.2125  0.2583  0.6886
 3784TIP3    H232844   5.576   6.255  13.290  0.7589 -3.1264 -0.1237
 3785TIP3   OH232845   2.776   1.492   3.184 -0.2799 -0.0564  0.2230
 3785TIP3    H132846   2.703   1.554   3.178  0.9091  1.3150 -0.9427
 3785TIP3    H232847   2.742   1.412   3.144 -1.6205  0.0330  1.1140
 3786TIP3   OH232848   2.067   3.411  16.391  0.1921  0.0895 -0.2006
 3786TIP3    H132849   1.998   3.353  16.424 -0.2494  0.4302 -0.5078
 3786TIP3    H232850   2.085   3.471  16.463  0.1860 -0.0145 -0.1122
 3787TIP3   OH232851   1.078   5.702  10.468 -0.2706 -0.1470  0.1652
 3787TIP3    H132852   1.061   5.660  10.384 -0.3082 -0.8630  0.5214
 3787TIP3    H232853   1.137   5.774  10.447 -3.0379  1.9503 -0.9830
 3788TIP3   OH232854   1.716   0.861  16.069 -0.0734 -0.3953  0.5434
 3788TIP3    H132855   1.686   0.788  16.123  1.3578 -0.6512  1.0367
 3788TIP3    H232856   1.740   0.929  16.132  0.6085 -0.2972  0.1885
 3789TIP3   OH232857   0.299   4.077  14.097 -0.2753 -0.4840  0.2747
 3789TIP3    H132858   0.353   4.100  14.022 -0.0339 -1.3992  0.1470
 3789TIP3    H232859   0.287   3.982  14.090  1.0560 -0.8602  2.2230
 3790TIP3   OH232860   1.355   0.936  11.908  0.4415  0.8236 -0.1415
 3790TIP3    H132861   1.266   0.912  11.935  0.5424  1.1475  0.4818
 3790TIP3    H232862   1.344   1.013  11.853  0.4266  1.6095  0.9319
 3791TIP3   OH232863   5.906   0.698   2.352 -0.2312 -0.2280  0.4541
 3791TIP3    H132864   5.940   0.768   2.408  1.2111 -0.0150 -0.6129
 3791TIP3    H232865   5.849   0.647   2.409 -0.6369  1.3073  1.4900
 3792TIP3   OH232866   3.161   4.634   1.503  0.2026  0.0210  0.2028
 3792TIP3    H132867   3.197   4.575   1.569 -0.1056 -1.6798 -1.0731
 3792TIP3    H232868   3.096   4.686   1.549  0.2889 -0.8346  1.3227
 3793TIP3   OH232869   2.302   0.963  13.402 -0.8019  0.3449  0.2886
 3793TIP3    H132870   2.250   0.885  13.387 -2.3190  1.5926 -1.5265
 3793TIP3    H232871   2.361   0.966  13.326 -0.3454  0.6423  0.6538
 3794TIP3   OH232872   0.204   4.276  14.555 -0.5342 -0.4161 -0.2580
 3794TIP3    H132873   0.192   4.279  14.460 -1.1633 -0.1904 -0.1743
 3794TIP3    H232874   0.243   4.360  14.577 -1.1146 -0.1524 -0.2222
 3795TIP3   OH232875   2.560   4.703   3.891 -0.5488 -0.4032  0.2906
 3795TIP3    H132876   2.492   4.637   3.888 -0.9243 -0.0121  0.1885
 3795TIP3    H232877   2.588   4.714   3.800 -0.4280 -0.4818  0.3177
 3796TIP3   OH232878   5.391   4.269  13.881 -0.5608  0.0849  0.1515
 3796TIP3    H132879   5.441   4.249  13.802  1.1446  0.0214  1.2047
 3796TIP3    H232880   5.300   4.254  13.856  0.0307 -1.0865 -1.4475
 3797TIP3   OH232881   4.558   1.389   5.276  0.4517 -0.5707 -0.2270
 3797TIP3    H132882   4.651   1.397   5.252  1.0353 -0.2687  1.9263
 3797TIP3    H232883   4.518   1.469   5.241  1.1731 -0.2852 -0.4378
 3798TIP3   OH232884   1.542   6.525   6.565 -0.2892 -0.3444  0.1680
 3798TIP3    H132885   1.524   6.601   6.621  1.0228 -0.1575  0.3701
 3798TIP3    H232886   1.474   6.528   6.498  0.1398  1.4316 -0.2356
 3799TIP3   OH232887   0.420   3.304  12.479 -0.5595 -0.7167  0.5417
 3799TIP3    H132888   0.358   3.374  12.455 -1.7096 -1.5408  1.0065
 3799TIP3    H232889   0.487   3.348  12.530 -1.0566  0.1198  0.4936
 3800TIP3   OH232890   3.300   1.453  17.258  0.1782  0.3499  0.5299
 3800TIP3    H132891   3.256   1.369  17.248  0.8180  0.0197  0.4608
 3800TIP3    H232892   3.241   1.516  17.217  0.1547 -0.2077 -0.3096
 3801TIP3   OH232893   1.374   1.969  11.416  0.2478 -0.1280 -0.0732
 3801TIP3    H132894   1.285   1.959  11.450  0.3137  0.8147  0.4054
 3801TIP3    H232895   1.424   2.002  11.490  1.0040 -0.6795 -0.3351
 3802TIP3   OH232896   0.048   6.597   0.177 -0.0318  0.3860 -0.0464
 3802TIP3    H132897   0.003   6.629   0.099  2.7737  1.6638 -1.2857
 3802TIP3    H232898   0.050   6.502   0.167  0.1283  0.5266 -1.4534
 3803TIP3   OH232899   4.800   2.946  14.280  0.3053  0.3610 -0.1552
 3803TIP3    H132900   4.745   2.878  14.241  1.3482 -0.1621 -0.7552
 3803TIP3    H232901   4.884   2.903  14.295  0.9009  1.4413 -0.3021
 3804TIP3   OH232902   0.382   6.220  14.511  0.1694 -0.3515 -0.1766
 3804TIP3    H132903   0.443   6.270  14.456 -0.2144  0.5558  0.1936
 3804TIP3    H232904   0.307   6.203  14.454 -0.3918  0.9132  0.1309
 3805TIP3   OH232905   1.639   4.995  15.730  0.1143  0.4522  0.1542
 3805TIP3    H132906   1.651   4.954  15.645  0.4078  0.8391  0.0055
 3805TIP3    H232907   1.545   4.993  15.745  0.1848 -1.1276  0.5794
 3806TIP3   OH232908   1.257   6.046  17.101  0.0463 -0.0959  0.0141
 3806TIP3    H132909   1.254   5.982  17.172  0.8181 -0.9937 -0.7429
 3806TIP3    H232910   1.209   6.006  17.029 -2.0114  1.4207  0.4528
 3807TIP3   OH232911   0.525   5.482   0.846 -0.2995  0.0498  0.1908
 3807TIP3    H132912   0.436   5.484   0.813 -0.4555  0.7579  0.6276
 3807TIP3    H232913   0.553   5.574   0.847  0.3948 -0.1499  0.1606
 3808TIP3   OH232914   2.105   2.832   5.625 -0.3912  0.0253  0.1102
 3808TIP3    H132915   2.105   2.779   5.705  0.0392 -0.0602  0.0569
 3808TIP3    H232916   2.014   2.832   5.596 -0.5064 -0.1498  0.4655
 3809TIP3   OH232917   2.736   4.906   3.992 -0.4465  0.5197 -0.0079
 3809TIP3    H132918   2.677   4.976   3.966 -1.1304 -0.0511 -0.0103
 3809TIP3    H232919   2.696   4.826   3.957 -1.0095 -0.1846  2.1091
 3810TIP3   OH232920   3.869   6.634   3.166  0.3712  0.3062 -0.1724
 3810TIP3    H132921   3.896   6.563   3.224  0.0420  0.0602 -0.3154
 3810TIP3    H232922   3.949   6.684   3.150  0.1976  1.2125  1.6098
 3811TIP3   OH232923   0.101   3.115  16.141 -0.1810 -0.7632  0.0258
 3811TIP3    H132924   0.193   3.094  16.157 -0.3249 -0.4124  1.4488
 3811TIP3    H232925   0.064   3.128  16.228 -1.5694 -0.8318 -0.5307
 3812TIP3   OH232926   2.802   0.410  15.376  0.1710 -0.2231 -0.1395
 3812TIP3    H132927   2.866   0.415  15.447  0.4476  0.5437 -0.4383
 3812TIP3    H232928   2.791   0.500  15.347 -0.1689 -0.4965 -0.8747
 3813TIP3   OH232929   4.378   6.654   2.685  0.0985 -0.1004  0.4595
 3813TIP3    H132930   4.374   6.615   2.772 -1.5976  1.0488  0.9426
 3813TIP3    H232931   4.444   6.723   2.694 -1.1368  1.0262  1.3182
 3814TIP3   OH232932   0.810   0.075  11.003  0.1837  0.2869 -0.2403
 3814TIP3    H132933   0.880   0.046  10.945 -0.6433 -0.3235 -0.9576
 3814TIP3    H232934   0.734   0.086  10.946 -1.1423 -2.0365  0.9452
 3815TIP3   OH232935   5.364   4.758   4.429 -0.5999 -0.4821 -0.2315
 3815TIP3    H132936   5.452   4.763   4.467 -0.6899 -0.7729  0.0161
 3815TIP3    H232937   5.373   4.695   4.358 -0.9222 -1.5900  0.6813
 3816TIP3   OH232938   2.622   2.824  12.301  0.1606  0.4866  0.8257
 3816TIP3    H132939   2.574   2.754  12.344  1.6453 -0.3160  1.2479
 3816TIP3    H232940   2.693   2.780  12.255 -0.5806  1.4549 -1.3865
 3817TIP3   OH232941   5.137   2.724  12.259 -0.4473  0.0597  0.2246
 3817TIP3    H132942   5.219   2.691  12.222 -0.4757 -2.2820  1.9562
 3817TIP3    H232943   5.162   2.760  12.344 -0.9251  1.5758 -0.2449
 3818TIP3   OH232944   5.628   3.010  12.657  0.9817 -0.4302 -0.2081
 3818TIP3    H132945   5.600   2.939  12.600 -0.6246  0.0783 -0.1045
 3818TIP3    H232946   5.693   3.058  12.606  0.8382 -0.9893 -0.9321
 3819TIP3   OH232947   4.663   3.463   4.067  0.5214 -0.0084 -0.5161
 3819TIP3    H132948   4.754   3.487   4.050 -0.2012  2.4949 -1.1730
 3819TIP3    H232949   4.636   3.519   4.139  0.2120 -2.6555  1.6021
 3820TIP3   OH232950   0.382   5.166   5.584 -0.3849  0.3652 -0.0514
 3820TIP3    H132951   0.379   5.179   5.679  1.9294  0.0032  0.1191
 3820TIP3    H232952   0.450   5.226   5.554  1.5933 -2.1732 -0.9425
 3821TIP3   OH232953   2.488   3.580   0.505 -0.0442  0.5407  0.0355
 3821TIP3    H132954   2.537   3.572   0.587 -0.8402  1.7386  0.6638
 3821TIP3    H232955   2.546   3.630   0.448 -0.5407  2.1080  0.8348
 3822TIP3   OH232956   2.132   1.682  14.883  0.1564 -0.0376  0.1519
 3822TIP3    H132957   2.180   1.601  14.900 -1.3099 -0.9242  0.2474
 3822TIP3    H232958   2.048   1.669  14.928 -0.0838  1.5553  0.1998
 3823TIP3   OH232959   2.750   3.097  15.705  0.0093 -0.3653 -0.5253
 3823TIP3    H132960   2.835   3.128  15.736 -0.7984  0.5524  0.8825
 3823TIP3    H232961   2.691   3.171  15.718 -1.3831 -1.5469  0.2634
 3824TIP3   OH232962   4.283   4.178  12.229 -0.2837  0.1128 -0.4273
 3824TIP3    H132963   4.255   4.221  12.148  0.5700 -0.1936 -0.8952
 3824TIP3    H232964   4.371   4.146  12.210 -0.7184 -1.4464  0.0667
 3825TIP3   OH232965   6.068   4.250  12.036  0.0952  0.1820  0.0795
 3825TIP3    H132966   6.066   4.201  11.954  1.0305 -0.5777  0.4887
 3825TIP3    H232967   6.004   4.206  12.092  0.9752 -0.6253  0.4658
 3826TIP3   OH232968   3.648   6.216   6.376 -0.3575 -0.3396  0.0605
 3826TIP3    H132969   3.716   6.284   6.385 -0.7900  0.2029 -0.6792
 3826TIP3    H232970   3.609   6.210   6.464 -0.8044  0.9076 -0.0350
 3827TIP3   OH232971   6.713   6.132  16.980  0.0999 -0.2063  0.4023
 3827TIP3    H132972   6.745   6.042  16.991  0.0602 -0.0218  2.5253
 3827TIP3    H232973   6.793   6.185  16.978  0.0881 -0.1657  0.8244
 3828TIP3   OH232974   1.199   0.108   2.842  0.2616  0.2070 -0.2037
 3828TIP3    H132975   1.276   0.114   2.899  0.2865 -0.7032 -0.1303
 3828TIP3    H232976   1.223   0.159   2.765  1.7598 -1.7124 -1.0736
 3829TIP3   OH232977   2.975   1.285   5.347  0.1838 -0.7018  0.3878
 3829TIP3    H132978   2.913   1.338   5.298  0.7839 -1.2489 -1.0347
 3829TIP3    H232979   2.968   1.316   5.437 -0.0454  1.2307 -0.2494
 3830TIP3   OH232980   5.259   0.934  16.274  0.3584  0.1386  0.1781
 3830TIP3    H132981   5.235   0.866  16.211  1.1855  1.0246 -1.1526
 3830TIP3    H232982   5.345   0.906  16.308 -0.8106 -1.2061  2.2652
 3831TIP3   OH232983   2.521   2.422   4.330  0.0910 -0.3870  0.1067
 3831TIP3    H132984   2.486   2.428   4.419  0.7574 -1.3075  0.4462
 3831TIP3    H232985   2.562   2.508   4.315 -3.6383  1.3797 -0.9395
 3832TIP3   OH232986   4.701   2.423   5.909  0.1055 -0.0374 -0.2389
 3832TIP3    H132987   4.665   2.445   5.995  1.4626  0.3860  0.2476
 3832TIP3    H232988   4.639   2.360   5.873  0.8620 -2.4051  2.2130
 3833TIP3   OH232989   5.540   1.123  16.926  0.2631 -0.0463 -0.0772
 3833TIP3    H132990   5.569   1.042  16.969  0.1327  0.3068  0.6873
 3833TIP3    H232991   5.519   1.096  16.836  0.6382 -0.7733  0.0441
 3834TIP3   OH232992   2.829   2.358   3.340  0.1241  0.1443 -0.0966
 3834TIP3    H132993   2.771   2.353   3.263  0.7197  0.3562 -0.5689
 3834TIP3    H232994   2.842   2.267   3.366 -0.1813  0.0779 -0.1712
 3835TIP3   OH232995   5.901   0.530  10.542  0.1099  0.0051  0.1995
 3835TIP3    H132996   5.886   0.436  10.529  0.8433 -0.0808 -0.1054
 3835TIP3    H232997   5.821   0.572  10.511 -0.1229 -0.5080  0.1018
 3836TIP3   OH232998   3.186   6.482   4.281  0.0264 -0.3522 -0.4198
 3836TIP3    H132999   3.132   6.404   4.282  0.7879 -0.9077 -1.3598
 3836TIP3    H233000   3.179   6.517   4.192 -0.2557  0.6189 -0.0334
 3837TIP3   OH233001   0.937   0.164   2.532 -0.2056 -0.0150  0.6677
 3837TIP3    H133002   0.971   0.077   2.552 -0.7027  0.0079  1.6430
 3837TIP3    H233003   0.881   0.150   2.455  2.8694  0.1581 -1.8492
 3838TIP3   OH233004   2.401   5.451   2.273 -0.0103 -0.2733  0.7845
 3838TIP3    H133005   2.474   5.507   2.299  1.6147 -2.7818  2.1373
 3838TIP3    H233006   2.386   5.395   2.350 -0.7411 -2.3706 -0.7802
 3839TIP3   OH233007   6.318   4.990   6.259  0.2101  0.3873  0.7076
 3839TIP3    H133008   6.398   4.988   6.311  0.7155  0.2114 -0.0743
 3839TIP3    H233009   6.339   5.045   6.184  0.0565 -0.8327 -0.2524
 3840TIP3   OH233010   4.671   2.735  15.136  0.7586 -0.0517 -0.4800
 3840TIP3    H133011   4.766   2.726  15.151  0.7788 -0.6287 -0.9602
 3840TIP3    H233012   4.634   2.740  15.224  1.1904 -0.2943 -0.2806
 3841TIP3   OH233013   0.543   6.114  12.077  0.2064  0.5255  0.2255
 3841TIP3    H133014   0.579   6.197  12.047  2.2570  0.0130  1.0837
 3841TIP3    H233015   0.483   6.138  12.147  0.7054  1.3087  0.3977
 3842TIP3   OH233016   0.376   3.386   3.130 -0.1092 -0.2454 -0.4547
 3842TIP3    H133017   0.385   3.308   3.184 -0.4271 -1.1604 -1.6837
 3842TIP3    H233018   0.437   3.373   3.057 -1.0081  0.0868 -1.2966
 3843TIP3   OH233019   2.110   3.153  14.128 -0.0995 -0.1702 -0.7214
 3843TIP3    H133020   2.108   3.095  14.204  0.8093 -0.2345 -0.7401
 3843TIP3    H233021   2.029   3.132  14.081 -1.8805  1.4921  1.3913
 3844TIP3   OH233022   6.704   2.393  14.287 -0.4760  0.0980  0.3506
 3844TIP3    H133023   6.677   2.320  14.231  1.1635  0.2429 -0.7335
 3844TIP3    H233024   6.653   2.383  14.367  1.1437 -3.5577  1.1755
 3845TIP3   OH233025   2.756   6.272  11.667 -0.1748 -0.0057 -0.5735
 3845TIP3    H133026   2.751   6.367  11.659 -2.7095  0.1492  1.6316
 3845TIP3    H233027   2.839   6.256  11.713  0.3664  1.1049 -1.1351
 3846TIP3   OH233028   3.793   1.715  11.927 -0.0303 -0.1029  0.1969
 3846TIP3    H133029   3.826   1.803  11.947 -0.7025  0.0347  0.7225
 3846TIP3    H233030   3.864   1.675  11.877  0.7532  0.3490  0.9001
 3847TIP3   OH233031   3.245   4.686  13.703 -0.3307  0.2843 -0.5413
 3847TIP3    H133032   3.199   4.755  13.751  2.5747  1.3078  1.0672
 3847TIP3    H233033   3.316   4.732  13.658 -0.7281 -1.1953 -2.7901
 3848TIP3   OH233034   6.475   0.711  13.360 -0.1593 -0.6953 -0.5358
 3848TIP3    H133035   6.470   0.647  13.289 -1.5517 -0.2308 -0.8756
 3848TIP3    H233036   6.548   0.680  13.414 -1.3890 -3.1381 -0.1499
 3849TIP3   OH233037   4.855   2.725   2.511 -0.1174  0.2875  0.0686
 3849TIP3    H133038   4.889   2.644   2.473 -3.1375 -0.6371 -0.9827
 3849TIP3    H233039   4.888   2.794   2.454 -1.8077 -0.7830 -2.4247
 3850TIP3   OH233040   2.089   5.762  16.548  0.5965 -0.2573 -0.2877
 3850TIP3    H133041   2.106   5.842  16.499  0.3180  0.1105  0.2148
 3850TIP3    H233042   2.071   5.696  16.481  0.7143  0.1247 -0.6949
 3851TIP3   OH233043   4.301   6.608  13.866  0.3503  0.6944 -0.7122
 3851TIP3    H133044   4.381   6.580  13.911 -0.6920 -0.0459  0.7732
 3851TIP3    H233045   4.290   6.700  13.890  0.9895  0.9355 -1.3124
 3852TIP3   OH233046   0.188   0.741   3.350 -0.0469 -0.2545  0.1981
 3852TIP3    H133047   0.236   0.777   3.275  0.0733 -1.8077 -0.5121
 3852TIP3    H233048   0.128   0.677   3.311 -0.2007 -0.8667  1.4031
 3853TIP3   OH233049   3.104   5.698   4.746 -0.6700 -0.0606  0.0052
 3853TIP3    H133050   3.125   5.770   4.805 -0.4849 -0.2163  0.1297
 3853TIP3    H233051   3.011   5.711   4.724 -0.7913 -0.1147  0.4843
 3854TIP3   OH233052   0.985   5.838  10.684  0.7709 -0.0024  0.0329
 3854TIP3    H133053   1.022   5.793  10.608  0.0741 -0.7056  0.1029
 3854TIP3    H233054   0.967   5.927  10.653  0.5544 -0.2680 -0.6153
 3855TIP3   OH233055   2.250   4.247  12.909 -0.1272 -0.1462 -0.8797
 3855TIP3    H133056   2.173   4.208  12.869 -0.3667 -0.5819 -0.0237
 3855TIP3    H233057   2.267   4.326  12.858 -0.6254 -0.5015 -1.6027
 3856TIP3   OH233058   1.756   2.005  14.247  0.7085 -0.5016  0.2178
 3856TIP3    H133059   1.747   2.044  14.159  0.8307  1.9906  1.2150
 3856TIP3    H233060   1.672   1.963  14.263 -0.0203  0.6674 -0.3904
 3857TIP3   OH233061   4.991   4.308  14.193  0.5760 -0.2014  0.2877
 3857TIP3    H133062   5.074   4.324  14.148  0.7394  1.5316  1.1148
 3857TIP3    H233063   4.928   4.365  14.148  0.0650 -0.7046  0.3509
 3858TIP3   OH233064   6.140   4.243  10.377  0.2275  0.1192  0.0152
 3858TIP3    H133065   6.148   4.334  10.406  1.3367 -0.3860  1.4347
 3858TIP3    H233066   6.213   4.230  10.316 -0.3988  0.3797 -0.8080
 3859TIP3   OH233067   1.778   3.251  10.961 -0.7307 -0.7306  0.2079
 3859TIP3    H133068   1.845   3.206  11.013 -1.0452 -1.5389 -0.0805
 3859TIP3    H233069   1.827   3.293  10.890 -0.7111 -3.1558 -1.3108
 3860TIP3   OH233070   2.404   6.478  16.679  0.0387  0.6473 -0.6718
 3860TIP3    H133071   2.473   6.447  16.739 -1.3279 -0.4150  0.4005
 3860TIP3    H233072   2.352   6.538  16.733  0.0980  1.4484 -1.4825
 3861TIP3   OH233073   1.532   1.919  16.087  0.4676  0.2664 -0.5118
 3861TIP3    H133074   1.516   1.965  16.169  0.4311  2.0807 -1.4736
 3861TIP3    H233075   1.464   1.852  16.082  0.1332  0.5124  0.6495
 3862TIP3   OH233076   0.138   3.230   0.099  0.0731 -0.0751  0.0224
 3862TIP3    H133077   0.189   3.311   0.089  0.5018 -0.2736  0.5461
 3862TIP3    H233078   0.188   3.164   0.051 -1.1738  0.3132 -1.9037
 3863TIP3   OH233079   4.052   1.171   4.645 -0.2643  0.4663  0.6270
 3863TIP3    H133080   4.077   1.208   4.561 -1.3333 -2.2655 -1.0241
 3863TIP3    H233081   3.956   1.164   4.640 -0.2156 -1.2111  1.3547
 3864TIP3   OH233082   2.126   2.057   0.351  0.2431  0.1506 -0.3939
 3864TIP3    H133083   2.171   2.108   0.419 -1.5345  0.6499  0.4838
 3864TIP3    H233084   2.037   2.045   0.386  0.0666 -1.9615 -1.4266
 3865TIP3   OH233085   0.492   4.761  12.776  0.3369  0.1054 -0.2633
 3865TIP3    H133086   0.419   4.754  12.838  1.1099 -0.4341  0.6126
 3865TIP3    H233087   0.451   4.750  12.690 -0.6428  0.0323  0.1919
 3866TIP3   OH233088   2.704   5.046   1.946  0.4678  0.4005 -0.5760
 3866TIP3    H133089   2.756   5.078   2.020 -0.8534 -0.4776  0.7692
 3866TIP3    H233090   2.615   5.078   1.963 -0.2594 -1.4257 -0.7566
 3867TIP3   OH233091   5.370   6.202  14.792  0.1289 -0.3086  0.0822
 3867TIP3    H133092   5.401   6.115  14.820 -0.1478  0.0433  1.5470
 3867TIP3    H233093   5.316   6.233  14.865 -0.6113  0.6741 -0.8543
 3868TIP3   OH233094   1.057   5.557   5.193  0.3743  0.1304  0.2121
 3868TIP3    H133095   1.024   5.645   5.207 -1.7774 -0.5402 -0.1956
 3868TIP3    H233096   1.117   5.565   5.119  1.2524  1.4463  1.0409
 3869TIP3   OH233097   3.624   0.280   2.318  0.9739 -0.7405  0.6992
 3869TIP3    H133098   3.587   0.289   2.230  3.2435  2.0713 -0.1414
 3869TIP3    H233099   3.639   0.186   2.329  0.0257 -1.2291 -1.6445
 3870TIP3   OH233100   1.487   0.242   1.969  0.9903  0.3094  0.2258
 3870TIP3    H133101   1.391   0.243   1.965  0.8984 -0.2367  1.6736
 3870TIP3    H233102   1.515   0.283   1.887 -0.4878  1.6722  0.3553
 3871TIP3   OH233103   5.341   2.934  16.045  0.0271  0.3819 -0.0522
 3871TIP3    H133104   5.312   2.909  16.133  0.9666  1.4388  0.5972
 3871TIP3    H233105   5.436   2.940  16.053  0.1103  0.6167 -1.1183
 3872TIP3   OH233106   5.041   5.318  16.881 -0.0899 -0.0807 -0.3175
 3872TIP3    H133107   4.999   5.233  16.869 -0.7229 -0.0272  1.3388
 3872TIP3    H233108   5.032   5.361  16.796 -2.2636 -0.5698 -0.3856
 3873TIP3   OH233109   1.521   4.858  13.983  0.1551 -0.3419  0.5581
 3873TIP3    H133110   1.478   4.801  14.047  2.7422 -1.1359  1.7237
 3873TIP3    H233111   1.468   4.850  13.904 -1.7484 -1.2867  1.8621
 3874TIP3   OH233112   2.774   2.134  15.389  0.7120  0.1171 -0.7945
 3874TIP3    H133113   2.827   2.058  15.366  3.5330  2.7923 -4.1912
 3874TIP3    H233114   2.714   2.144  15.315  0.3534  1.1564 -0.3720
 3875TIP3   OH233115   6.730   3.523   5.099 -0.5796  0.0763  0.6796
 3875TIP3    H133116   6.638   3.529   5.125  0.0679 -0.2105  3.3367
 3875TIP3    H233117   6.778   3.522   5.182  2.1641  4.3806 -0.5655
 3876TIP3   OH233118   1.501   4.259  12.195  0.6947  0.4553 -0.1051
 3876TIP3    H133119   1.586   4.289  12.227  0.7645 -1.3936  1.6400
 3876TIP3    H233120   1.438   4.313  12.243  0.8621  0.1858  0.4275
 3877TIP3   OH233121   5.462   2.183  13.772  0.0095 -0.2685  0.3292
 3877TIP3    H133122   5.512   2.111  13.735  1.8171  0.0171  2.0764
 3877TIP3    H233123   5.496   2.194  13.861 -0.3656  2.5772  0.2151
 3878TIP3   OH233124   3.016   2.514  11.683 -1.0390  0.3472  0.0525
 3878TIP3    H133125   3.006   2.568  11.761 -0.1965 -1.1403  1.2322
 3878TIP3    H233126   3.048   2.575  11.616 -0.8803  1.4593  1.1029
 3879TIP3   OH233127   4.020   6.716   0.744 -0.3006  0.1350 -0.1920
 3879TIP3    H133128   3.961   6.743   0.673 -0.2679  0.4147 -0.1134
 3879TIP3    H233129   4.007   6.621   0.751  0.1142  0.0145 -0.9603
 3880TIP3   OH233130   3.256   6.068   0.005  0.1912  0.6438 -0.5705
 3880TIP3    H133131   3.288   6.122   0.077 -0.1747 -1.4268  1.2479
 3880TIP3    H233132   3.321   6.079  -0.065  1.1780  1.7888  0.4794
 3881TIP3   OH233133   6.178   3.263  10.977  0.2121 -0.1251 -0.4836
 3881TIP3    H133134   6.259   3.222  10.946 -0.1094 -0.6664 -0.6378
 3881TIP3    H233135   6.110   3.226  10.920 -0.1163  0.4764 -0.4858
 3882TIP3   OH233136   0.061   6.273   1.415 -0.3473 -0.2474  0.7645
 3882TIP3    H133137   0.057   6.264   1.320 -1.3506 -1.2553  0.8781
 3882TIP3    H233138   0.091   6.188   1.446 -0.3846 -0.0464  1.3707
 3883TIP3   OH233139   5.196   0.978   0.320  0.0344 -0.1792 -0.1645
 3883TIP3    H133140   5.285   0.961   0.288  0.5290 -1.8890  1.8484
 3883TIP3    H233141   5.201   1.067   0.356  0.4760  0.3275 -1.4136
 3884TIP3   OH233142   3.325   1.845   1.711  0.0806 -0.5859 -0.2411
 3884TIP3    H133143   3.311   1.859   1.805 -0.6380 -0.6417 -0.3349
 3884TIP3    H233144   3.396   1.904   1.688  0.3079 -0.6232  0.3553
 3885TIP3   OH233145   5.105   0.051   3.214 -0.0131  0.3260 -0.2461
 3885TIP3    H133146   5.062   0.017   3.136 -1.7214  2.8067 -0.5082
 3885TIP3    H233147   5.197   0.026   3.204 -0.8882 -3.2669 -0.7808
 3886TIP3   OH233148   2.275   5.180   3.800  0.1413  0.0882 -0.2366
 3886TIP3    H133149   2.202   5.145   3.749 -0.3045  0.9235 -0.1910
 3886TIP3    H233150   2.333   5.219   3.735  0.0311  0.3359 -0.1876
 3887TIP3   OH233151   0.385   5.681  12.927  0.4464 -0.4768 -0.0074
 3887TIP3    H133152   0.313   5.721  12.975 -0.3027 -0.1691 -1.3502
 3887TIP3    H233153   0.359   5.590  12.915  0.2885 -0.3743 -0.4622
 3888TIP3   OH233154   1.349   6.009  13.390  0.1983 -0.7503 -0.4494
 3888TIP3    H133155   1.437   5.985  13.362 -0.4407  0.6604 -4.2287
 3888TIP3    H233156   1.291   5.957  13.334 -1.4374 -1.2088  1.5305
 3889TIP3   OH233157   4.029   5.902   4.730  0.4671 -0.2628  0.0194
 3889TIP3    H133158   4.115   5.887   4.691  1.1364  0.3915  1.1837
 3889TIP3    H233159   3.978   5.944   4.661  1.4661  0.4356 -0.3211
 3890TIP3   OH233160   5.521   6.539  16.150 -0.4953  0.4842 -0.0261
 3890TIP3    H133161   5.581   6.470  16.179 -1.7034 -0.2803  0.7382
 3890TIP3    H233162   5.578   6.607  16.113  0.9752  0.4712  2.0480
 3891TIP3   OH233163   4.654   2.565   4.518 -0.2071 -0.3165 -0.2047
 3891TIP3    H133164   4.734   2.567   4.571  0.0112  1.7569 -0.5053
 3891TIP3    H233165   4.619   2.654   4.524 -0.8523 -0.3356 -2.4907
 3892TIP3   OH233166   3.811   2.658  14.543  0.4266  0.7744  0.5041
 3892TIP3    H133167   3.899   2.692  14.528 -0.5339  2.0596 -3.1225
 3892TIP3    H233168   3.820   2.563  14.531  1.4099  0.8170  0.8141
 3893TIP3   OH233169   5.322   0.353   4.543  0.7642  0.0502  0.0444
 3893TIP3    H133170   5.339   0.341   4.636 -1.5284 -0.8400  0.4221
 3893TIP3    H233171   5.405   0.332   4.500  1.9952  0.8976  1.8793
 3894TIP3   OH233172   4.228   0.264   3.717  0.3155 -0.2844  0.8788
 3894TIP3    H133173   4.193   0.201   3.779 -0.6683 -0.8239 -0.1761
 3894TIP3    H233174   4.167   0.338   3.720  2.0467  1.1658  2.9033
 3895TIP3   OH233175   0.919   4.407  13.182  0.2392 -0.3634 -0.0726
 3895TIP3    H133176   0.981   4.458  13.234  0.4573  0.4899 -1.1348
 3895TIP3    H233177   0.846   4.467  13.167 -0.4761 -1.0793  0.4407
 3896TIP3   OH233178   0.091   2.260  13.106 -0.3096 -0.0824  0.1607
 3896TIP3    H133179   0.040   2.339  13.124 -0.4286 -0.1410  0.0745
 3896TIP3    H233180   0.070   2.238  13.016 -0.2413 -0.1886  0.1705
 3897TIP3   OH233181   2.455   1.629  12.202 -0.3493 -0.1279 -0.2147
 3897TIP3    H133182   2.543   1.596  12.185 -0.0337  1.7328 -2.7266
 3897TIP3    H233183   2.465   1.690  12.275  0.7779  1.1619 -1.3983
 3898TIP3   OH233184   0.151   2.136   5.376 -0.8196  0.5711 -0.0026
 3898TIP3    H133185   0.168   2.202   5.443 -0.7911  1.7602 -1.1606
 3898TIP3    H233186   0.208   2.159   5.303 -0.3362 -1.1144 -0.2071
 3899TIP3   OH233187   2.214   0.505   3.450 -0.1301 -0.5847  0.1900
 3899TIP3    H133188   2.237   0.414   3.464 -1.6494 -1.0565 -0.1493
 3899TIP3    H233189   2.237   0.549   3.533  2.0919 -0.9193 -0.2079
 3900TIP3   OH233190   3.348   6.574  14.701  0.2469  0.0257  0.0410
 3900TIP3    H133191   3.301   6.497  14.734  0.6512  0.8472  2.8024
 3900TIP3    H233192   3.428   6.538  14.662 -1.4350 -1.1925 -2.5810
 3901TIP3   OH233193   0.645   1.583  16.725  0.5982  0.0373 -0.5170
 3901TIP3    H133194   0.732   1.550  16.745  0.4581 -0.5049 -0.7766
 3901TIP3    H233195   0.586   1.514  16.755  0.3006  0.0503 -1.0582
 3902TIP3   OH233196   5.776   3.759   3.306 -0.2454  0.3061 -0.0131
 3902TIP3    H133197   5.787   3.779   3.399 -1.1129 -1.3107  0.4596
 3902TIP3    H233198   5.822   3.830   3.261  1.0949  0.5555  1.6597
 3903TIP3   OH233199   0.842   4.055   1.438  0.6755  0.4589 -0.3977
 3903TIP3    H133200   0.931   4.063   1.404  1.3194 -2.2436  0.3862
 3903TIP3    H233201   0.842   4.106   1.518  1.6964  0.0610 -0.1309
 3904TIP3   OH233202   2.702   3.129  13.628  0.0080 -0.3713  0.5706
 3904TIP3    H133203   2.616   3.168  13.646 -1.2490 -2.4794 -0.4490
 3904TIP3    H233204   2.682   3.042  13.593  2.6003 -1.1499  0.8114
 3905TIP3   OH233205   5.079   5.505   6.667 -0.2839  0.0175 -0.0550
 3905TIP3    H133206   5.071   5.412   6.691  0.8190 -0.2850 -0.7748
 3905TIP3    H233207   4.995   5.527   6.627 -0.3540 -0.8439 -0.4035
 3906TIP3   OH233208   3.346   1.569   2.181 -0.5877  0.1429  0.1535
 3906TIP3    H133209   3.362   1.554   2.274  0.0111  0.1569  0.0561
 3906TIP3    H233210   3.381   1.491   2.137 -1.2539 -0.0614 -0.0310
 3907TIP3   OH233211   4.154   6.293  14.503 -0.2366 -0.1085  0.0632
 3907TIP3    H133212   4.179   6.225  14.565  2.3670  0.8370  0.1778
 3907TIP3    H233213   4.144   6.247  14.419 -2.2102 -1.1349  0.8039
 3908TIP3   OH233214   0.019   1.240   0.712  0.0930 -0.0527 -1.3541
 3908TIP3    H133215   0.104   1.253   0.671  0.0285 -0.2151 -1.5404
 3908TIP3    H233216   0.015   1.307   0.781 -0.3023  1.0546 -2.4126
 3909TIP3   OH233217   5.587   1.399   1.077 -0.2572  0.0241  0.4101
 3909TIP3    H133218   5.611   1.479   1.124 -1.8842  1.2465 -0.6972
 3909TIP3    H233219   5.634   1.404   0.994  0.8959 -1.0155  0.9783
 3910TIP3   OH233220   4.371   6.755  12.755  0.5474 -0.3174  0.5980
 3910TIP3    H133221   4.458   6.785  12.782  1.4011 -2.1407  0.0480
 3910TIP3    H233222   4.384   6.721  12.667 -1.3587  1.9564 -0.6712
 3911TIP3   OH233223   5.345   2.423  13.443  0.1113 -0.6880 -0.0539
 3911TIP3    H133224   5.386   2.473  13.513  0.9323 -0.3885 -0.7361
 3911TIP3    H233225   5.414   2.366  13.409 -0.7085 -2.0612  0.4715
 3912TIP3   OH233226   3.490   1.830   6.613  0.1995 -0.5310  0.3292
 3912TIP3    H133227   3.527   1.866   6.694  1.3200  2.7570 -1.4877
 3912TIP3    H233228   3.401   1.863   6.611 -0.7217 -2.7237  1.3212
 3913TIP3   OH233229   5.320   4.913  11.570 -0.1771  0.7436 -0.4768
 3913TIP3    H133230   5.415   4.910  11.558  0.0669  1.6641  1.0365
 3913TIP3    H233231   5.289   4.832  11.528  1.4439 -0.4658  0.5199
 3914TIP3   OH233232   4.191   2.940   3.549  0.4987 -0.0079 -0.2908
 3914TIP3    H133233   4.237   2.959   3.467  2.0347  0.1687  0.5636
 3914TIP3    H233234   4.099   2.958   3.530  0.8069 -0.0566 -1.9917
 3915TIP3   OH233235   2.792   6.699   3.397  0.2234  0.9352 -0.2420
 3915TIP3    H133236   2.867   6.643   3.418 -0.1021  0.8102  0.6572
 3915TIP3    H233237   2.716   6.642   3.410 -0.0706  1.3455 -0.1462
 3916TIP3   OH233238   6.556   2.521   4.864  0.2278  0.2633 -0.2277
 3916TIP3    H133239   6.602   2.495   4.944 -1.7967 -1.2451  0.5642
 3916TIP3    H233240   6.578   2.454   4.800  0.2616  0.3442 -0.3017
 3917TIP3   OH233241   5.354   3.709  13.976  0.4355  0.0986  0.4150
 3917TIP3    H133242   5.346   3.801  14.000  0.6728 -0.1596  1.5660
 3917TIP3    H233243   5.272   3.689  13.932  0.4233  0.8838  0.0646
 3918TIP3   OH233244   1.544   1.558   5.543 -0.0522 -0.3195 -0.2208
 3918TIP3    H133245   1.603   1.597   5.479 -0.6532  1.1518  0.0658
 3918TIP3    H233246   1.487   1.630   5.569 -2.4869 -1.8438 -1.0308
 3919TIP3   OH233247   3.932   5.817   5.798  0.4344 -0.3488 -0.3125
 3919TIP3    H133248   3.926   5.793   5.890 -0.6060  1.0200  0.0072
 3919TIP3    H233249   3.857   5.875   5.783  1.4307  0.6748 -1.6212
 3920TIP3   OH233250   3.770   1.606   0.131 -0.1915 -0.0980  0.4541
 3920TIP3    H133251   3.701   1.570   0.075  0.2543 -1.9999  1.0447
 3920TIP3    H233252   3.723   1.657   0.197 -0.9761 -0.6012  0.3027
 3921TIP3   OH233253   4.654   5.766  14.580 -0.0484 -0.0913 -0.3462
 3921TIP3    H133254   4.747   5.762  14.602 -0.0683 -0.0334 -0.2545
 3921TIP3    H233255   4.612   5.803  14.657 -0.1252  0.0480 -0.4527
 3922TIP3   OH233256   1.614   6.629   3.269  0.8947 -0.2774  0.1056
 3922TIP3    H133257   1.541   6.650   3.211  0.9039  0.3058  0.3010
 3922TIP3    H233258   1.672   6.574   3.216 -0.2216 -1.6968  0.2983
 3923TIP3   OH233259   0.588   4.082   1.312  0.5000  0.0204  0.2673
 3923TIP3    H133260   0.665   4.065   1.367 -0.3740 -0.0690  1.5032
 3923TIP3    H233261   0.574   4.000   1.265 -0.7881 -1.1591  2.5504
 3924TIP3   OH233262   4.143   1.294   4.132  0.3614 -0.0821 -0.2255
 3924TIP3    H133263   4.129   1.200   4.115 -0.8227  0.1244 -0.4955
 3924TIP3    H233264   4.056   1.328   4.153  1.0745  0.5769  1.9501
 3925TIP3   OH233265   2.785   3.940  14.996  0.0693  0.2140  0.2385
 3925TIP3    H133266   2.701   3.903  14.969 -0.3265  0.2122  1.4431
 3925TIP3    H233267   2.818   3.880  15.063  1.5219 -0.3376 -0.9177
 3926TIP3   OH233268   0.861   1.854   2.647 -0.3041  0.3993 -0.0140
 3926TIP3    H133269   0.800   1.900   2.705  0.1614  2.7478 -1.2614
 3926TIP3    H233270   0.817   1.850   2.562  0.2937 -0.1233 -0.3170
 3927TIP3   OH233271   6.824   1.895   0.543 -0.0299  0.1310  0.3016
 3927TIP3    H133272   6.781   1.929   0.465  0.1551 -2.3947 -0.9815
 3927TIP3    H233273   6.899   1.954   0.556  0.1464  0.3879 -1.6321
 3928TIP3   OH233274   3.288   1.939   2.242 -0.0012 -0.0827  0.4232
 3928TIP3    H133275   3.286   1.904   2.153  0.8535  0.1373  0.3035
 3928TIP3    H233276   3.273   1.863   2.299 -0.7021 -0.1969  0.0906
 3929TIP3   OH233277   5.867   3.153  13.876 -0.0080  0.0317  0.0291
 3929TIP3    H133278   5.785   3.178  13.835 -0.0881  1.5870  1.0427
 3929TIP3    H233279   5.908   3.092  13.815 -1.9370 -0.8420 -0.4507
 3930TIP3   OH233280   1.698   2.605  11.750 -0.2337  0.1014  0.5195
 3930TIP3    H133281   1.604   2.588  11.747 -0.4336  0.0419  3.7623
 3930TIP3    H233282   1.705   2.695  11.783  0.8269 -0.3224  1.5060
 3931TIP3   OH233283   0.404   6.152   5.102  0.0687 -0.4017 -0.4988
 3931TIP3    H133284   0.476   6.107   5.057 -0.3091  0.2912 -1.8636
 3931TIP3    H233285   0.347   6.182   5.031  0.3788  2.3351  0.2841
 3932TIP3   OH233286   0.753   1.524  13.476 -0.0534  0.8017 -0.7607
 3932TIP3    H133287   0.724   1.591  13.414 -1.5701 -0.3039 -1.2699
 3932TIP3    H233288   0.711   1.443  13.448  0.0627  0.0389  1.0732
 3933TIP3   OH233289   6.700   4.139  12.932 -0.4103  0.4936  0.0832
 3933TIP3    H133290   6.763   4.069  12.916  0.1245  0.3738  2.4765
 3933TIP3    H233291   6.626   4.118  12.874  0.6667 -0.7831 -0.8698
 3934TIP3   OH233292   0.230   6.494  13.110  0.2034  0.3351 -0.7156
 3934TIP3    H133293   0.236   6.450  13.025  0.8482  0.4558 -0.7332
 3934TIP3    H233294   0.273   6.579  13.097  1.1684 -0.0302 -0.0139
 3935TIP3   OH233295   2.900   0.765   2.745  0.6088 -0.3500  0.3265
 3935TIP3    H133296   2.870   0.777   2.655 -0.2505 -0.2213  0.6173
 3935TIP3    H233297   2.822   0.736   2.793  0.6342  1.2248  1.3843
 3936TIP3   OH233298   2.340   0.981   5.016  0.2269 -0.1726 -0.3632
 3936TIP3    H133299   2.357   1.037   4.941  0.2098 -1.5934 -1.4605
 3936TIP3    H233300   2.270   0.923   4.988 -0.3186 -0.2286  1.0297
 3937TIP3   OH233301   3.570   3.213  14.896  0.0504 -0.2874  0.1365
 3937TIP3    H133302   3.619   3.192  14.816 -1.2856  1.1374 -1.1248
 3937TIP3    H233303   3.490   3.160  14.890  0.1904 -0.5964  0.8351
 3938TIP3   OH233304   3.776   3.091  14.480 -0.0153 -0.5422  0.0652
 3938TIP3    H133305   3.796   3.032  14.553 -0.4615 -0.8513 -0.0509
 3938TIP3    H233306   3.794   3.178  14.514  0.6146 -0.7416  0.2556
 3939TIP3   OH233307   3.608   0.991  11.898 -0.1983 -0.0467 -0.1980
 3939TIP3    H133308   3.608   1.087  11.894  1.3307 -0.0469 -0.8016
 3939TIP3    H233309   3.697   0.968  11.925 -1.0820 -1.2576  1.9411
 3940TIP3   OH233310   3.986   2.092  11.008 -0.2177 -0.4765 -0.0412
 3940TIP3    H133311   4.025   2.004  11.010  1.8164  0.3628 -0.6277
 3940TIP3    H233312   3.978   2.113  10.915 -0.0068  0.2428  0.1007
 3941TIP3   OH233313   2.308   6.174   5.895  0.0070 -0.0156  0.0874
 3941TIP3    H133314   2.251   6.211   5.962 -0.3536 -0.4106  0.0022
 3941TIP3    H233315   2.269   6.204   5.812 -0.2320 -0.5017  0.0205
 3942TIP3   OH233316   6.152   6.044  13.033  0.0036 -0.6150  0.3142
 3942TIP3    H133317   6.188   6.083  13.113  1.3954 -1.0477 -0.0710
 3942TIP3    H233318   6.143   5.951  13.054 -1.5163 -0.4405  0.5977
 3943TIP3   OH233319   5.223   0.086   0.993 -0.0405  0.2241  0.1357
 3943TIP3    H133320   5.250   0.149   0.927  0.0107 -1.6436 -1.7506
 3943TIP3    H233321   5.156   0.131   1.045 -2.0799  0.9666 -2.9026
 3944TIP3   OH233322   0.046   0.736  12.896  1.2224  0.0279 -0.4382
 3944TIP3    H133323   0.070   0.711  12.985 -0.0968  0.3089  0.0112
 3944TIP3    H233324  -0.027   0.796  12.907  0.6817 -0.3692 -1.7424
 3945TIP3   OH233325   1.480   4.570   1.742 -0.1580  0.0077  0.6652
 3945TIP3    H133326   1.547   4.518   1.698 -0.4771 -0.0549  0.2516
 3945TIP3    H233327   1.464   4.525   1.824  1.6431  1.0155  1.6372
 3946TIP3   OH233328   0.045   6.040   0.542 -0.1838  0.0473  0.1363
 3946TIP3    H133329   0.065   6.070   0.453  2.1212 -0.1300  0.5397
 3946TIP3    H233330   0.019   6.119   0.589  1.2177  0.6288 -0.0304
 3947TIP3   OH233331   3.201   0.809   2.246  0.8170 -0.5597 -0.3156
 3947TIP3    H133332   3.276   0.818   2.187  0.4958 -1.3732 -0.8764
 3947TIP3    H233333   3.163   0.896   2.251 -0.1140 -0.7553 -2.6409
 3948TIP3   OH233334   5.312   2.699  14.737  0.6586 -0.4318  0.0125
 3948TIP3    H133335   5.263   2.707  14.819 -3.9276 -1.9621 -2.2295
 3948TIP3    H233336   5.326   2.789  14.709  1.0892  0.0953  1.7962
 3949TIP3   OH233337   2.931   4.297   2.417  0.2922  0.1230 -0.4834
 3949TIP3    H133338   2.920   4.285   2.512 -0.4117  2.4717 -0.1915
 3949TIP3    H233339   2.952   4.390   2.408  1.2658 -0.2626 -2.5909
 3950TIP3   OH233340   5.302   0.089  12.589  0.2210  0.2902 -0.1051
 3950TIP3    H133341   5.379   0.042  12.556 -0.0836 -0.3031  0.0103
 3950TIP3    H233342   5.335   0.175  12.614  1.1874 -0.4807  1.4389
 3951TIP3   OH233343   2.833   1.431  13.082  0.0680  0.1954 -0.1385
 3951TIP3    H133344   2.880   1.348  13.088  0.3215  0.4098  1.0414
 3951TIP3    H233345   2.850   1.462  12.993  0.9086 -0.4649 -0.2181
 3952TIP3   OH233346   3.359   3.664  12.241 -0.4991  0.5975  0.4190
 3952TIP3    H133347   3.333   3.753  12.265  3.1984  2.7233 -2.3382
 3952TIP3    H233348   3.424   3.640  12.307 -0.0406  0.8141  0.0509
 3953TIP3   OH233349   5.876   6.491   6.052 -1.1154 -0.4926 -0.1883
 3953TIP3    H133350   5.839   6.434   6.119  0.2052  1.1011  2.0134
 3953TIP3    H233351   5.842   6.578   6.071  0.1337  0.1965 -0.9192
 3954TIP3   OH233352   3.060   3.475   0.519 -0.4846 -0.1705  0.0570
 3954TIP3    H133353   2.978   3.524   0.528  1.2944  2.7952  1.9544
 3954TIP3    H233354   3.064   3.420   0.597 -1.2616 -1.4840 -0.7791
 3955TIP3   OH233355   3.434   1.456   4.822 -0.7923  0.0763 -0.0002
 3955TIP3    H133356   3.435   1.369   4.861  0.8594  0.9799  2.1207
 3955TIP3    H233357   3.434   1.517   4.896 -1.6402  1.9111 -1.4140
 3956TIP3   OH233358   1.436   1.554  15.356  0.2697 -0.4368  0.4822
 3956TIP3    H133359   1.512   1.612  15.357 -0.4066  0.4914 -0.1794
 3956TIP3    H233360   1.379   1.590  15.288 -0.7439 -1.1417  0.9250
 3957TIP3   OH233361   3.943   2.769   3.145 -0.3255 -0.8073  0.4158
 3957TIP3    H133362   3.924   2.685   3.186  1.7564 -1.7083 -0.3448
 3957TIP3    H233363   4.017   2.804   3.195 -1.0431  0.4991  0.5989
 3958TIP3   OH233364   2.524   1.053  14.198  0.0877  0.1209 -0.1752
 3958TIP3    H133365   2.608   1.080  14.163  0.4137 -0.0315  0.4621
 3958TIP3    H233366   2.531   0.958  14.207 -0.1840  0.0967 -0.2063
 3959TIP3   OH233367   2.023   3.302   0.372 -0.3234  0.3415  0.1321
 3959TIP3    H133368   2.086   3.231   0.355 -1.6331 -0.5220 -1.4166
 3959TIP3    H233369   1.980   3.277   0.453  0.0277 -0.0461  0.2018
 3960TIP3   OH233370   1.952   4.668  16.110  0.3170 -1.0147  0.6948
 3960TIP3    H133371   1.906   4.691  16.029  2.4494  1.3227 -0.0055
 3960TIP3    H233372   1.968   4.574  16.103 -0.0039 -0.9664 -1.3601
 3961TIP3   OH233373   3.907   4.392  16.850 -0.1306  0.1320 -0.5688
 3961TIP3    H133374   3.961   4.398  16.929  0.5215 -0.3730 -0.9655
 3961TIP3    H233375   3.850   4.469  16.854  0.2131  0.3593  0.1558
 3962TIP3   OH233376   3.868   5.667  16.848  0.3114  0.5253 -0.5169
 3962TIP3    H133377   3.858   5.679  16.942 -1.5278 -1.2045 -0.4046
 3962TIP3    H233378   3.833   5.747  16.809  0.5932  1.0340  0.2577
 3963TIP3   OH233379   4.012   6.230  16.265 -0.0617 -0.1142 -0.2935
 3963TIP3    H133380   3.987   6.318  16.293  1.4141 -0.2225  1.5628
 3963TIP3    H233381   3.952   6.172  16.312 -0.3245 -0.1618 -0.6795
 3964TIP3   OH233382   2.950   3.977  13.688  0.3936  0.1628  0.6854
 3964TIP3    H133383   2.878   3.981  13.626  2.0144  0.3185 -1.3093
 3964TIP3    H233384   2.919   4.025  13.765 -2.3647 -1.6082  0.8100
 3965TIP3   OH233385   5.894   3.374   3.761 -0.3686  0.1618  0.1919
 3965TIP3    H133386   5.876   3.459   3.801 -0.1956  0.2741  0.0301
 3965TIP3    H233387   5.810   3.327   3.766 -0.1298 -0.1659  1.5141
 3966TIP3   OH233388   6.509   0.522  11.169  0.1839  0.0555 -0.1776
 3966TIP3    H133389   6.492   0.439  11.213  0.0295 -0.0655 -0.4635
 3966TIP3    H233390   6.422   0.555  11.147  0.2842 -0.2599 -1.0813
 3967TIP3   OH233391   0.191   6.755  14.801  0.2365 -0.4461  0.0104
 3967TIP3    H133392   0.204   6.805  14.881 -0.5241  0.5975 -0.5077
 3967TIP3    H233393   0.231   6.670  14.820  2.9095  0.7873  0.3989
 3968TIP3   OH233394   2.101   6.606  11.933 -0.0503  0.0516 -0.0585
 3968TIP3    H133395   2.173   6.639  11.880  1.7089 -0.5736  1.8031
 3968TIP3    H233396   2.086   6.675  11.998 -1.9180  0.6472 -1.0438
 3969TIP3   OH233397   3.548   1.041  12.501  0.2227 -0.2355  0.6049
 3969TIP3    H133398   3.559   1.116  12.442 -0.1811  2.0664  3.2820
 3969TIP3    H233399   3.531   0.967  12.442  0.6131  1.7385 -2.1724
 3970TIP3   OH233400   1.793   3.465  10.723 -0.3077 -0.1500  0.3130
 3970TIP3    H133401   1.701   3.479  10.700 -0.5929  0.3190  1.6527
 3970TIP3    H233402   1.830   3.553  10.728  0.7278 -0.3648 -1.9985
 3971TIP3   OH233403   3.570   3.598  11.852 -0.0274 -0.0413 -0.1703
 3971TIP3    H133404   3.622   3.678  11.841 -0.5534  0.3328  0.0274
 3971TIP3    H233405   3.635   3.529  11.861  0.4453  0.2432 -1.1598
 3972TIP3   OH233406   2.421   0.067   5.542 -0.1269  0.0150 -0.4462
 3972TIP3    H133407   2.435   0.074   5.637  1.1071 -1.3829 -0.4887
 3972TIP3    H233408   2.483   0.130   5.505  0.2536 -0.2915 -0.3453
 3973TIP3   OH233409   4.415   6.427  16.679 -0.2791  0.1773  0.3868
 3973TIP3    H133410   4.492   6.467  16.638 -0.0230  0.2703  0.9605
 3973TIP3    H233411   4.347   6.431  16.611  0.3526 -0.3381 -0.2920
 3974TIP3   OH233412   4.075   6.382   5.426  0.0759 -0.5570  0.7467
 3974TIP3    H133413   4.167   6.384   5.401 -0.1065  1.4738  0.0506
 3974TIP3    H233414   4.076   6.364   5.520  1.3108  1.0668  1.0945
 3975TIP3   OH233415   3.646   5.592  12.844  0.6290 -0.2648 -0.3980
 3975TIP3    H133416   3.651   5.622  12.754  2.1101 -1.6485 -0.8149
 3975TIP3    H233417   3.736   5.598  12.877 -0.0591  1.2797  1.3676
 3976TIP3   OH233418   4.513   0.522   5.150  0.0132 -0.1633  0.0437
 3976TIP3    H133419   4.488   0.532   5.058 -1.3120  1.2363  0.5069
 3976TIP3    H233420   4.437   0.480   5.191  0.2812 -0.0725  0.6477
 3977TIP3   OH233421   3.153   1.148  14.735 -0.3833  0.3096  0.9629
 3977TIP3    H133422   3.228   1.138  14.677  0.4075  0.0534  1.9817
 3977TIP3    H233423   3.077   1.124  14.682  0.4618 -1.3985  0.4714
 3978TIP3   OH233424   1.285   2.698  16.883  0.2886 -0.5436 -0.0583
 3978TIP3    H133425   1.353   2.667  16.823  0.6115  0.0396 -0.0084
 3978TIP3    H233426   1.203   2.684  16.836  0.6447  2.2033 -1.7752
 3979TIP3   OH233427   5.702   1.990  14.965  0.0206 -0.3980  0.1475
 3979TIP3    H133428   5.635   2.014  15.028  0.9429  2.5106  0.1578
 3979TIP3    H233429   5.661   2.001  14.880 -0.4731 -1.9238  0.1560
 3980TIP3   OH233430   0.306   1.740   4.360  0.2611 -0.3673  0.6372
 3980TIP3    H133431   0.401   1.740   4.369  0.3330 -1.5325  0.0779
 3980TIP3    H233432   0.290   1.770   4.270  0.0406  0.8041  1.0523
 3981TIP3   OH233433   2.571   1.836   6.647  0.1651  0.5568 -0.7428
 3981TIP3    H133434   2.645   1.886   6.613 -0.2769  1.4635 -0.4008
 3981TIP3    H233435   2.605   1.793   6.726  0.1311  1.5605 -0.1737
 3982TIP3   OH233436   3.999   2.214   1.698  0.0538  0.3825 -0.3474
 3982TIP3    H133437   3.934   2.211   1.768 -0.5650  1.2421 -0.8742
 3982TIP3    H233438   4.027   2.305   1.694 -0.3161  0.4610 -1.5635
 3983TIP3   OH233439   2.301   6.401   4.973 -0.0891  0.1567 -0.6085
 3983TIP3    H133440   2.305   6.496   4.981 -0.6555  0.2555 -1.3517
 3983TIP3    H233441   2.333   6.368   5.057  0.8934  0.9852 -0.6296
 3984TIP3   OH233442   1.024   4.960   0.405  0.1990 -0.3257 -0.2351
 3984TIP3    H133443   1.004   4.966   0.499 -0.6113  0.6923 -0.4575
 3984TIP3    H233444   1.083   5.034   0.389  1.7992 -1.5330 -0.2006
 3985TIP3   OH233445   2.434   6.586  10.735 -0.6471  0.1583  0.6689
 3985TIP3    H133446   2.362   6.596  10.673 -0.7362  1.2686  0.9366
 3985TIP3    H233447   2.391   6.580  10.821 -0.4442  0.3709  0.7852
 3986TIP3   OH233448   6.122   1.430   1.807 -0.4233 -0.2344  0.6913
 3986TIP3    H133449   6.096   1.397   1.722 -0.2738 -2.6732  1.5210
 3986TIP3    H233450   6.166   1.513   1.788 -2.3789  0.4266 -1.3541
 3987TIP3   OH233451   4.922   1.077   4.549  0.2642 -0.0274 -0.3440
 3987TIP3    H133452   4.921   1.064   4.644  1.3929 -1.4725 -0.5063
 3987TIP3    H233453   4.834   1.050   4.520  0.2991 -0.7191  0.1685
 3988TIP3   OH233454   2.400   4.607  13.637  0.0450 -1.0261 -0.2155
 3988TIP3    H133455   2.405   4.571  13.548 -2.4719 -2.6380  0.1744
 3988TIP3    H233456   2.361   4.694  13.626 -0.7183 -1.4195 -0.6788
 3989TIP3   OH233457   1.976   5.880  11.635  0.0252  0.1424  0.0218
 3989TIP3    H133458   2.025   5.855  11.714 -0.7563 -1.8124 -0.0458
 3989TIP3    H233459   2.038   5.865  11.564  0.3254  0.7048  0.1578
 3990TIP3   OH233460   2.749   0.404   4.177 -0.0385  0.3051  0.3565
 3990TIP3    H133461   2.772   0.400   4.084 -0.5401 -1.1718  0.2750
 3990TIP3    H233462   2.770   0.318   4.211 -0.5211  0.6052  1.4637
 3991TIP3   OH233463   0.693   3.728  13.722  0.3240 -0.6111  0.5229
 3991TIP3    H133464   0.630   3.668  13.763  0.8015 -0.0921  2.0850
 3991TIP3    H233465   0.718   3.684  13.641  0.0347 -2.1498  1.2285
 3992TIP3   OH233466   1.361   3.279  13.468 -0.1409 -0.1100  0.3345
 3992TIP3    H133467   1.438   3.223  13.476 -0.1002  0.0282  0.9642
 3992TIP3    H233468   1.308   3.239  13.399  0.5608 -0.1307 -0.1987
 3993TIP3   OH233469   2.178   3.714  12.471  0.2810 -0.3623  0.3931
 3993TIP3    H133470   2.146   3.664  12.396 -1.4999  1.2280  0.0163
 3993TIP3    H233471   2.140   3.671  12.547  0.4715 -0.8009  0.2430
 3994TIP3   OH233472   3.798   0.611   0.719  0.5423  0.2900 -0.2030
 3994TIP3    H133473   3.851   0.603   0.640  0.3049  1.8205 -0.5362
 3994TIP3    H233474   3.724   0.552   0.704  0.1895  1.0004 -1.3910
 3995TIP3   OH233475   2.808   6.284  10.656  0.4737 -0.0458 -0.3905
 3995TIP3    H133476   2.812   6.232  10.576 -2.0794 -3.0897  1.2406
 3995TIP3    H233477   2.879   6.250  10.710 -0.4575 -1.0657  0.2210
 3996TIP3   OH233478   2.687   0.597   2.939  0.0285  0.2317 -0.9170
 3996TIP3    H133479   2.710   0.610   3.031 -2.4124  0.3653 -0.2566
 3996TIP3    H233480   2.664   0.504   2.933  0.0454  0.2561 -1.3671
 3997TIP3   OH233481   2.941   5.710   2.600 -0.2532 -0.2925  0.0485
 3997TIP3    H133482   2.902   5.715   2.687 -0.1010 -0.9666  0.1577
 3997TIP3    H233483   2.871   5.676   2.545 -0.1444 -0.4927  0.0347
 3998TIP3   OH233484   2.792   5.294   0.365 -0.1551  0.0169  0.1831
 3998TIP3    H133485   2.815   5.382   0.395 -2.0920  0.9326 -0.8339
 3998TIP3    H233486   2.758   5.250   0.443 -2.3997  1.3748  0.0274
 3999TIP3   OH233487   5.541   5.318   5.101  0.3954 -0.4577  0.2092
 3999TIP3    H133488   5.608   5.260   5.137  0.1523 -0.7303  0.2310
 3999TIP3    H233489   5.517   5.376   5.173 -0.9318 -1.7554  0.8740
 4000TIP3   OH233490   2.072   3.624   4.621  0.1276  0.0882 -0.7143
 4000TIP3    H133491   2.057   3.530   4.619  2.4697 -0.5450  2.8910
 4000TIP3    H233492   1.991   3.661   4.657 -0.1199 -0.7520 -0.3933
 4001TIP3   OH233493   3.747   5.575  13.178  0.0810  0.3847  0.2771
 4001TIP3    H133494   3.796   5.638  13.231  0.1529  0.7793 -0.2431
 4001TIP3    H233495   3.668   5.621  13.151 -0.0405  0.1308  0.1901
 4002TIP3   OH233496   6.524   5.478  14.197 -0.3764  0.6269  0.1920
 4002TIP3    H133497   6.510   5.384  14.192  0.4219  0.4203  1.4244
 4002TIP3    H233498   6.436   5.516  14.197 -0.7335 -0.1920  0.9029
 4003TIP3   OH233499   6.440   0.599   0.101 -0.3112  0.5961  0.0837
 4003TIP3    H133500   6.452   0.672   0.161 -0.9493  0.0522  0.8931
 4003TIP3    H233501   6.466   0.633   0.016  1.4441  1.1175  0.8006
 4004TIP3   OH233502   4.290   2.954   0.765  0.0587  0.1574 -0.1975
 4004TIP3    H133503   4.352   2.929   0.834 -0.2423 -0.3279 -0.0932
 4004TIP3    H233504   4.224   3.007   0.809  1.6084  2.6712 -0.7323
 4005TIP3   OH233505   1.113   4.853   2.602 -0.0165  0.0708  0.1358
 4005TIP3    H133506   1.108   4.833   2.695  0.6102  0.0622  0.1722
 4005TIP3    H233507   1.082   4.774   2.558  0.8799 -0.3981  0.3131
 4006TIP3   OH233508   0.071   2.193  15.270  0.1908  0.4384 -0.2976
 4006TIP3    H133509   0.157   2.200  15.229 -0.4571  1.3737 -1.6059
 4006TIP3    H233510   0.082   2.233  15.356  0.7792  1.7825 -0.9613
 4007TIP3   OH233511   4.182   6.654   5.640 -0.5893 -0.3667  0.5093
 4007TIP3    H133512   4.140   6.635   5.556 -0.0531 -0.2093  0.1968
 4007TIP3    H233513   4.152   6.743   5.662 -0.7992 -0.4421  0.5324
 4008TIP3   OH233514   0.375   1.605  10.805  0.4235 -0.0881  0.4724
 4008TIP3    H133515   0.350   1.512  10.805  1.4543 -0.3754  0.1447
 4008TIP3    H233516   0.410   1.620  10.717  0.4406  0.5665  0.5894
 4009TIP3   OH233517   2.129   0.874  15.748 -0.9458  0.0389  0.1576
 4009TIP3    H133518   2.216   0.887  15.787 -0.4888  0.6421 -1.0197
 4009TIP3    H233519   2.068   0.896  15.819 -0.1463  0.2031  0.8147
 4010TIP3   OH233520   3.000   3.172  16.646  0.5520  0.0469  0.6456
 4010TIP3    H133521   2.959   3.139  16.726  1.2116  0.4979  1.1800
 4010TIP3    H233522   2.928   3.211  16.597  0.1184 -0.3488  0.9572
 4011TIP3   OH233523   4.944   1.446   3.936 -0.1384  0.1664 -0.6698
 4011TIP3    H133524   4.962   1.540   3.936 -0.0370  0.1500 -0.8943
 4011TIP3    H233525   4.890   1.432   3.857  0.5251 -0.0816 -1.0903
 4012TIP3   OH233526   5.420   4.781  14.889  0.0742  0.0964  0.2031
 4012TIP3    H133527   5.371   4.730  14.953  0.9389  0.8555  1.5168
 4012TIP3    H233528   5.411   4.732  14.807 -3.9683  0.8676 -0.0006
 4013TIP3   OH233529   1.259   2.129  14.950 -0.1421  0.1398  0.0120
 4013TIP3    H133530   1.273   2.045  14.992  0.6470  0.5836  0.6649
 4013TIP3    H233531   1.218   2.183  15.018  0.9687  0.8072  0.1705
 4014TIP3   OH233532   3.175   5.927  15.185  0.2541 -0.7195  0.5375
 4014TIP3    H133533   3.219   6.001  15.227 -1.3681  0.6990 -0.1547
 4014TIP3    H233534   3.198   5.852  15.240  0.7260  0.5472  2.1594
 4015TIP3   OH233535   6.185   1.945   0.546  0.3257  0.3599 -0.0047
 4015TIP3    H133536   6.148   2.022   0.588 -0.4351 -0.8970  1.7437
 4015TIP3    H233537   6.112   1.906   0.498 -0.2493 -1.1035  1.9353
 4016TIP3   OH233538   5.599   2.757  16.657  0.2598  0.0260  0.1601
 4016TIP3    H133539   5.691   2.742  16.634  0.3625  0.1971  0.4474
 4016TIP3    H233540   5.551   2.747  16.575  0.7607  1.9518 -0.4229
 4017TIP3   OH233541   4.582   6.349   1.677 -0.2280 -0.1894  0.6410
 4017TIP3    H133542   4.619   6.271   1.718 -0.7176 -0.3189  0.8437
 4017TIP3    H233543   4.658   6.395   1.641  0.0717 -0.7486  0.5327
 4018TIP3   OH233544   2.506   0.453  13.850  0.2225  0.0809  0.0058
 4018TIP3    H133545   2.599   0.477  13.846  0.2135  0.0541 -0.4644
 4018TIP3    H233546   2.480   0.473  13.939  0.6849  0.0840  0.1464
 4019TIP3   OH233547   3.034   0.454   2.412 -0.8701  0.3169  0.1037
 4019TIP3    H133548   3.114   0.410   2.382  0.0518  3.1648 -2.0603
 4019TIP3    H233549   3.065   0.526   2.467 -2.0934  0.4608  0.6392
 4020TIP3   OH233550   2.492   1.248   2.123  0.0586  0.5476  0.2584
 4020TIP3    H133551   2.462   1.278   2.037 -2.7001  0.7543  1.1936
 4020TIP3    H233552   2.544   1.170   2.104  0.2822  1.1166 -1.6520
 4021TIP3   OH233553   1.488   0.019  13.593  0.1051 -0.5533  0.2184
 4021TIP3    H133554   1.459  -0.071  13.605  1.6943 -1.1190  0.1091
 4021TIP3    H233555   1.496   0.030  13.498 -1.1931  0.0964  0.1684
 4022TIP3   OH233556   5.642   1.134  13.860  0.1636 -0.3350  0.0395
 4022TIP3    H133557   5.695   1.209  13.833  0.7968 -1.1112 -0.9365
 4022TIP3    H233558   5.631   1.083  13.780  0.1662 -1.5408  0.7905
 4023TIP3   OH233559   6.612   1.910   4.888  0.6138 -0.0529 -0.2812
 4023TIP3    H133560   6.528   1.891   4.930  0.4984  0.1991 -0.3964
 4023TIP3    H233561   6.677   1.888   4.954  0.4395  0.1741 -0.0276
 4024TIP3   OH233562   5.879   1.638  14.158  0.1497  0.4250  0.8809
 4024TIP3    H133563   5.969   1.611  14.139  0.0459 -0.7303  1.8786
 4024TIP3    H233564   5.887   1.696  14.234  0.2045  1.9297 -0.2197
 4025TIP3   OH233565   4.353   4.381  11.600 -0.2861  0.7993 -0.2012
 4025TIP3    H133566   4.343   4.472  11.627 -1.3531  0.4525  0.5941
 4025TIP3    H233567   4.448   4.371  11.585  0.0583  1.5932  1.2860
 4026TIP3   OH233568   4.904   6.158  16.720 -0.6422 -0.0375  0.2917
 4026TIP3    H133569   4.838   6.156  16.651  0.5780 -2.6074 -0.9829
 4026TIP3    H233570   4.855   6.165  16.801 -2.4745 -1.4127 -0.6305
 4027TIP3   OH233571   1.611   2.840   4.457  0.4988  0.3730 -0.0731
 4027TIP3    H133572   1.700   2.809   4.470  0.9710  1.7393  0.0879
 4027TIP3    H233573   1.587   2.881   4.540 -0.0543  0.5685 -0.3209
 4028TIP3   OH233574   1.868   1.529  13.825  0.2970 -0.1993  0.3641
 4028TIP3    H133575   1.927   1.486  13.762 -0.2001 -1.0524  0.4723
 4028TIP3    H233576   1.923   1.546  13.901  0.6130 -0.2191  0.1431
 4029TIP3   OH233577   6.686   2.470  13.553 -0.0759 -0.2293 -0.4856
 4029TIP3    H133578   6.705   2.552  13.598 -1.4451 -0.7069  1.0690
 4029TIP3    H233579   6.772   2.437  13.527  0.6145  0.9865  0.1310
 4030TIP3   OH233580   2.555   0.070   6.061  0.3884 -0.2792 -0.0743
 4030TIP3    H133581   2.643   0.099   6.085  0.3229 -0.8791  0.9692
 4030TIP3    H233582   2.498   0.112   6.125  0.0232 -0.6235 -0.1730
 4031TIP3   OH233583   2.296   2.983   5.962  0.5335 -0.9170 -0.3709
 4031TIP3    H133584   2.321   2.903   6.008 -0.4826 -0.4928  0.9802
 4031TIP3    H233585   2.200   2.981   5.960  0.3849  1.1258  1.3533
 4032TIP3   OH233586   6.817   1.436   3.022  0.1477 -0.3147 -0.0294
 4032TIP3    H133587   6.908   1.413   3.000 -0.7986 -1.5128 -3.1968
 4032TIP3    H233588   6.764   1.374   2.972 -2.4772  1.5818  0.2101
 4033TIP3   OH233589   6.160   0.335   1.656  0.1079 -0.0835 -0.3164
 4033TIP3    H133590   6.171   0.346   1.561  1.8396  0.1924 -0.1211
 4033TIP3    H233591   6.220   0.399   1.694 -1.1135  0.3176  0.9929
 4034TIP3   OH233592   4.479   6.015  12.661  0.4722 -0.0382  0.2235
 4034TIP3    H133593   4.420   5.940  12.665 -1.0412  1.1830  2.0935
 4034TIP3    H233594   4.444   6.070  12.591  0.0247  0.1789  0.6194
 4035TIP3   OH233595   1.501   4.012   4.742  0.7030  0.0370 -0.8760
 4035TIP3    H133596   1.444   4.011   4.664 -1.0808 -3.2694  0.2383
 4035TIP3    H233597   1.447   4.053   4.810  0.5702 -0.8572 -0.4230
 4036TIP3   OH233598   4.259   5.345  16.883  0.0037 -0.8075  0.6477
 4036TIP3    H133599   4.275   5.399  16.805 -2.0699  0.8696  1.2741
 4036TIP3    H233600   4.328   5.370  16.944  0.1012 -0.1692  0.2870
 4037TIP3   OH233601   6.403   0.274   4.635  0.3241  0.3865  0.1736
 4037TIP3    H133602   6.376   0.226   4.557  0.1416  0.4687  0.1867
 4037TIP3    H233603   6.482   0.321   4.608  1.5793 -1.3283  0.6418
 4038TIP3   OH233604   1.796   3.480  11.463  0.1777 -0.3753  0.8193
 4038TIP3    H133605   1.852   3.457  11.537  2.0966  1.7666  0.1880
 4038TIP3    H233606   1.829   3.427  11.390  0.8606  0.2291  0.6659
 4039TIP3   OH233607   2.226   6.147   2.421  0.4312 -0.3515  0.8249
 4039TIP3    H133608   2.150   6.205   2.416  0.2430 -0.5117  1.6644
 4039TIP3    H233609   2.301   6.207   2.422  0.3411 -0.1966 -0.1437
 4040TIP3   OH233610   2.078   6.637  15.032  0.0482  0.6111  0.3063
 4040TIP3    H133611   2.160   6.588  15.041  0.0302  0.3043 -0.9216
 4040TIP3    H233612   2.046   6.612  14.945  0.2578  3.1413 -0.5797
 4041TIP3   OH233613   4.275   6.267   3.475  0.6717 -0.6627  0.3780
 4041TIP3    H133614   4.186   6.265   3.441  1.1597  0.9137 -1.0751
 4041TIP3    H233615   4.267   6.233   3.565 -1.5358  0.3643  0.6182
 4042TIP3   OH233616   3.728   6.609  16.546 -0.3504  0.3271 -0.4727
 4042TIP3    H133617   3.698   6.522  16.571  0.1483  0.7315  1.7029
 4042TIP3    H233618   3.824   6.601  16.542 -0.2398  0.9451  0.5539
 4043TIP3   OH233619   2.010   1.877  12.974  0.1170  0.0501 -0.0777
 4043TIP3    H133620   1.973   1.936  12.909 -0.1253  0.8533  0.7655
 4043TIP3    H233621   1.940   1.862  13.037  0.2355 -1.0017 -0.1701
 4044TIP3   OH233622   3.455   0.410  15.851  0.0174 -0.1895  0.4637
 4044TIP3    H133623   3.402   0.333  15.831  1.1248 -0.8414 -0.1075
 4044TIP3    H233624   3.518   0.379  15.917  0.4606  0.2181  0.2414
 4045TIP3   OH233625   2.554   2.613   5.311  0.0443 -0.0282 -0.0729
 4045TIP3    H133626   2.481   2.671   5.293  0.3502  0.3516 -0.1087
 4045TIP3    H233627   2.550   2.598   5.406  1.4666  2.1420  0.4095
 4046TIP3   OH233628   2.427   6.783  16.182 -0.7936 -0.0721  0.4149
 4046TIP3    H133629   2.443   6.743  16.267 -3.2895 -1.6459  0.2549
 4046TIP3    H233630   2.471   6.726  16.119 -0.6221 -0.0416  0.5070
 4047TIP3   OH233631   6.745   0.368   4.232 -0.4893 -0.3592  0.6672
 4047TIP3    H133632   6.659   0.396   4.264 -0.0651  1.1171  0.5951
 4047TIP3    H233633   6.791   0.450   4.213  0.3719 -1.1413 -0.8084
 4048TIP3   OH233634   4.641   5.661  15.913 -0.6722  0.4392  0.3236
 4048TIP3    H133635   4.640   5.582  15.968 -0.9856  0.7944  0.8346
 4048TIP3    H233636   4.728   5.661  15.873 -0.6101 -0.0785  0.4461
 4049TIP3   OH233637   4.937   4.351  13.541 -0.1982  0.0376 -0.4553
 4049TIP3    H133638   4.959   4.427  13.595  2.8970 -0.6054 -0.6228
 4049TIP3    H233639   4.968   4.373  13.454  0.5398 -1.2897 -0.5551
 4050TIP3   OH233640   4.774   2.132   0.629 -0.4313 -0.8779  0.5531
 4050TIP3    H133641   4.699   2.187   0.651  1.6342  1.9820  0.9171
 4050TIP3    H233642   4.820   2.120   0.712  1.6176  0.8627 -0.2542
 4051TIP3   OH233643   5.351   0.236  14.103 -0.2251 -0.5940  0.0553
 4051TIP3    H133644   5.311   0.250  14.018 -0.8729  1.6354  0.6658
 4051TIP3    H233645   5.280   0.200  14.157 -0.8885  1.3718  0.5689
 4052TIP3   OH233646   4.139   4.666   4.065 -0.0863 -0.3281  0.6551
 4052TIP3    H133647   4.116   4.609   3.991 -0.4976 -0.4910  0.9031
 4052TIP3    H233648   4.102   4.751   4.041  1.1929  0.0500 -0.0698
 4053TIP3   OH233649   5.373   3.055   0.327 -0.0490  0.6074  0.0538
 4053TIP3    H133650   5.307   3.123   0.329 -1.0137 -0.2149 -1.7076
 4053TIP3    H233651   5.431   3.079   0.254  0.8491  0.6277  0.7495
 4054TIP3   OH233652   1.954   2.169   3.998 -0.1788 -1.2037 -0.2370
 4054TIP3    H133653   1.905   2.180   4.079 -1.1589 -1.9718 -0.7025
 4054TIP3    H233654   1.949   2.254   3.955  0.6422 -0.6884  0.6442
 4055TIP3   OH233655   4.536   6.182  16.050  0.2373 -0.1068 -0.1373
 4055TIP3    H133656   4.530   6.110  16.113  0.2852  0.2261  0.2492
 4055TIP3    H233657   4.613   6.160  15.997  2.8112  1.6563  2.5673
 4056TIP3   OH233658   6.020   4.682  15.580 -0.1493 -0.5877 -0.1262
 4056TIP3    H133659   5.938   4.686  15.629 -0.2224 -1.0726 -0.2033
 4056TIP3    H233660   6.053   4.772  15.582 -0.4267 -0.4899  0.3377
 4057TIP3   OH233661   6.601   6.697  13.242 -0.0072 -0.4578  0.3339
 4057TIP3    H133662   6.552   6.773  13.212  0.7410 -0.2976 -0.5394
 4057TIP3    H233663   6.686   6.732  13.270  0.4154 -0.9655 -0.2551
 4058TIP3   OH233664   0.843   5.876   5.702  0.2395  0.4666 -0.2960
 4058TIP3    H133665   0.849   5.932   5.779  2.1779  0.4334 -0.3796
 4058TIP3    H233666   0.913   5.812   5.714  0.2943  0.2047 -1.8865
 4059TIP3   OH233667   1.375   1.170   3.301 -0.4730 -0.3553  0.1215
 4059TIP3    H133668   1.446   1.134   3.355  0.4041  0.0864 -0.7134
 4059TIP3    H233669   1.332   1.233   3.359 -0.5872 -1.0790  0.8426
 4060TIP3   OH233670   3.314   3.798   3.255 -0.4356 -0.5319 -0.0615
 4060TIP3    H133671   3.287   3.713   3.291  2.7037 -2.3634 -1.6271
 4060TIP3    H233672   3.309   3.787   3.160  2.0157  0.2179 -0.3407
 4061TIP3   OH233673   6.448   5.710  11.986  0.2936 -0.2735  0.6657
 4061TIP3    H133674   6.524   5.725  11.929  0.1907  0.7490  0.7754
 4061TIP3    H233675   6.421   5.797  12.013 -1.3456 -0.5638  0.0983
 4062TIP3   OH233676   4.726   6.672  15.903  0.2931  0.2406  0.4239
 4062TIP3    H133677   4.724   6.686  15.998 -0.3908 -1.0027  0.6231
 4062TIP3    H233678   4.801   6.615  15.889 -0.4684 -0.8026  0.4351
 4063TIP3   OH233679   4.889   6.335  14.426  0.1126 -0.4586 -0.0722
 4063TIP3    H133680   4.921   6.422  14.449 -0.8526 -0.1254  0.0880
 4063TIP3    H233681   4.836   6.350  14.347  1.5760 -1.2305 -1.2455
 4064TIP3   OH233682   3.758   2.452   0.467  0.6911 -0.3706 -0.2549
 4064TIP3    H133683   3.711   2.397   0.404 -0.4484  3.2158 -2.8741
 4064TIP3    H233684   3.851   2.437   0.448  0.4145 -1.2818 -0.9492
 4065TIP3   OH233685   0.671   2.696   2.553  0.4478 -0.1275 -0.4854
 4065TIP3    H133686   0.632   2.732   2.473 -0.9150 -2.2384 -0.8390
 4065TIP3    H233687   0.597   2.686   2.613  1.1836 -0.1524  0.4313
 4066TIP3   OH233688   6.406   2.142  14.997  0.1917  0.3527  0.0690
 4066TIP3    H133689   6.369   2.161  15.083 -3.5508 -0.2476 -1.2139
 4066TIP3    H233690   6.399   2.224  14.948  1.9896  0.6057  0.1894
 4067TIP3   OH233691   5.985   6.078   6.127  0.1941 -0.5275  0.4347
 4067TIP3    H133692   6.002   6.004   6.185 -0.1782 -1.5805 -0.7483
 4067TIP3    H233693   5.900   6.112   6.155  0.3381 -0.5933  0.9491
 4068TIP3   OH233694   0.566   5.780   0.508 -0.5626 -0.1525  0.1845
 4068TIP3    H133695   0.631   5.719   0.543 -1.3918  0.0850  2.2640
 4068TIP3    H233696   0.503   5.725   0.462  0.9940 -0.3928 -1.8021
 4069TIP3   OH233697   1.630   6.140  16.495  0.0720 -0.1491  0.4302
 4069TIP3    H133698   1.721   6.162  16.516  0.4467 -1.2004 -0.0290
 4069TIP3    H233699   1.636   6.073  16.427 -1.0450 -0.5066  0.6606
 4070TIP3   OH233700   5.077   5.602   2.138 -0.2084  0.3605 -0.0030
 4070TIP3    H133701   5.129   5.542   2.084  1.0650  1.6386 -0.2316
 4070TIP3    H233702   5.057   5.675   2.080  0.8689  1.5866  1.1299
 4071TIP3   OH233703   4.497   5.215  10.982 -0.8872  0.1402 -0.0030
 4071TIP3    H133704   4.515   5.226  10.889 -2.6658  1.1853 -0.2648
 4071TIP3    H233705   4.554   5.278  11.026 -0.7834  0.3746 -0.4693
 4072TIP3   OH233706   5.109   1.086   2.963  0.6865 -0.2333  0.4678
 4072TIP3    H133707   5.061   1.146   3.020  0.8551 -1.6153  2.1436
 4072TIP3    H233708   5.135   1.140   2.889 -1.0896  1.2143  0.8033
 4073TIP3   OH233709   3.764   5.705  13.458 -0.3069  0.0339  0.0516
 4073TIP3    H133710   3.827   5.633  13.457 -1.3109 -0.8906  0.6681
 4073TIP3    H233711   3.818   5.784  13.467  0.7418 -0.7838  1.4572
 4074TIP3   OH233712   2.772   5.659   3.137  0.3848  0.4477  0.0886
 4074TIP3    H133713   2.828   5.643   3.213 -1.1517  1.5638  1.5347
 4074TIP3    H233714   2.740   5.749   3.150  0.6944  0.9500 -2.3032
 4075TIP3   OH233715   0.190   5.842   0.089 -0.5944 -0.6527  0.2954
 4075TIP3    H133716   0.199   5.922   0.140 -0.7535 -0.7757  0.5205
 4075TIP3    H233717   0.259   5.785   0.121 -0.4066 -0.5624  0.0522
 4076TIP3   OH233718   6.028   2.175  10.592  0.1205  0.3215  0.1399
 4076TIP3    H133719   6.093   2.128  10.644 -0.6157 -0.8563  0.0402
 4076TIP3    H233720   5.953   2.115  10.588 -0.2066  0.7910 -1.4555
 4077TIP3   OH233721   0.661   3.359  12.666  0.0071 -0.3281 -0.2649
 4077TIP3    H133722   0.667   3.296  12.738 -2.5666 -0.0201  0.3106
 4077TIP3    H233723   0.705   3.437  12.699  1.9687 -1.2931 -0.4423
 4078TIP3   OH233724   3.829   2.553   1.259  0.3826  0.4902  0.0775
 4078TIP3    H133725   3.768   2.486   1.288 -0.0873  0.6403 -0.5546
 4078TIP3    H233726   3.799   2.633   1.303  0.4815  0.4462  0.2272
 4079TIP3   OH233727   5.333   5.328  12.772 -0.4240 -0.2387 -0.3405
 4079TIP3    H133728   5.319   5.352  12.681 -1.8513 -0.5762 -0.2237
 4079TIP3    H233729   5.427   5.344  12.786 -0.5711  1.7652 -1.2667
 4080TIP3   OH233730   3.450   3.469   5.675  0.1562 -0.1380  0.3263
 4080TIP3    H133731   3.544   3.482   5.662  0.0088  1.9663  1.0656
 4080TIP3    H233732   3.411   3.490   5.590  0.2413  0.2950  0.3969
 4081TIP3   OH233733   2.962   4.970   2.254 -0.2216  0.4002 -0.0907
 4081TIP3    H133734   2.905   4.921   2.314 -1.3638  1.0486 -0.6076
 4081TIP3    H233735   2.918   5.055   2.243  1.3981  1.3412  0.3150
 4082TIP3   OH233736   5.444   6.777   5.883  0.4149  0.3640 -0.6341
 4082TIP3    H133737   5.442   6.770   5.979  1.8903 -1.1632 -0.6632
 4082TIP3    H233738   5.443   6.871   5.866  1.7826  0.7259  0.9536
 4083TIP3   OH233739   4.742   1.321   3.455 -0.2615 -0.3635  0.1503
 4083TIP3    H133740   4.769   1.272   3.377 -0.3933  1.7511 -1.3188
 4083TIP3    H233741   4.650   1.342   3.439 -0.3819 -0.1733  1.0432
 4084TIP3   OH233742   1.414   3.941  14.129 -0.3096 -0.0412  0.4018
 4084TIP3    H133743   1.342   3.981  14.178 -0.2005 -1.0761  1.4610
 4084TIP3    H233744   1.390   3.848  14.124 -0.5644  0.0820 -1.9998
 4085TIP3   OH233745   0.999   0.806   5.356 -0.5534 -0.1350  0.1513
 4085TIP3    H133746   1.085   0.847   5.347 -0.5695  0.3835  2.0241
 4085TIP3    H233747   1.017   0.719   5.392 -0.8042 -0.1678  0.2015
 4086TIP3   OH233748   1.862   0.488   4.392 -0.3538 -0.4059 -0.7077
 4086TIP3    H133749   1.819   0.452   4.469 -1.7526  1.1534 -0.7172
 4086TIP3    H233750   1.872   0.581   4.410  2.5076 -0.5620 -0.9873
 4087TIP3   OH233751   2.339   4.558  12.169  0.1952  0.1752 -0.0187
 4087TIP3    H133752   2.320   4.482  12.114  0.4101 -0.4621  0.7694
 4087TIP3    H233753   2.304   4.632  12.120  1.3541 -0.2372 -1.5216
 4088TIP3   OH233754   5.442   2.463  15.743 -0.3085 -0.4538 -0.6266
 4088TIP3    H133755   5.455   2.409  15.821  0.9762 -1.0724 -1.2315
 4088TIP3    H233756   5.531   2.483  15.713 -0.7793  0.9778 -1.1242
 4089TIP3   OH233757   0.600   3.915   4.843  0.3966 -0.1370  0.3440
 4089TIP3    H133758   0.614   3.962   4.761  0.3572  0.5032  0.6923
 4089TIP3    H233759   0.505   3.918   4.857  0.5193  0.9851  1.0989
 4090TIP3   OH233760   4.668   4.401  10.643 -0.1526  0.3719  0.0151
 4090TIP3    H133761   4.679   4.307  10.631  2.0854  0.8085 -2.1178
 4090TIP3    H233762   4.575   4.416  10.628 -0.4883 -1.4425  0.0418
 4091TIP3   OH233763   0.798   2.131  10.135 -0.4005  0.1874  0.2920
 4091TIP3    H133764   0.719   2.152  10.085 -0.0897 -1.0645 -0.7919
 4091TIP3    H233765   0.782   2.043  10.170  0.2652  0.1718  0.5799
 4092TIP3   OH233766   6.436   6.262  14.047  0.3630 -0.0435  0.1257
 4092TIP3    H133767   6.445   6.315  14.126 -0.9446 -0.0903  0.3202
 4092TIP3    H233768   6.486   6.311  13.981  0.6194  0.5268  0.7236
 4093TIP3   OH233769   2.115   2.686   0.966  0.1185 -0.0510  0.5506
 4093TIP3    H133770   2.207   2.678   0.940 -0.8236  0.1917 -3.4223
 4093TIP3    H233771   2.095   2.779   0.952 -0.6534  0.0194  1.9458
 4094TIP3   OH233772   0.375   3.988   3.845  0.6939 -0.4172  0.2999
 4094TIP3    H133773   0.351   3.963   3.934  0.2577 -1.7288 -0.1564
 4094TIP3    H233774   0.300   3.960   3.792  1.7226 -1.3629 -0.7120
 4095TIP3   OH233775   1.127   5.387  11.201  0.2694  0.2380 -0.3145
 4095TIP3    H133776   1.194   5.396  11.133  0.0812  1.0443 -0.4101
 4095TIP3    H233777   1.120   5.293  11.216  0.2823  0.0406 -1.4563
 4096TIP3   OH233778   4.561   2.002   2.120 -0.0188  0.2816 -0.6301
 4096TIP3    H133779   4.489   2.009   2.057 -0.4569  1.5858 -0.0143
 4096TIP3    H233780   4.635   2.042   2.075 -0.0503  0.2612 -0.7017
 4097TIP3   OH233781   6.609   2.426   3.693 -0.4701  0.4950  0.5230
 4097TIP3    H133782   6.608   2.330   3.699 -0.7028  0.3411 -1.3671
 4097TIP3    H233783   6.698   2.451   3.716  0.1251 -0.3519 -0.7706
 4098TIP3   OH233784   5.182   5.280  15.855 -0.1510 -0.1769 -0.4172
 4098TIP3    H133785   5.240   5.272  15.931  0.2831  0.6903 -0.6559
 4098TIP3    H233786   5.115   5.213  15.870  1.8914 -2.4912 -1.0444
 4099TIP3   OH233787   2.608   2.116  15.147  0.0233  0.0082 -0.0258
 4099TIP3    H133788   2.657   2.062  15.085  0.3188 -0.3635  0.5257
 4099TIP3    H233789   2.536   2.060  15.176 -1.1452  0.7705 -1.3240
 4100TIP3   OH233790   0.557   2.074   3.920  0.4856  0.0530  0.1408
 4100TIP3    H133791   0.490   2.038   3.863  1.4732 -0.5957 -0.6513
 4100TIP3    H233792   0.515   2.149   3.963 -0.4155  0.2845 -1.0917
 4101TIP3   OH233793   6.172   1.528   0.141 -0.1822 -0.0108  0.0977
 4101TIP3    H133794   6.211   1.577   0.214  0.1004 -1.0337  0.6620
 4101TIP3    H233795   6.141   1.447   0.181  1.8868 -1.5872 -1.2279
 4102TIP3   OH233796   2.832   1.255   5.906 -0.4313  0.0445  0.4491
 4102TIP3    H133797   2.889   1.238   5.981  1.5644  2.5819 -0.3253
 4102TIP3    H233798   2.764   1.312   5.940 -1.1440 -1.0263  0.8645
 4103TIP3   OH233799   6.808   1.002   0.439  0.2245 -0.0451  0.2787
 4103TIP3    H133800   6.880   1.055   0.405 -0.3378 -0.4961 -1.7710
 4103TIP3    H233801   6.841   0.912   0.436  0.4062 -0.0476  1.6660
 4104TIP3   OH233802   5.228   2.731   1.820  0.2415 -0.2600 -0.1488
 4104TIP3    H133803   5.236   2.636   1.811 -0.3043 -0.1040 -4.1353
 4104TIP3    H233804   5.318   2.762   1.826  0.4705 -0.9753  0.1871
 4105TIP3   OH233805   3.097   6.291   2.629  0.2885 -0.2114  0.4787
 4105TIP3    H133806   3.186   6.257   2.640  1.0517  1.5128  0.0010
 4105TIP3    H233807   3.077   6.334   2.712 -1.1504 -2.6903  1.5396
 4106TIP3   OH233808   4.286   4.519   4.933  0.7517 -0.3485  0.4399
 4106TIP3    H133809   4.275   4.611   4.908 -0.8062 -1.2105 -2.5429
 4106TIP3    H233810   4.226   4.507   5.006 -0.0791  0.7359 -0.0257
 4107TIP3   OH233811   1.973   2.423   3.547 -0.2108  0.0218  0.5180
 4107TIP3    H133812   1.956   2.331   3.529 -2.1404  0.7396 -1.9208
 4107TIP3    H233813   1.906   2.448   3.610  1.1618 -0.4954  2.2476
 4108TIP3   OH233814   6.154   1.059   1.572  0.2852  0.3532 -0.2609
 4108TIP3    H133815   6.100   1.053   1.651  0.5076 -1.4154 -0.2010
 4108TIP3    H233816   6.231   1.108   1.599 -0.5984  1.6336  0.0369
 4109TIP3   OH233817   0.464   5.607  15.508  0.2396  0.1518  0.1290
 4109TIP3    H133818   0.425   5.599  15.421 -1.4329 -0.7966  0.9239
 4109TIP3    H233819   0.405   5.665  15.556  0.0604 -0.8969  1.2150
 4110TIP3   OH233820   3.456   1.480   3.428 -1.0771  0.5103  0.2400
 4110TIP3    H133821   3.548   1.477   3.402 -0.7015 -0.6569  1.5762
 4110TIP3    H233822   3.438   1.573   3.443  0.6192  0.5912  2.3025
 4111TIP3   OH233823   0.275   3.026   4.030 -0.0432 -0.5070 -0.3508
 4111TIP3    H133824   0.310   2.958   3.973 -1.2264 -2.2479  0.8656
 4111TIP3    H233825   0.183   3.002   4.042 -0.0308  0.2135  1.6161
 4112TIP3   OH233826   0.559   2.219   4.954  0.0683 -0.1266  0.7008
 4112TIP3    H133827   0.589   2.184   4.870  4.0297  1.7495  1.1376
 4112TIP3    H233828   0.478   2.266   4.932  0.8719  0.1545 -2.0834
 4113TIP3   OH233829   3.719   0.965  13.952  0.1135 -0.4171  0.1988
 4113TIP3    H133830   3.765   0.996  14.030 -0.8949  0.8587  0.3118
 4113TIP3    H233831   3.744   1.026  13.883  1.7510 -2.0711 -0.7971
 4114TIP3   OH233832   5.835   0.421  13.521  0.2617  0.1593  0.6324
 4114TIP3    H133833   5.866   0.339  13.482  1.8011  1.5405 -1.2212
 4114TIP3    H233834   5.740   0.419  13.507  0.3631 -0.9399 -0.0867
 4115TIP3   OH233835   4.293   3.814  12.062 -0.0010 -0.2184  0.3281
 4115TIP3    H133836   4.379   3.775  12.047 -0.6248 -1.1150 -1.0716
 4115TIP3    H233837   4.289   3.887  12.001 -1.0709 -1.5593 -1.3015
 4116TIP3   OH233838   5.949   1.528  12.077 -0.1276 -0.1641 -0.6454
 4116TIP3    H133839   6.042   1.532  12.055  0.1069  0.9813  0.4632
 4116TIP3    H233840   5.918   1.447  12.035  1.4480 -0.7818 -0.6948
 4117TIP3   OH233841   3.864   4.870   1.270 -0.0148 -0.2168 -0.4459
 4117TIP3    H133842   3.792   4.926   1.242 -0.2372 -0.6100 -0.6726
 4117TIP3    H233843   3.891   4.906   1.354  0.7734  1.0785 -1.2260
 4118TIP3   OH233844   3.903   0.275  14.173 -0.0029  0.3712  0.2406
 4118TIP3    H133845   3.905   0.207  14.240  0.8131  0.6385  0.4988
 4118TIP3    H233846   3.840   0.243  14.108 -0.6495  0.0147  1.0302
 4119TIP3   OH233847   5.386   3.596   1.157  0.1732 -0.1063 -0.4003
 4119TIP3    H133848   5.467   3.637   1.187  0.2341 -1.3344  1.2324
 4119TIP3    H233849   5.317   3.660   1.178  0.7163  1.1417 -2.2208
 4120TIP3   OH233850   1.674   5.822   1.409 -0.9453 -0.0455 -0.1094
 4120TIP3    H133851   1.623   5.741   1.415 -1.8732  0.4825 -0.6215
 4120TIP3    H233852   1.682   5.838   1.315 -2.0472  1.2219 -0.0255
 4121TIP3   OH233853   5.866   0.074   4.470  0.3739  0.3832 -0.2516
 4121TIP3    H133854   5.934   0.007   4.474  0.0828  0.1243  1.6908
 4121TIP3    H233855   5.913   0.157   4.464  0.7358  0.0769 -3.2957
 4122TIP3   OH233856   0.435   5.012   4.637  0.2744  0.5630 -0.1940
 4122TIP3    H133857   0.404   4.954   4.567  1.8961 -1.7648  0.9262
 4122TIP3    H233858   0.354   5.045   4.678 -0.7038  1.3471 -2.5609
 4123TIP3   OH233859   0.534   5.488  14.622 -0.0072  0.6919 -0.0378
 4123TIP3    H133860   0.623   5.468  14.649 -1.1402 -1.5996  2.4915
 4123TIP3    H233861   0.518   5.576  14.655  1.6625  1.7035 -1.7317
 4124TIP3   OH233862   0.938   1.656  15.008  0.3861  0.3223 -0.1319
 4124TIP3    H133863   0.972   1.578  15.052  0.7396  0.9962  0.8085
 4124TIP3    H233864   0.852   1.671  15.049  0.4093  0.5511 -0.1677
 4125TIP3   OH233865   1.348   3.925   3.289 -0.5178 -0.4406 -0.3812
 4125TIP3    H133866   1.321   3.998   3.234 -2.0227  0.3872  1.3446
 4125TIP3    H233867   1.354   3.963   3.377 -0.9007 -2.2979  0.4803
 4126TIP3   OH233868   2.806   4.520  13.300 -0.5859 -0.0785 -0.2575
 4126TIP3    H133869   2.808   4.509  13.395  4.7330  0.6321  0.0159
 4126TIP3    H233870   2.863   4.451  13.267 -0.5558  0.9927 -2.6537
 4127TIP3   OH233871   0.374   2.798   3.924  0.0477  0.9663  0.0970
 4127TIP3    H133872   0.380   2.807   3.829 -0.0357  0.8548  0.0809
 4127TIP3    H233873   0.295   2.746   3.938  0.5066  0.2876  0.1850
 4128TIP3   OH233874   2.734   0.367   3.237 -0.7498  0.4222 -0.2528
 4128TIP3    H133875   2.742   0.298   3.303  0.8573  0.4318 -0.4048
 4128TIP3    H233876   2.712   0.320   3.157 -0.6710  0.1865 -0.1389
 4129TIP3   OH233877   0.210   3.867   2.754 -0.0126  0.7629 -0.0597
 4129TIP3    H133878   0.139   3.803   2.765  0.3402  0.2723 -0.5945
 4129TIP3    H233879   0.289   3.821   2.782  0.3217  0.7794 -0.9336
 4130TIP3   OH233880   1.030   6.483  14.126  0.2170  0.0205  0.3026
 4130TIP3    H133881   1.003   6.439  14.046 -0.3822  2.8021 -1.1527
 4130TIP3    H233882   1.087   6.554  14.096  1.8278 -0.2127  2.5708
 4131TIP3   OH233883   1.332   1.037   2.282  0.2374 -0.5190 -0.6396
 4131TIP3    H133884   1.384   1.090   2.221 -0.4603  0.6581 -0.2437
 4131TIP3    H233885   1.246   1.078   2.281  0.3045 -0.2331  1.4010
 4132TIP3   OH233886   3.372   4.053   0.922  0.4555 -0.0271  0.2084
 4132TIP3    H133887   3.283   4.031   0.949  0.0310 -0.5233 -1.4863
 4132TIP3    H233888   3.420   3.970   0.924 -0.1880 -0.5672 -2.6321
 4133TIP3   OH233889   5.614   2.907  13.820 -0.5044 -0.1452  0.7914
 4133TIP3    H133890   5.623   2.835  13.883 -0.0459 -0.0365  0.8527
 4133TIP3    H233891   5.690   2.898  13.763 -0.0261  0.7497  1.2722
 4134TIP3   OH233892   5.027   6.549  16.184  0.3694  0.0367  0.4156
 4134TIP3    H133893   5.120   6.569  16.200  0.1032  0.4105  1.5670
 4134TIP3    H233894   4.985   6.635  16.179  0.2827 -0.0774 -1.5618
 4135TIP3   OH233895   1.811   1.536   2.141 -0.0784 -0.5441 -0.1401
 4135TIP3    H133896   1.821   1.589   2.220  0.2845 -2.1673  0.9459
 4135TIP3    H233897   1.883   1.564   2.085  1.4655 -1.3885  1.3331
 4136TIP3   OH233898   2.609   1.216   4.872 -0.5566  0.4335  0.4321
 4136TIP3    H133899   2.654   1.157   4.932 -0.6396  1.5752  1.6783
 4136TIP3    H233900   2.646   1.302   4.891 -0.0445  0.7292 -1.7182
 4137TIP3   OH233901   5.976   3.594   6.035  0.5065 -0.1969 -0.4474
 4137TIP3    H133902   5.973   3.548   6.119 -0.8468 -1.5377 -1.1794
 4137TIP3    H233903   6.058   3.564   5.995  0.7013 -0.2637 -0.0094
 4138TIP3   OH233904   5.186   4.700  13.909 -0.0827 -0.4173  0.1681
 4138TIP3    H133905   5.161   4.786  13.943  0.1332 -0.5585  0.6974
 4138TIP3    H233906   5.266   4.717  13.859  1.6157 -0.7096  2.6189
 4139TIP3   OH233907   3.359   0.251   1.209  0.3449  0.2344  0.0641
 4139TIP3    H133908   3.270   0.276   1.233 -0.1596  0.3264 -1.7674
 4139TIP3    H233909   3.358   0.247   1.113  2.1894 -0.2283  0.0270
 4140TIP3   OH233910   6.472   0.314  10.655  0.5522 -0.3093  0.6099
 4140TIP3    H133911   6.465   0.405  10.684 -2.3934  0.1074 -0.9494
 4140TIP3    H233912   6.422   0.265  10.720 -0.4829 -0.3181 -0.1652
 4141TIP3   OH233913   0.188   4.496   4.117 -0.2036  0.7750  0.0762
 4141TIP3    H133914   0.255   4.427   4.123 -2.5034 -1.5461  1.0949
 4141TIP3    H233915   0.138   4.473   4.039 -1.8174  0.4255  1.1677
 4142TIP3   OH233916   6.442   3.380   4.326 -0.0807 -0.3397 -0.2727
 4142TIP3    H133917   6.468   3.471   4.308 -1.6646  0.5035  1.3401
 4142TIP3    H233918   6.522   3.340   4.361  0.6127  0.4598 -0.8863
 4143TIP3   OH233919   1.422   5.333   5.445 -0.1938 -0.0374 -0.2076
 4143TIP3    H133920   1.473   5.402   5.403  1.5092 -0.8947  0.3689
 4143TIP3    H233921   1.332   5.350   5.418  0.4490  1.1979 -1.7199
 4144TIP3   OH233922   3.984   3.009  14.166 -0.0598  0.1302 -0.2768
 4144TIP3    H133923   4.050   2.943  14.186  1.2180  1.1352 -0.9632
 4144TIP3    H233924   3.900   2.965  14.180  0.7458 -1.0715  0.9918
 4145TIP3   OH233925   3.735   3.830  13.681  0.2273 -0.5218 -0.0528
 4145TIP3    H133926   3.656   3.879  13.703  0.7805  0.4925 -0.2896
 4145TIP3    H233927   3.783   3.887  13.622  1.6198 -0.6800  0.8735
 4146TIP3   OH233928   4.461   6.167   1.194  0.0610 -0.0337 -0.4761
 4146TIP3    H133929   4.520   6.209   1.257  1.1106  0.8977 -2.0053
 4146TIP3    H233930   4.375   6.203   1.213 -0.0439 -1.2007  1.6159
 4147TIP3   OH233931   4.098   3.301  12.161 -0.0847  0.0512 -0.5461
 4147TIP3    H133932   4.153   3.366  12.205  0.1544  0.6922 -1.7495
 4147TIP3    H233933   4.144   3.281  12.079 -0.7658 -0.7268 -0.7529
 4148TIP3   OH233934   4.137   6.073  16.062  0.3420 -0.0124 -0.4711
 4148TIP3    H133935   4.181   6.128  15.998 -0.8878  0.9594 -0.5190
 4148TIP3    H233936   4.099   6.135  16.125 -0.2802 -0.8483  0.0037
 4149TIP3   OH233937   5.271   4.658  16.144 -0.0681 -0.1148 -0.0471
 4149TIP3    H133938   5.364   4.642  16.132 -0.3925 -3.1118  0.6846
 4149TIP3    H233939   5.257   4.652  16.238 -1.0074  0.3654 -0.1422
 4150TIP3   OH233940   5.695   0.313   1.913 -0.4471  0.1658 -0.0402
 4150TIP3    H133941   5.720   0.404   1.898 -1.7040  0.9752  2.2549
 4150TIP3    H233942   5.672   0.279   1.826  1.1679  1.6459 -1.1000
 4151TIP3   OH233943   1.501   0.068   3.761 -0.4622 -0.5195 -0.0541
 4151TIP3    H133944   1.437   0.075   3.832 -0.6569 -3.4876  0.2112
 4151TIP3    H233945   1.552   0.149   3.766 -1.0165 -0.2258  2.9275
 4152TIP3   OH233946   3.159   4.159   3.882 -0.2456 -0.8767  0.4641
 4152TIP3    H133947   3.196   4.119   3.803 -0.1843 -0.0046  0.0376
 4152TIP3    H233948   3.076   4.113   3.897 -0.9367 -0.1290 -0.9171
 4153TIP3   OH233949   1.911   2.652  14.720  0.1434  0.5754 -0.2668
 4153TIP3    H133950   1.886   2.560  14.728 -0.0962  0.7660  1.6858
 4153TIP3    H233951   2.006   2.652  14.726  0.0396  0.6031  2.2643
 4154TIP3   OH233952   5.232   5.005  15.605  0.3627  0.1074  0.0460
 4154TIP3    H133953   5.240   4.919  15.646  0.3792  0.5548  0.9959
 4154TIP3    H233954   5.140   5.028  15.618 -0.4454 -1.0372 -2.8293
 4155TIP3   OH233955   5.320   6.708  11.203 -0.2570 -0.7049  0.3422
 4155TIP3    H133956   5.296   6.713  11.110  0.4047  0.1797  0.2098
 4155TIP3    H233957   5.382   6.635  11.207  0.2537 -0.2993 -0.0384
 4156TIP3   OH233958   1.664   0.168  11.978  0.4087  0.0718 -0.0305
 4156TIP3    H133959   1.753   0.193  11.954  0.4492 -0.0300  0.0112
 4156TIP3    H233960   1.666   0.072  11.978  0.6187  0.0563  1.1274
 4157TIP3   OH233961   4.793   4.965   5.409  0.0443 -0.0672  0.1246
 4157TIP3    H133962   4.793   4.873   5.433  1.0662 -0.1982 -0.3406
 4157TIP3    H233963   4.883   4.994   5.425  0.0161  0.5574 -0.8170
 4158TIP3   OH233964   0.743   2.613   0.508 -0.4328 -0.0618  0.2024
 4158TIP3    H133965   0.769   2.547   0.443  1.7295  2.0389 -1.2551
 4158TIP3    H233966   0.680   2.668   0.462  0.7694  1.1676 -0.0579
 4159TIP3   OH233967   1.151   3.064   0.045 -0.2565 -0.1080  0.2415
 4159TIP3    H133968   1.177   2.994  -0.015 -1.4935 -0.4375  0.0483
 4159TIP3    H233969   1.201   3.140   0.016  0.8198 -0.8042  0.2077
 4160TIP3   OH233970   1.392   4.912  11.353 -0.1253  0.2488  0.5655
 4160TIP3    H133971   1.384   4.863  11.271  0.8455  1.2708 -0.1552
 4160TIP3    H233972   1.485   4.910  11.374 -0.2765  0.5341  1.3178
 4161TIP3   OH233973   2.557   0.144   1.570 -0.0613  0.4666 -0.1713
 4161TIP3    H133974   2.540   0.148   1.664  0.6535 -1.7940  0.1351
 4161TIP3    H233975   2.648   0.172   1.561  0.6474 -1.4970  0.1972
 4162TIP3   OH233976   2.454   0.616   5.345  0.2536 -0.2557  0.6864
 4162TIP3    H133977   2.403   0.616   5.426 -2.0070  0.5798 -0.6468
 4162TIP3    H233978   2.390   0.599   5.277  1.6768  1.3924 -1.1667
 4163TIP3   OH233979   2.948   6.220   5.873  0.2068  0.1650 -0.0233
 4163TIP3    H133980   2.880   6.266   5.824 -1.2612 -1.6197  0.2644
 4163TIP3    H233981   2.904   6.188   5.952  1.1968 -1.5326 -0.1156
 4164TIP3   OH233982   4.819   3.700  15.308  0.2481 -0.5264  0.3518
 4164TIP3    H133983   4.733   3.740  15.321  0.1386 -0.1805 -1.2350
 4164TIP3    H233984   4.881   3.764  15.342 -0.0430 -0.0325 -0.0467
 4165TIP3   OH233985   0.995   4.539  11.374 -0.5147  0.0045 -0.4893
 4165TIP3    H133986   1.028   4.522  11.286  0.2510 -1.9517  0.1315
 4165TIP3    H233987   0.949   4.459  11.399  0.2028  0.0804  1.2739
 4166TIP3   OH233988   0.705   0.727   2.958  0.4512 -0.4521 -0.5319
 4166TIP3    H133989   0.641   0.677   3.009 -0.2344  1.8086  0.9678
 4166TIP3    H233990   0.681   0.710   2.866 -0.6380 -1.6675 -0.0587
 4167TIP3   OH233991   0.871   0.780  11.450  0.5280 -0.5191  0.0322
 4167TIP3    H133992   0.872   0.688  11.474  0.6057 -0.6280 -0.3697
 4167TIP3    H233993   0.792   0.815  11.490  1.2507 -0.4170  1.4010
 4168TIP3   OH233994   6.457   3.099  10.987 -0.0519  0.1276  0.1842
 4168TIP3    H133995   6.509   3.166  11.031  1.5276  0.2362 -1.7482
 4168TIP3    H233996   6.482   3.017  11.030  1.1166  0.2869 -0.1550
 4169TIP3   OH233997   4.265   2.275   0.128  0.4128  0.1499  0.2550
 4169TIP3    H133998   4.303   2.270   0.216  0.0793  1.3195  0.4784
 4169TIP3    H233999   4.242   2.184   0.107  1.1461 -0.2449  1.0782
 4170TIP3   OH234000   0.169   2.307  11.191 -0.4958  0.0124  0.3834
 4170TIP3    H134001   0.152   2.347  11.105 -0.8729  1.6116  1.1694
 4170TIP3    H234002   0.198   2.380  11.246 -0.1997 -1.0011  1.6116
 4171TIP3   OH234003   3.672   4.604   0.742  0.3775  0.7140 -0.3037
 4171TIP3    H134004   3.629   4.643   0.819  1.2964  2.5801 -0.6770
 4171TIP3    H234005   3.760   4.641   0.742  1.0546 -0.7863 -1.1866
 4172TIP3   OH234006   3.787   3.580   1.381 -0.4583  0.0482 -0.0711
 4172TIP3    H134007   3.788   3.675   1.371 -1.8490  0.0100 -0.8832
 4172TIP3    H234008   3.746   3.565   1.466  0.2879  0.1734  0.3174
 4173TIP3   OH234009   1.787   5.937  14.681 -0.1022  0.0938  0.0480
 4173TIP3    H134010   1.776   6.026  14.713 -0.5402 -0.6975  2.2217
 4173TIP3    H234011   1.741   5.882  14.744  0.3799 -1.7198 -1.0903
 4174TIP3   OH234012   6.512   2.604  11.127 -0.0714  0.1396  0.4548
 4174TIP3    H134013   6.575   2.580  11.058 -1.2722  0.4645 -0.8003
 4174TIP3    H234014   6.552   2.572  11.208  0.0315 -2.9727 -0.6854
 4175TIP3   OH234015   1.805   4.032   2.176  0.1386 -0.3928  0.5136
 4175TIP3    H134016   1.785   4.125   2.171  3.1168  0.2877 -1.7027
 4175TIP3    H234017   1.749   3.992   2.109 -1.4597 -0.3480  1.7620
 4176TIP3   OH234018   1.147   0.825   3.236 -0.2281  0.0895  0.0105
 4176TIP3    H134019   1.209   0.881   3.189 -0.5024  0.1720 -0.2517
 4176TIP3    H234020   1.202   0.772   3.294  0.2169 -0.8994 -1.2904
 4177TIP3   OH234021   1.240   5.143  12.470 -0.5379  0.8372  0.4865
 4177TIP3    H134022   1.300   5.159  12.396  0.5152  0.7921  1.2979
 4177TIP3    H234023   1.277   5.196  12.541 -0.3401 -0.6964  1.5600
 4178TIP3   OH234024   1.518   0.374  15.181  0.4933  0.3381 -0.3094
 4178TIP3    H134025   1.601   0.419  15.170  0.7661 -0.3607 -1.1547
 4178TIP3    H234026   1.457   0.421  15.125  0.1320  1.2699  0.8194
 4179TIP3   OH234027   5.209   0.962  12.381  0.0826  0.0199 -0.3667
 4179TIP3    H134028   5.182   1.026  12.447  0.8956  0.7829 -0.7379
 4179TIP3    H234029   5.162   0.987  12.302  0.0877 -0.0934 -0.4061
 4180TIP3   OH234030   4.593   1.182   4.407  0.5133  0.0571 -0.1595
 4180TIP3    H134031   4.654   1.253   4.388  0.0813  0.6049  0.4827
 4180TIP3    H234032   4.517   1.201   4.352  0.6224 -0.2214 -0.4089
 4181TIP3   OH234033   0.848   2.866   1.736  0.1880 -0.2536 -0.3296
 4181TIP3    H134034   0.789   2.791   1.741  0.8809 -0.7242  1.6036
 4181TIP3    H234035   0.894   2.855   1.652 -0.7825 -1.1323 -0.7708
 4182TIP3   OH234036   2.713   6.567  15.261 -0.1431 -0.2031  0.0213
 4182TIP3    H134037   2.789   6.622  15.279 -1.2958  1.1783  0.9050
 4182TIP3    H234038   2.638   6.625  15.274 -1.3577 -1.5518 -0.7119
 4183TIP3   OH234039   3.604   6.196  15.069 -0.7691 -0.0871 -0.3793
 4183TIP3    H134040   3.667   6.185  15.141 -0.8666 -1.7910 -0.5106
 4183TIP3    H234041   3.596   6.108  15.030 -1.5958  0.5538 -1.7412
 4184TIP3   OH234042   3.205   0.648   1.283  0.3571 -0.3260  0.1002
 4184TIP3    H134043   3.151   0.697   1.345  0.0201  1.6201 -1.6068
 4184TIP3    H234044   3.292   0.646   1.322  0.1101  0.7022  0.7333
 4185TIP3   OH234045   0.613   4.234   2.203  0.9022 -0.3469 -0.1040
 4185TIP3    H134046   0.550   4.301   2.177 -1.9605 -2.7110  0.1625
 4185TIP3    H234047   0.614   4.173   2.129  1.2752 -1.4403  0.7786
 4186TIP3   OH234048   0.172   3.143  13.477 -1.0945  0.5038  0.3273
 4186TIP3    H134049   0.152   3.060  13.521 -1.8281  1.0293  1.0274
 4186TIP3    H234050   0.086   3.182  13.460 -0.7987  0.6513 -0.9503
 4187TIP3   OH234051   3.696   0.821   1.186 -0.0632  0.2986 -0.2531
 4187TIP3    H134052   3.619   0.783   1.145  0.2075 -0.5738  0.0342
 4187TIP3    H234053   3.764   0.818   1.119 -0.0567  0.3234 -0.2478
 4188TIP3   OH234054   6.601   1.519   4.520 -0.5398  0.1519 -0.0053
 4188TIP3    H134055   6.672   1.543   4.580 -0.8828  2.7061 -0.5119
 4188TIP3    H234056   6.593   1.594   4.461  0.0887 -2.3969 -3.6491
 4189TIP3   OH234057   6.466   4.437   5.111  0.2163  0.7740 -0.1696
 4189TIP3    H134058   6.518   4.449   5.031  0.0053 -1.1579 -0.6433
 4189TIP3    H234059   6.376   4.429   5.080  0.0520  0.7138  0.3155
 4190TIP3   OH234060   5.116   4.724  14.943  0.5519  0.0969 -0.2827
 4190TIP3    H134061   5.117   4.722  14.847  1.7687  0.9718 -0.3025
 4190TIP3    H234062   5.143   4.636  14.969 -2.7921 -1.1933 -0.6751
 4191TIP3   OH234063   3.145   0.710   2.495 -0.3348 -0.1111 -0.1655
 4191TIP3    H134064   3.188   0.738   2.414  1.9160  0.7212  1.2323
 4191TIP3    H234065   3.102   0.788   2.529  2.6378  0.8699  1.7155
 4192TIP3   OH234066   6.184   6.427  11.852  0.2963  0.3839  0.6493
 4192TIP3    H134067   6.278   6.424  11.832 -0.2829 -0.4843 -2.5029
 4192TIP3    H234068   6.153   6.338  11.835 -1.3419  1.0387  0.0070
 4193TIP3   OH234069   1.484   2.749   1.094 -0.1026 -0.0167 -0.0317
 4193TIP3    H134070   1.436   2.739   1.012  0.0333  0.8826 -0.2367
 4193TIP3    H234071   1.415   2.767   1.159 -0.1147  0.4439 -0.1700
 4194TIP3   OH234072   4.822   4.738  14.255 -0.4945  0.2316 -0.3169
 4194TIP3    H134073   4.801   4.652  14.292 -0.3090  0.8047  1.1732
 4194TIP3    H234074   4.916   4.734  14.238 -0.2697  0.5156  0.8150
 4195TIP3   OH234075   3.539   5.903   1.391  0.6740  0.1402 -0.7198
 4195TIP3    H134076   3.477   5.837   1.423  0.2801  0.6976 -0.3009
 4195TIP3    H234077   3.488   5.957   1.331  0.8363  0.4027 -0.6253
 4196TIP3   OH234078   6.165   0.594   4.714 -0.3720  0.0116  0.1787
 4196TIP3    H134079   6.097   0.532   4.686  0.1710 -1.2555  1.4774
 4196TIP3    H234080   6.118   0.673   4.738 -1.0421  0.3292 -2.0279
 4197TIP3   OH234081   3.655   6.263  16.330  0.5921 -0.1584  0.1311
 4197TIP3    H134082   3.594   6.201  16.370 -1.5959  1.8593  0.1461
 4197TIP3    H234083   3.600   6.319  16.275  2.5519  1.3383 -0.4315
 4198TIP3   OH234084   6.101   5.769   5.249 -0.5223  0.0367  0.0703
 4198TIP3    H134085   6.170   5.706   5.271 -0.4063  0.7256  1.7761
 4198TIP3    H234086   6.090   5.823   5.327 -1.8831  0.9954 -0.7205
 4199TIP3   OH234087   4.738   2.907   0.678 -0.1898 -0.1536  0.2780
 4199TIP3    H134088   4.762   2.990   0.719  0.2433 -0.6240  0.9904
 4199TIP3    H234089   4.664   2.875   0.729 -2.0915  1.0295 -1.5852
 4200TIP3   OH234090   1.306   5.532   3.214  0.6740 -0.6094  0.1857
 4200TIP3    H134091   1.220   5.554   3.179  0.1379 -1.0081  1.2011
 4200TIP3    H234092   1.325   5.602   3.277  0.0317 -1.6862  1.6557
 4201TIP3   OH234093   0.681   3.769  16.455 -0.2645 -0.7919 -0.4308
 4201TIP3    H134094   0.613   3.808  16.510  0.7946  0.7663 -0.1513
 4201TIP3    H234095   0.759   3.769  16.510  0.3708 -0.9426 -1.3137
 4202TIP3   OH234096   1.232   1.218   0.771 -0.0896 -0.5931 -0.3152
 4202TIP3    H134097   1.281   1.291   0.809  1.3888 -2.0527  0.7064
 4202TIP3    H234098   1.191   1.175   0.846 -1.1196 -0.7035 -0.9244
 4203TIP3   OH234099   1.155   1.754   4.901 -0.4436  0.0839 -0.8375
 4203TIP3    H134100   1.231   1.793   4.857 -1.2974  2.0999 -0.6519
 4203TIP3    H234101   1.185   1.667   4.928  1.0787 -0.0369 -2.6900
 4204TIP3   OH234102   5.811   0.936   6.133 -0.1463  0.0754  0.1305
 4204TIP3    H134103   5.727   0.906   6.168 -0.1333 -0.7887 -0.5691
 4204TIP3    H234104   5.869   0.939   6.210 -1.0073  1.4456  0.7643
 4205TIP3   OH234105   3.363   3.598   0.070 -0.0994  0.3304 -0.3188
 4205TIP3    H134106   3.296   3.539   0.033  1.3665 -0.9232 -1.0768
 4205TIP3    H234107   3.363   3.577   0.163  0.9900 -1.5816 -0.6828
 4206TIP3   OH234108   3.955   3.097   3.359 -0.1619 -0.2664  0.5648
 4206TIP3    H134109   3.884   3.126   3.302 -0.9097  1.3014  2.1971
 4206TIP3    H234110   3.921   3.018   3.402  0.1539 -1.0716 -0.6279
 4207TIP3   OH234111   3.763   5.350   2.978 -0.1416  1.1726 -0.7633
 4207TIP3    H134112   3.683   5.380   3.023  0.0636 -2.8615  2.9508
 4207TIP3    H234113   3.730   5.293   2.908 -0.7115 -0.6718  0.9005
 4208TIP3   OH234114   6.454   3.300  13.842  0.2254  0.1015 -0.1334
 4208TIP3    H134115   6.378   3.352  13.815 -0.3824  0.3201  1.7940
 4208TIP3    H234116   6.506   3.361  13.895  1.0746 -0.4201 -0.3501
 4209TIP3   OH234117   1.761   5.592  15.490  0.4250  0.2401  0.4197
 4209TIP3    H134118   1.771   5.685  15.468 -0.4063  0.1760 -0.2957
 4209TIP3    H234119   1.815   5.546  15.426 -0.0708  0.1758  0.0440
 4210TIP3   OH234120   3.108   0.900   2.874 -0.8466  0.0186  0.4108
 4210TIP3    H134121   3.043   0.882   2.807  0.4623  0.7231 -1.1375
 4210TIP3    H234122   3.147   0.815   2.894  0.5079  0.0477 -1.6940
 4211TIP3   OH234123   2.474   1.988   6.932 -0.2187  0.7975  0.5636
 4211TIP3    H134124   2.532   1.912   6.932 -1.6317 -0.3455  2.1416
 4211TIP3    H234125   2.464   2.010   6.839  1.1960 -0.1283  0.1558
 4212TIP3   OH234126   3.274   5.750  10.960 -0.5875  0.5532 -0.0692
 4212TIP3    H134127   3.229   5.834  10.957 -1.3619  0.2616 -4.3921
 4212TIP3    H234128   3.211   5.688  10.921  1.7917 -0.8165 -2.0532
 4213TIP3   OH234129   1.061   1.821   5.497 -0.0449 -0.2049 -0.6941
 4213TIP3    H134130   0.974   1.860   5.500  1.0876  2.6603  2.5150
 4213TIP3    H234131   1.109   1.874   5.433 -0.1765 -0.5797 -1.1043
 4214TIP3   OH234132   3.535   2.519  15.723 -0.0072 -0.6822 -0.4286
 4214TIP3    H134133   3.572   2.605  15.743 -0.7127 -0.5021  0.1337
 4214TIP3    H234134   3.444   2.536  15.699  0.3783 -1.0778 -2.2865
 4215TIP3   OH234135   6.591   6.272  12.483 -0.7039  0.0023 -0.7049
 4215TIP3    H134136   6.521   6.244  12.542 -0.9269  0.7223 -0.6290
 4215TIP3    H234137   6.575   6.365  12.467  1.0803  0.5902  0.5268
 4216TIP3   OH234138   5.926   0.058   5.637 -0.1907  0.4003  0.6600
 4216TIP3    H134139   5.993  -0.011   5.635 -0.7479 -0.1434  0.3967
 4216TIP3    H234140   5.855   0.024   5.582 -1.5788  0.0380  2.5595
 4217TIP3   OH234141   5.652   3.718   1.808  0.4698 -0.2121 -0.1117
 4217TIP3    H134142   5.682   3.675   1.888 -0.5179 -0.9386 -0.1206
 4217TIP3    H234143   5.717   3.691   1.742  2.0627  1.4619  0.6681
 4218TIP3   OH234144   1.237   0.031  16.155  0.0330 -0.0960 -0.2717
 4218TIP3    H134145   1.150   0.018  16.119  0.5059  1.7272 -2.1991
 4218TIP3    H234146   1.230   0.110  16.209 -0.0810 -1.4581  1.8661
 4219TIP3   OH234147   4.125   3.063  12.690  0.1232  0.1962 -0.3686
 4219TIP3    H134148   4.174   3.022  12.761  1.7568  2.0522 -0.3447
 4219TIP3    H234149   4.162   3.026  12.611  2.4483  2.3144 -0.3957
 4220TIP3   OH234150   4.014   5.221  15.395 -0.7023  0.0932  0.4390
 4220TIP3    H134151   3.987   5.241  15.306 -0.8708 -3.4919 -0.4713
 4220TIP3    H234152   4.107   5.242  15.397 -1.0837  2.0536  0.1218
 4221TIP3   OH234153   0.651   6.516  14.173  0.0644  0.0775  0.1605
 4221TIP3    H134154   0.652   6.452  14.244  2.1833 -0.7007 -0.4844
 4221TIP3    H234155   0.586   6.580  14.200  0.2995 -0.5453  2.4717
 4222TIP3   OH234156   4.160   2.969  16.890 -0.3655  0.4778  0.0261
 4222TIP3    H134157   4.076   2.942  16.927  0.1306 -0.6285  0.3861
 4222TIP3    H234158   4.142   3.052  16.847 -0.9442  1.9555  2.8842
 4223TIP3   OH234159   0.776   2.869  16.585 -0.4843 -0.1691  0.3867
 4223TIP3    H134160   0.830   2.924  16.642  1.8174  0.0599 -1.8523
 4223TIP3    H234161   0.836   2.803  16.551 -1.7362 -0.2821 -1.8055
 4224TIP3   OH234162   5.736   5.032  15.210 -0.1108 -0.1523 -0.0189
 4224TIP3    H134163   5.800   5.038  15.139  4.1734  1.2568  3.4767
 4224TIP3    H234164   5.695   5.119  15.211  0.9229  0.3541  0.0949
 4225TIP3   OH234165   4.349   5.625  13.589  0.0345  0.3090  0.4161
 4225TIP3    H134166   4.388   5.705  13.553 -1.4854  2.0252  2.3161
 4225TIP3    H234167   4.302   5.586  13.516  0.9028  1.0664 -0.5867
 4226TIP3   OH234168   6.543   2.992  15.267  0.2340 -0.1508 -0.0771
 4226TIP3    H134169   6.548   2.905  15.227 -1.0477  0.0334 -0.6673
 4226TIP3    H234170   6.492   3.044  15.205 -2.1306  0.0589  1.9111
 4227TIP3   OH234171   3.479   2.799   1.185  0.0602  0.0029 -0.1497
 4227TIP3    H134172   3.384   2.802   1.183  0.0206 -1.1080 -0.7066
 4227TIP3    H234173   3.506   2.800   1.093  0.5315 -0.7433 -0.0286
 4228TIP3   OH234174   4.549   6.287   4.652 -0.4928 -0.6663  0.6133
 4228TIP3    H134175   4.511   6.201   4.666 -1.4225 -0.5232 -0.8124
 4228TIP3    H234176   4.542   6.301   4.557 -0.2964  0.9335  0.8087
 4229TIP3   OH234177   2.677   2.104  12.426  0.0012  0.2407 -0.0606
 4229TIP3    H134178   2.685   2.191  12.387  2.6270  0.3027  0.4150
 4229TIP3    H234179   2.766   2.083  12.455 -0.4814 -2.7404 -0.4391
 4230TIP3   OH234180   4.642   4.405  11.053 -0.0605  0.5163  0.5001
 4230TIP3    H134181   4.581   4.474  11.027  1.4816  0.9902 -2.1571
 4230TIP3    H234182   4.601   4.324  11.023 -0.0451  0.6924 -0.0081
 4231TIP3   OH234183   0.079   1.356  11.161 -0.2156  0.0047 -0.1538
 4231TIP3    H134184  -0.012   1.360  11.132 -0.5735 -2.3704  0.4572
 4231TIP3    H234185   0.076   1.379  11.254 -0.0030  1.0037 -0.3799
 4232TIP3   OH234186   1.595   4.225   4.318 -0.3318  0.3804 -0.3797
 4232TIP3    H134187   1.651   4.159   4.357  1.4013  1.0891 -1.5457
 4232TIP3    H234188   1.593   4.203   4.225 -1.2988  0.8806 -0.4932
 4233TIP3   OH234189   0.331   1.463   0.935 -0.2160  0.3945  0.7050
 4233TIP3    H134190   0.251   1.506   0.907 -0.9876 -0.9727  0.7138
 4233TIP3    H234191   0.400   1.499   0.878 -1.2689 -0.2673 -1.0812
 4234TIP3   OH234192   3.526   0.315   3.480  0.4490 -0.1324 -0.2688
 4234TIP3    H134193   3.515   0.241   3.540 -1.7726 -1.4703 -2.1548
 4234TIP3    H234194   3.614   0.302   3.443  1.5137  0.2473  1.9658
 4235TIP3   OH234195   0.390   3.475  11.789 -0.1290  0.3226 -0.2277
 4235TIP3    H134196   0.384   3.405  11.723 -1.7822 -1.4150  1.6278
 4235TIP3    H234197   0.305   3.518  11.787 -0.6006 -0.4634  1.4537
 4236TIP3   OH234198   2.542   2.242   0.505  0.5460  0.1647  0.1179
 4236TIP3    H134199   2.527   2.321   0.454  0.1308 -0.0434 -0.0882
 4236TIP3    H234200   2.598   2.187   0.450  0.0772 -0.0708 -0.1361
 4237TIP3   OH234201   0.903   1.321  14.487  0.2602 -0.2820 -0.1254
 4237TIP3    H134202   0.822   1.332  14.537  0.0032 -0.0767 -0.5830
 4237TIP3    H234203   0.925   1.228  14.497 -0.4769 -0.5242 -0.6688
 4238TIP3   OH234204   4.595   6.015   4.736 -0.2449 -0.4288 -0.1446
 4238TIP3    H134205   4.612   5.934   4.689  2.7484 -0.4371  0.6863
 4238TIP3    H234206   4.597   5.989   4.829  2.3214  0.6792  0.2106
 4239TIP3   OH234207   2.583   2.101  11.440  0.3588 -0.0971 -0.2911
 4239TIP3    H134208   2.596   2.149  11.522  1.5144  0.6902 -0.8987
 4239TIP3    H234209   2.646   2.029  11.443  0.8966  0.3420 -0.7711
 4240TIP3   OH234210   6.668   0.998   4.936 -0.0745  0.7603  0.1830
 4240TIP3    H134211   6.716   1.030   4.859 -0.2257 -0.8917 -0.6294
 4240TIP3    H234212   6.577   1.020   4.919 -0.2320 -0.4044 -0.5599
 4241TIP3   OH234213   0.466   4.660  11.971 -0.0731 -0.2924 -0.2076
 4241TIP3    H134214   0.470   4.640  11.877  1.9105  0.6635 -0.3927
 4241TIP3    H234215   0.529   4.600  12.011 -0.7818 -0.5761  0.5040
 4242TIP3   OH234216   3.704   2.170   4.203  0.4394  0.1077 -0.0098
 4242TIP3    H134217   3.746   2.239   4.151 -0.4813  0.0822 -0.8175
 4242TIP3    H234218   3.613   2.171   4.175 -0.1443  0.2326  1.7935
 4243TIP3   OH234219   3.597   1.924  14.043  0.0170  0.3204 -0.1582
 4243TIP3    H134220   3.624   1.935  14.134  1.1252  1.8783 -0.6371
 4243TIP3    H234221   3.618   1.833  14.023 -2.4778 -0.8201  1.7978
 4244TIP3   OH234222   1.138   2.371  12.193  0.1627 -0.1436  0.4214
 4244TIP3    H134223   1.104   2.425  12.264 -0.2910 -0.4460  0.4335
 4244TIP3    H234224   1.127   2.281  12.223 -1.1748 -0.3208 -0.5335
 4245TIP3   OH234225   5.669   5.641  15.149 -0.3643 -0.3760  0.3217
 4245TIP3    H134226   5.631   5.659  15.235 -1.0680  1.1488 -0.2770
 4245TIP3    H234227   5.599   5.662  15.087  1.3261  2.3459 -0.8216
 4246TIP3   OH234228   1.423   5.897   5.976 -0.0747 -0.1525  0.2569
 4246TIP3    H134229   1.400   5.988   5.960 -1.6301 -0.1394  2.3136
 4246TIP3    H234230   1.496   5.901   6.038 -0.2244 -0.3193  0.4430
 4247TIP3   OH234231   3.282   5.254   5.061  0.0334 -0.5521 -0.1300
 4247TIP3    H134232   3.369   5.215   5.070  1.1034  0.8424 -3.0733
 4247TIP3    H234233   3.291   5.340   5.102 -0.1619 -0.6551  0.1298
 4248TIP3   OH234234   5.581   0.828   4.951 -0.4454  0.6435  0.2401
 4248TIP3    H134235   5.517   0.861   4.888 -2.6964 -1.0693  1.4633
 4248TIP3    H234236   5.636   0.903   4.972 -1.2289  1.8725 -1.8108
 4249TIP3   OH234237   1.776   5.343  14.927  0.1952  0.2075 -0.6351
 4249TIP3    H134238   1.700   5.300  14.966  0.9298 -0.6850 -0.1292
 4249TIP3    H234239   1.760   5.436  14.939 -0.1168 -0.0054  0.8636
 4250TIP3   OH234240   3.261   0.149   5.145 -0.4577 -0.0377 -0.6621
 4250TIP3    H134241   3.204   0.077   5.120  0.8016 -0.5580 -2.2496
 4250TIP3    H234242   3.214   0.228   5.117 -1.0946 -0.3500 -0.4803
 4251TIP3   OH234243   4.581   0.728   1.048 -0.0435 -0.6615  0.0277
 4251TIP3    H134244   4.516   0.726   1.119  1.3815 -1.0175  1.3709
 4251TIP3    H234245   4.532   0.701   0.970 -1.7415  0.1167  0.7887
 4252TIP3   OH234246   1.426   0.497   0.271  0.4392 -0.0286 -0.1966
 4252TIP3    H134247   1.417   0.547   0.352  1.1121 -0.7572  0.3440
 4252TIP3    H234248   1.370   0.420   0.284 -0.5698  0.5270 -1.0126
 4253TIP3   OH234249   6.343   6.619   2.061  0.6170  0.0277  0.0229
 4253TIP3    H134250   6.374   6.638   1.973  1.2037 -1.7535 -0.1886
 4253TIP3    H234251   6.270   6.680   2.075 -1.1962 -1.3405 -2.6891
 4254TIP3   OH234252   2.247   2.734  11.337  0.1104 -0.4542 -0.4609
 4254TIP3    H134253   2.185   2.669  11.305  0.5743 -0.9346 -0.3955
 4254TIP3    H234254   2.325   2.684  11.359 -0.8077 -0.4925  3.3278
 4255TIP3   OH234255   1.122   1.698  14.797 -0.2529 -0.4651  0.3059
 4255TIP3    H134256   1.075   1.729  14.875 -1.3315  0.0383 -0.5173
 4255TIP3    H234257   1.107   1.603  14.796 -0.7817 -0.3841  0.3628
 4256TIP3   OH234258   6.581   4.548   2.763 -0.1139  0.4108  0.1773
 4256TIP3    H134259   6.528   4.526   2.686 -0.9752  0.6278  0.6921
 4256TIP3    H234260   6.606   4.464   2.801  0.4978  0.2998 -0.4540
 4257TIP3   OH234261   0.887   0.128  15.336 -0.5946 -0.0384 -0.4115
 4257TIP3    H134262   0.821   0.082  15.387 -0.2708  1.2694  1.2877
 4257TIP3    H234263   0.877   0.095  15.247  0.7629 -4.6733  0.8929
 4258TIP3   OH234264   5.191   2.458   5.415 -0.0860  0.6517 -0.4211
 4258TIP3    H134265   5.208   2.442   5.322  0.5374  2.4844 -0.6552
 4258TIP3    H234266   5.264   2.513   5.444 -0.7784  0.9090  0.9263
 4259TIP3   OH234267   2.379   3.643  14.901 -0.3400  0.0031 -1.1541
 4259TIP3    H134268   2.417   3.557  14.919  2.8547  1.4861  0.0074
 4259TIP3    H234269   2.297   3.644  14.950  0.3977 -1.7741  0.2287
 4260TIP3   OH234270   1.655   2.401  15.778  0.1887 -0.4803 -0.3115
 4260TIP3    H134271   1.695   2.486  15.762 -0.2327 -0.2156  0.0102
 4260TIP3    H234272   1.728   2.340  15.781  0.6279  0.0746  0.8225
 4261TIP3   OH234273   2.682   1.140  10.619  0.2088 -0.0359  0.4079
 4261TIP3    H134274   2.603   1.101  10.655 -1.0495  0.5094 -1.5992
 4261TIP3    H234275   2.731   1.066  10.583 -1.3139 -0.0828 -1.7914
 4262TIP3   OH234276   6.714   3.359  11.448  0.0107 -0.2964 -0.5310
 4262TIP3    H134277   6.708   3.433  11.509  1.0953 -1.0181  0.4965
 4262TIP3    H234278   6.808   3.351  11.429 -0.1999 -0.7869 -1.4273
 4263TIP3   OH234279   3.396   2.158   6.336 -0.6792 -0.1721 -0.4646
 4263TIP3    H134280   3.326   2.202   6.383  0.4789  1.0280  0.2135
 4263TIP3    H234281   3.470   2.158   6.397  0.2622 -0.3734 -1.5608
 4264TIP3   OH234282   0.933   0.972   1.136 -0.2044  0.1123  0.5035
 4264TIP3    H134283   1.010   1.016   1.174  0.8951 -0.3307 -1.1055
 4264TIP3    H234284   0.966   0.884   1.113 -0.9516  0.2051 -0.9910
 4265TIP3   OH234285   3.106   2.638  14.998  0.6152  0.2055  0.5592
 4265TIP3    H134286   3.099   2.709  15.063  0.0800  0.5142  0.1710
 4265TIP3    H234287   3.026   2.645  14.946  0.6966 -0.5076  0.3294
 4266TIP3   OH234288   4.651   4.433  13.680 -0.5232  0.2032  0.3864
 4266TIP3    H134289   4.666   4.339  13.694  1.6526  0.3191 -0.7568
 4266TIP3    H234290   4.632   4.440  13.586 -0.0400  0.9442  0.3351
 4267TIP3   OH234291   2.300   6.620  10.978 -0.0890  0.1846  0.1778
 4267TIP3    H134292   2.331   6.709  10.996 -0.1382  0.2431 -0.0248
 4267TIP3    H234293   2.207   6.621  11.004  0.0621  0.0240  0.7371
 4268TIP3   OH234294   5.330   3.591  17.227  0.0966  0.4819 -0.2009
 4268TIP3    H134295   5.332   3.499  17.252 -1.8478 -0.2140 -2.2999
 4268TIP3    H234296   5.297   3.637  17.305  3.2672 -0.1674  1.6741
 4269TIP3   OH234297   3.318   6.362  16.785  0.3077 -0.8952 -0.6131
 4269TIP3    H134298   3.260   6.347  16.859  1.3841  1.6690  0.8951
 4269TIP3    H234299   3.260   6.387  16.713 -0.6343 -1.2527  0.0068
 4270TIP3   OH234300   0.250   1.294   4.574 -0.3042 -0.1480  0.4771
 4270TIP3    H134301   0.242   1.340   4.657  0.8876 -0.2871  0.6873
 4270TIP3    H234302   0.282   1.360   4.512 -1.7955  0.1204 -0.0561
 4271TIP3   OH234303   5.290   3.054   1.549  0.9417  0.0622  0.3687
 4271TIP3    H134304   5.249   3.000   1.482 -1.1404  0.3411  1.3668
 4271TIP3    H234305   5.278   3.144   1.518 -2.0488  0.3675  2.0505
 4272TIP3   OH234306   6.464   3.257   2.292 -0.1478  0.2444  0.5260
 4272TIP3    H134307   6.559   3.244   2.286 -0.0135  0.2395  2.2385
 4272TIP3    H234308   6.450   3.348   2.265  0.3992  0.3716  0.6624
 4273TIP3   OH234309   1.989   6.153   1.353 -0.1747 -0.0489 -0.2635
 4273TIP3    H134310   2.041   6.080   1.318 -1.3177  0.5788 -3.6507
 4273TIP3    H234311   1.961   6.122   1.439 -0.7523 -3.7610 -1.5787
 4274TIP3   OH234312   6.655   4.279   2.509  0.0398 -0.4553  0.2737
 4274TIP3    H134313   6.665   4.210   2.444 -3.1984 -2.0735  1.3120
 4274TIP3    H234314   6.566   4.312   2.497  0.2187  0.9409  2.2589
 4275TIP3   OH234315   0.894   4.300  17.194  0.2292  0.1210  0.0167
 4275TIP3    H134316   0.834   4.372  17.212 -1.0687 -0.3726 -2.0194
 4275TIP3    H234317   0.980   4.341  17.189 -0.2321  1.2137  0.7382
 4276TIP3   OH234318   3.544   6.015   3.391 -0.0907  0.5408 -0.0762
 4276TIP3    H134319   3.544   6.047   3.301 -1.9985  1.8547  0.3412
 4276TIP3    H234320   3.567   6.091   3.445  2.1409 -0.4743  0.5548
 4277TIP3   OH234321   5.697   2.259  11.554 -0.6238 -0.4559 -0.1873
 4277TIP3    H134322   5.731   2.223  11.472  2.6219  1.0073  0.3558
 4277TIP3    H234323   5.706   2.187  11.617  1.8332 -0.0891 -0.0334
 4278TIP3   OH234324   1.759   3.876   0.594  0.4704  0.4031  0.0113
 4278TIP3    H134325   1.688   3.903   0.535  0.0322  0.0666  0.3730
 4278TIP3    H234326   1.755   3.938   0.666  0.8798  0.6940 -0.2097
 4279TIP3   OH234327   0.742   6.322  13.704 -0.2538  0.1844  0.3886
 4279TIP3    H134328   0.721   6.382  13.776  1.2756 -0.5417  1.4994
 4279TIP3    H234329   0.820   6.360  13.664 -1.1611  0.6456 -1.0195
 4280TIP3   OH234330   0.049   5.710  14.409  0.2962 -0.0876  0.6279
 4280TIP3    H134331   0.008   5.787  14.369  0.1889 -0.4068  0.0989
 4280TIP3    H234332  -0.024   5.650  14.424  0.4676 -0.3623  0.3784
 4281TIP3   OH234333   0.487   4.819  13.890  0.3473  0.0349  0.4173
 4281TIP3    H134334   0.425   4.886  13.919  0.4364  0.2605  0.1030
 4281TIP3    H234335   0.569   4.842  13.932  0.5157  0.4535 -0.1200
 4282TIP3   OH234336   3.004   2.956  12.159  0.1849 -0.2060  0.5849
 4282TIP3    H134337   3.020   3.008  12.080 -0.5984 -0.6724  0.1054
 4282TIP3    H234338   3.078   2.977  12.217  1.7301 -1.1928 -0.9471
 4283TIP3   OH234339   2.654   3.300   1.512 -0.0484 -0.3166 -0.4744
 4283TIP3    H134340   2.655   3.205   1.499 -0.1517 -0.2368 -1.1463
 4283TIP3    H234341   2.701   3.334   1.436 -2.6232  0.3107 -1.9090
 4284TIP3   OH234342   1.590   2.110   5.153  0.6108  0.2593 -0.1579
 4284TIP3    H134343   1.673   2.070   5.125  0.1311 -1.4964  0.7263
 4284TIP3    H234344   1.610   2.146   5.240  0.6040  0.4139 -0.2203
 4285TIP3   OH234345   3.833   6.771  13.475  0.0254 -0.6240  0.0445
 4285TIP3    H134346   3.924   6.779  13.445 -0.4246  1.3137 -0.9358
 4285TIP3    H234347   3.782   6.758  13.396 -0.5838 -1.6461  0.5868
 4286TIP3   OH234348   3.266   2.682   5.633  0.4190 -0.5360  0.2113
 4286TIP3    H134349   3.183   2.677   5.680  1.2872  1.4883  2.1467
 4286TIP3    H234350   3.310   2.759   5.669  2.1941 -0.2213 -2.3442
 4287TIP3   OH234351   1.360   1.152  13.028 -0.2544  0.0955  0.4924
 4287TIP3    H134352   1.278   1.189  13.061 -1.6258 -0.7582 -1.7140
 4287TIP3    H234353   1.361   1.062  13.060 -1.4475 -0.6462 -1.3832
 4288TIP3   OH234354   1.143   0.784   3.710 -0.4071  0.2895 -0.0987
 4288TIP3    H134355   1.065   0.811   3.662  1.0215  2.0004 -1.6041
 4288TIP3    H234356   1.131   0.819   3.798 -2.5254 -1.8622  0.5653
 4289TIP3   OH234357   6.645   0.601  12.613  0.1289 -0.0710 -0.5968
 4289TIP3    H134358   6.572   0.583  12.673  1.7021 -0.4464  1.3230
 4289TIP3    H234359   6.615   0.673  12.559 -0.8376  1.4152  1.7766
 4290TIP3   OH234360   1.216   1.244   3.754  0.5462  0.1376 -0.2163
 4290TIP3    H134361   1.198   1.323   3.805 -0.7294 -0.6911  0.7012
 4290TIP3    H234362   1.231   1.276   3.665  0.1292  1.4095  0.1410
 4291TIP3   OH234363   2.333   4.670  13.053 -0.1641  0.2240  0.4240
 4291TIP3    H134364   2.396   4.598  13.057 -0.2167  0.1848  0.5303
 4291TIP3    H234365   2.364   4.724  12.980 -1.8633 -1.5283 -1.7380
 4292TIP3   OH234366   4.445   2.677  16.612  0.4399 -0.1710  0.6114
 4292TIP3    H134367   4.454   2.600  16.556  1.8010 -0.1550  0.7749
 4292TIP3    H234368   4.444   2.642  16.701 -2.7111 -0.2837  0.6303
 4293TIP3   OH234369   6.323   3.078  13.310  0.2284 -0.1561  0.6233
 4293TIP3    H134370   6.309   3.165  13.348  0.5903 -0.0765  0.5712
 4293TIP3    H234371   6.292   3.087  13.220 -0.3517 -0.2633  0.8090
 4294TIP3   OH234372   2.782   2.217  14.329 -0.1858 -0.1472 -0.4976
 4294TIP3    H134373   2.856   2.182  14.279 -1.5764 -1.8800 -1.4763
 4294TIP3    H234374   2.799   2.192  14.419 -0.6360 -2.6740 -1.0252
 4295TIP3   OH234375   5.997   2.916   5.678  0.3522  0.5758  0.1741
 4295TIP3    H134376   5.914   2.949   5.643  0.4285 -0.9600 -1.6343
 4295TIP3    H234377   5.974   2.832   5.718  0.9427  0.3914  0.1419
 4296TIP3   OH234378   1.895   1.011  17.003 -0.1744  0.2453  0.8077
 4296TIP3    H134379   1.820   1.069  16.989 -0.4234  0.0715  1.4042
 4296TIP3    H234380   1.893   0.951  16.928 -0.3871  0.4994  0.6069
 4297TIP3   OH234381   4.064   2.275  14.019 -0.0445 -0.1674 -0.2299
 4297TIP3    H134382   4.108   2.206  13.969  1.5211  0.3533  0.3858
 4297TIP3    H234383   4.105   2.273  14.105 -1.8874 -0.2664  0.7010
 4298TIP3   OH234384   0.963   3.425  11.942 -0.4295 -0.1006 -0.1678
 4298TIP3    H134385   0.957   3.472  12.025 -1.3796  0.3646 -0.4874
 4298TIP3    H234386   1.056   3.404  11.933 -0.2423  0.2721  0.7685
 4299TIP3   OH234387   1.359   2.972   1.941 -0.1869 -0.7987 -0.0817
 4299TIP3    H134388   1.284   3.020   1.977 -0.1496 -0.3635 -0.5724
 4299TIP3    H234389   1.320   2.895   1.898 -0.3623 -0.5254 -0.4155
 4300TIP3   OH234390   0.987   5.809  13.093  0.1749  0.0044 -0.3623
 4300TIP3    H134391   0.986   5.757  13.173 -1.1655 -0.9387 -0.9525
 4300TIP3    H234392   0.906   5.861  13.097  0.5738  0.6705 -0.6575
 4301TIP3   OH234393   6.347   0.041  11.289  0.8672 -0.1954 -0.1728
 4301TIP3    H134394   6.434   0.026  11.252  0.5141  0.3444 -1.2487
 4301TIP3    H234395   6.306  -0.046  11.289  0.9389 -0.2297 -0.8654
 4302TIP3   OH234396   5.476   2.595  16.855 -0.5158  0.3732 -0.2170
 4302TIP3    H134397   5.515   2.659  16.796  1.6280 -0.4222  0.2421
 4302TIP3    H234398   5.478   2.638  16.941 -0.4948  0.2599 -0.1612
 4303TIP3   OH234399   1.890   6.281   4.279 -0.3410  0.3328  0.3530
 4303TIP3    H134400   1.859   6.195   4.306  0.9959 -1.0381 -2.1064
 4303TIP3    H234401   1.817   6.340   4.298 -2.5257 -1.8777 -0.6576
 4304TIP3   OH234402   4.136   5.269   4.790  0.1876  0.1908 -0.3304
 4304TIP3    H134403   4.080   5.312   4.855  0.8930 -1.1127  1.1969
 4304TIP3    H234404   4.074   5.226   4.731 -0.4514  0.7662 -0.1029
 4305TIP3   OH234405   2.594   4.994  11.257 -0.1488  0.3998  0.3102
 4305TIP3    H134406   2.532   4.954  11.195 -1.4251 -1.2211  2.4802
 4305TIP3    H234407   2.565   5.085  11.264 -2.6231 -0.3892  1.5290
 4306TIP3   OH234408   6.693   4.888   1.182 -0.1024 -0.7473  0.0920
 4306TIP3    H134409   6.676   4.936   1.263  0.8348 -0.0760 -0.0951
 4306TIP3    H234410   6.769   4.833   1.202 -0.3812 -1.1975 -0.0826
 4307TIP3   OH234411   6.076   2.761   3.869  0.1831 -0.3489  0.3775
 4307TIP3    H134412   6.099   2.840   3.917 -0.2656 -0.0451  0.0889
 4307TIP3    H234413   6.137   2.695   3.902  0.3783  0.0461  0.8141
 4308TIP3   OH234414   0.175   3.820   3.669  0.0284 -0.8855  0.1950
 4308TIP3    H134415   0.080   3.819   3.682  0.1736  0.7885  1.8520
 4308TIP3    H234416   0.187   3.846   3.578 -1.1236  0.4627  0.3953
 4309TIP3   OH234417   1.943   2.391   0.471  0.2316  0.3464  0.2850
 4309TIP3    H134418   2.038   2.382   0.463  0.1253 -0.6285  0.1062
 4309TIP3    H234419   1.928   2.398   0.566  0.2177 -2.8868  0.6089
 4310TIP3   OH234420   0.571   2.503   5.163  0.4369 -0.2808  0.1822
 4310TIP3    H134421   0.500   2.526   5.104  1.0711  0.5769 -0.2801
 4310TIP3    H234422   0.553   2.413   5.190 -1.0515  0.0629  0.4228
 4311TIP3   OH234423   0.712   4.303  13.884  0.1153  0.1928  0.0979
 4311TIP3    H134424   0.757   4.255  13.953 -2.0049  1.4797  2.5768
 4311TIP3    H234425   0.721   4.395  13.909 -1.8694  0.6134 -0.5242
 4312TIP3   OH234426   5.914   2.855   1.598  0.2163  0.3521 -0.1938
 4312TIP3    H134427   5.894   2.947   1.616  1.3085  0.6246 -0.2682
 4312TIP3    H234428   5.920   2.815   1.685 -1.4468  0.0595 -0.1882
 4313TIP3   OH234429   2.920   5.368  12.707  0.1662  0.3263  0.4349
 4313TIP3    H134430   2.859   5.297  12.686 -1.8131  2.0345  0.1494
 4313TIP3    H234431   2.868   5.448  12.699  2.3751  1.8569  0.5463
 4314TIP3   OH234432   2.813   2.647  13.514 -0.6491 -0.1920 -0.1089
 4314TIP3    H134433   2.726   2.676  13.543 -1.8430 -1.2735 -2.3352
 4314TIP3    H234434   2.854   2.726  13.480 -1.1939  0.1278 -0.0395
 4315TIP3   OH234435   2.803   5.186  11.814  0.2603 -0.4754 -0.4286
 4315TIP3    H134436   2.740   5.115  11.802 -2.3180  1.7760 -1.1128
 4315TIP3    H234437   2.801   5.205  11.908 -1.4960  0.6735 -0.6416
 4316TIP3   OH234438   0.048   3.176   5.917  0.2523 -0.0582  0.1366
 4316TIP3    H134439   0.126   3.154   5.968  1.1504  3.0258  0.2823
 4316TIP3    H234440   0.080   3.183   5.827 -0.5345 -1.7032 -0.3007
 4317TIP3   OH234441   1.655   3.184  11.920 -0.5680  0.4791 -0.1495
 4317TIP3    H134442   1.683   3.116  11.981 -0.8146  0.0992 -0.4525
 4317TIP3    H234443   1.653   3.141  11.834  0.4449  1.1861 -0.5535
 4318TIP3   OH234444   5.978   0.865  11.870 -0.5210 -0.1652 -0.0033
 4318TIP3    H134445   5.939   0.784  11.902 -0.3331 -0.9283 -1.6221
 4318TIP3    H234446   5.931   0.885  11.790  1.6421 -0.5132 -1.4344
 4319TIP3   OH234447   0.587   6.306  17.044 -0.2098 -0.3940  0.0160
 4319TIP3    H134448   0.672   6.349  17.050 -0.7941  0.9306 -0.7341
 4319TIP3    H234449   0.535   6.345  17.115 -0.3653 -0.7878  0.1236
 4320TIP3   OH234450   5.944   4.665   1.519 -0.6566  0.0595  0.6158
 4320TIP3    H134451   5.949   4.739   1.580  0.8849  1.7553 -1.3932
 4320TIP3    H234452   5.892   4.698   1.446 -2.9058 -2.0963  1.1122
 4321TIP3   OH234453   5.841   2.365   1.214 -0.0619  0.4382 -0.0450
 4321TIP3    H134454   5.864   2.440   1.160 -0.1548  0.6371  0.1892
 4321TIP3    H234455   5.764   2.394   1.264 -1.1640 -0.3857 -1.1912
 4322TIP3   OH234456   0.734   2.953  14.405  0.2350  0.1079  0.3035
 4322TIP3    H134457   0.684   2.874  14.382 -1.1653  1.0076  0.1215
 4322TIP3    H234458   0.667   3.018  14.425  1.3674  1.2392  0.5007
 4323TIP3   OH234459   3.950   5.386  16.859 -0.4127  0.0573 -0.4530
 4323TIP3    H134460   3.936   5.481  16.858 -0.6219  0.0299 -0.1956
 4323TIP3    H234461   4.043   5.376  16.881 -0.1098  0.2258 -1.6306
 4324TIP3   OH234462   3.203   3.833  12.028  0.0754 -0.1197 -0.0384
 4324TIP3    H134463   3.111   3.856  12.019  0.4352  1.2593 -0.4757
 4324TIP3    H234464   3.249   3.897  11.973  1.4839  0.9145  2.2007
 4325TIP3   OH234465   3.133   1.039  15.204 -0.0201  0.1975 -0.1105
 4325TIP3    H134466   3.211   1.089  15.179 -0.0384 -0.2518 -1.0937
 4325TIP3    H234467   3.095   1.090  15.276  0.0825  1.4941 -0.9366
 4326TIP3   OH234468   3.501   3.380   5.074 -0.1468 -0.1416  0.2113
 4326TIP3    H134469   3.421   3.358   5.121  0.0847 -1.9957 -0.1905
 4326TIP3    H234470   3.569   3.385   5.141  0.4651 -4.1228  0.1209
 4327TIP3   OH234471   3.546   5.233   6.621  0.3273 -0.0800  0.2648
 4327TIP3    H134472   3.452   5.240   6.640  0.3300  0.6956  0.0589
 4327TIP3    H234473   3.588   5.291   6.684  0.7947 -1.3419  1.1482
 4328TIP3   OH234474   1.096   6.284  15.265  0.1058 -0.3471  0.7907
 4328TIP3    H134475   1.034   6.351  15.238 -0.4139 -1.3573 -0.6254
 4328TIP3    H234476   1.116   6.306  15.356 -1.3203  0.7536  0.8820
 4329TIP3   OH234477   3.349   3.695   2.982  0.1593 -0.4612 -0.1079
 4329TIP3    H134478   3.431   3.655   2.952 -0.9175 -2.3366 -0.7346
 4329TIP3    H234479   3.290   3.688   2.908 -0.5118  1.1375  0.2357
 4330TIP3   OH234480   1.653   1.082   3.805 -0.1469 -0.2805  0.6739
 4330TIP3    H134481   1.719   1.130   3.856  1.1754 -0.0194 -1.1581
 4330TIP3    H234482   1.570   1.101   3.849  0.6112  1.9154  1.2891
 4331TIP3   OH234483   5.322   3.623  12.515  0.0649  0.5467  0.1071
 4331TIP3    H134484   5.282   3.688  12.572 -1.1850 -0.3580  0.3195
 4331TIP3    H234485   5.281   3.637  12.430 -1.3225 -0.8381  0.4905
 4332TIP3   OH234486   0.662   1.322   5.787  0.0610 -0.1348 -0.0522
 4332TIP3    H134487   0.701   1.242   5.752 -1.2594 -0.9644  0.3008
 4332TIP3    H234488   0.716   1.393   5.751  1.8363 -1.2007  0.3931
 4333TIP3   OH234489   4.227   0.909   2.118 -0.3309 -0.5883  0.1685
 4333TIP3    H134490   4.188   0.822   2.126 -1.4246 -0.0877  0.4973
 4333TIP3    H234491   4.152   0.969   2.119  0.3909  0.3498 -0.2397
 4334TIP3   OH234492   3.929   1.226   2.765 -0.4960 -1.0732 -0.0016
 4334TIP3    H134493   3.855   1.181   2.724 -2.1041  0.5443  0.9623
 4334TIP3    H234494   3.892   1.266   2.844  0.6163  2.2896 -0.9926
 4335TIP3   OH234495   1.277   0.572  13.158  0.0038  0.0669  0.2380
 4335TIP3    H134496   1.300   0.502  13.218  1.3464 -0.1212 -0.4515
 4335TIP3    H234497   1.187   0.595  13.181 -0.9049 -2.6278 -0.2183
 4336TIP3   OH234498   5.191   0.280  13.611  0.0820  0.0102  0.4055
 4336TIP3    H134499   5.114   0.311  13.563 -0.4319  0.1212  1.2966
 4336TIP3    H234500   5.259   0.345  13.593  0.4187 -0.7941 -1.5213
 4337TIP3   OH234501   0.306   0.523  16.266  0.1910 -0.6116  0.1884
 4337TIP3    H134502   0.259   0.473  16.199 -0.3202  0.5129 -0.3331
 4337TIP3    H234503   0.327   0.606  16.223  1.9965 -0.7862  0.6652
 4338TIP3   OH234504   0.505   3.837  16.695 -0.3730 -0.2456  0.2645
 4338TIP3    H134505   0.427   3.807  16.742 -1.8552  0.2804 -1.7446
 4338TIP3    H234506   0.513   3.929  16.719 -1.0894  0.0080 -0.4531
 4339TIP3   OH234507   1.277   2.711  13.357 -0.1784  0.3069  0.1268
 4339TIP3    H134508   1.325   2.637  13.393 -0.7185  0.2720  0.7795
 4339TIP3    H234509   1.224   2.675  13.287 -0.7597 -0.0094  0.7175
 4340TIP3   OH234510   6.649   6.275  11.475 -0.1103  0.6147 -0.6689
 4340TIP3    H134511   6.704   6.220  11.531 -0.6216  0.5247 -0.2483
 4340TIP3    H234512   6.568   6.287  11.525 -0.4307  0.8376 -1.2320
 4341TIP3   OH234513   5.434   6.804   5.329  0.0487 -0.2233 -0.7187
 4341TIP3    H134514   5.365   6.864   5.357  1.5791  1.8798 -1.2033
 4341TIP3    H234515   5.497   6.804   5.402 -0.5176 -2.3493 -0.1499
 4342TIP3   OH234516   3.044   0.643  12.461 -0.4577  0.4536 -0.4724
 4342TIP3    H134517   2.981   0.703  12.502 -0.9462 -0.5624  0.3062
 4342TIP3    H234518   3.006   0.556  12.473  1.1634 -0.2091  0.1751
 4343TIP3   OH234519   5.625   6.001  16.063  0.3932 -0.1671  0.4359
 4343TIP3    H134520   5.605   6.023  16.154  0.3934 -2.1527  0.9454
 4343TIP3    H234521   5.612   5.907  16.057 -3.9449  0.3112 -2.7017
 4344TIP3   OH234522   0.152   5.184  16.750  0.3543 -0.0978  0.4396
 4344TIP3    H134523   0.221   5.212  16.810 -0.7767  0.8846  1.3492
 4344TIP3    H234524   0.072   5.224  16.785 -0.7991 -1.7257 -0.1852
 4345TIP3   OH234525   6.185   0.928  16.928 -0.5592 -0.5345 -0.6511
 4345TIP3    H134526   6.278   0.941  16.950 -0.7097 -0.2970 -0.1429
 4345TIP3    H234527   6.164   0.843  16.965 -0.5721 -0.5392 -0.6694
 4346TIP3   OH234528   2.342   4.253   3.608 -0.2560  0.0226  0.1515
 4346TIP3    H134529   2.285   4.176   3.597 -0.0036 -0.0128 -1.0458
 4346TIP3    H234530   2.302   4.302   3.680 -1.4564 -0.3066 -0.2622
 4347TIP3   OH234531   3.143   6.118  16.449 -0.3311 -0.5106  0.8887
 4347TIP3    H134532   3.100   6.120  16.363 -0.4743 -0.8929  0.9495
 4347TIP3    H234533   3.075   6.147  16.510 -0.4616 -0.9701  0.9658
 4348TIP3   OH234534   1.165   0.116   3.763 -0.4524 -0.2802 -0.0846
 4348TIP3    H134535   1.148   0.050   3.830 -1.2741  0.9579  0.9503
 4348TIP3    H234536   1.185   0.196   3.811 -3.3138  1.2442 -1.2219
 4349TIP3   OH234537   3.244   4.930  14.869 -0.2202  0.5526  0.2911
 4349TIP3    H134538   3.214   5.007  14.822  0.4676 -0.1353 -1.3470
 4349TIP3    H234539   3.321   4.959  14.917 -2.3289  1.9023  3.1673
 4350TIP3   OH234540   0.431   5.819   5.038 -0.3013 -0.2295  0.0770
 4350TIP3    H134541   0.508   5.860   4.997  0.0892  1.3116  2.1615
 4350TIP3    H234542   0.447   5.828   5.132 -2.8735 -0.1596  0.5726
 4351TIP3   OH234543   6.418   6.609   4.876 -0.6479  0.1421  0.1729
 4351TIP3    H134544   6.434   6.677   4.941  2.7940 -0.0533 -0.3010
 4351TIP3    H234545   6.432   6.651   4.792 -3.2976 -0.0558 -0.4493
 4352TIP3   OH234546   5.985   2.888  16.195  0.0118 -0.2898  0.8496
 4352TIP3    H134547   5.893   2.863  16.187  0.1541 -0.3562 -1.0590
 4352TIP3    H234548   6.005   2.932  16.112  1.4369  0.6236  1.6440
 4353TIP3   OH234549   1.087   2.312  15.092  0.0967  0.0655 -0.7985
 4353TIP3    H134550   1.004   2.352  15.120  1.1896  1.4518  0.6354
 4353TIP3    H234551   1.144   2.386  15.074  1.4471 -0.8450 -0.4140
 4354TIP3   OH234552   2.735   0.594   5.367 -0.1811 -0.7462 -0.2414
 4354TIP3    H134553   2.757   0.536   5.294  0.6535 -1.0282  0.2161
 4354TIP3    H234554   2.641   0.585   5.378 -0.3877 -0.3281 -1.5940
 4355TIP3   OH234555   5.217   5.528   1.855 -0.1193 -0.1407 -1.0206
 4355TIP3    H134556   5.240   5.436   1.869  0.6376  0.1943  0.0918
 4355TIP3    H234557   5.301   5.571   1.836 -0.5269  0.2517 -1.9747
 4356TIP3   OH234558   1.495   5.275   4.577  0.0311 -0.1894  0.0283
 4356TIP3    H134559   1.514   5.334   4.504 -1.5546  0.6703  0.2738
 4356TIP3    H234560   1.401   5.263   4.574  0.2845 -2.6377  0.0816
 4357TIP3   OH234561   5.046   0.034  13.152 -0.0157 -0.2742  0.0287
 4357TIP3    H134562   5.082  -0.047  13.188  0.6565  0.0034 -0.0207
 4357TIP3    H234563   4.986   0.066  13.220 -0.0337 -0.6344  0.1854
 4358TIP3   OH234564   5.631   1.173  16.547  0.4564  0.7864  0.1697
 4358TIP3    H134565   5.557   1.132  16.590 -0.2004  0.1528 -1.4874
 4358TIP3    H234566   5.706   1.119  16.573  0.1716  0.7621  0.9634
 4359TIP3   OH234567   2.928   1.305  14.376 -0.0343  0.3555 -0.3070
 4359TIP3    H134568   2.874   1.302  14.297 -0.3573  0.0473 -0.0815
 4359TIP3    H234569   2.997   1.368  14.356  0.2327 -0.1605 -1.0561
 4360TIP3   OH234570   5.884   1.907  11.514  0.3497  0.5214 -0.4036
 4360TIP3    H134571   5.842   1.960  11.582 -0.4814 -0.1303 -0.3999
 4360TIP3    H234572   5.813   1.884  11.455  0.5072 -1.3795  0.0946
 4361TIP3   OH234573   1.835   2.534  14.283 -0.3651  0.2920  0.0020
 4361TIP3    H134574   1.772   2.562  14.349  1.4235  0.6360  1.6273
 4361TIP3    H234575   1.846   2.440  14.300  0.1601  0.3984  0.2545
 4362TIP3   OH234576   2.926   1.630   5.780  0.4128 -0.4928  0.3795
 4362TIP3    H134577   3.019   1.609   5.786  0.9386  1.0055 -1.3481
 4362TIP3    H234578   2.896   1.582   5.703 -0.0546 -0.3541  0.4734
 4363TIP3   OH234579   1.456   1.627  13.322 -0.3182 -0.3654 -0.1769
 4363TIP3    H134580   1.547   1.626  13.293 -0.9646  0.5751 -2.4129
 4363TIP3    H234581   1.459   1.664  13.410  1.4388 -0.2293 -0.2639
 4364TIP3   OH234582   0.688   5.688   4.066 -0.1407  0.1935  0.5563
 4364TIP3    H134583   0.642   5.685   3.982 -0.0317  0.4259  0.4888
 4364TIP3    H234584   0.647   5.760   4.113  0.1567  0.4022  0.4952
 4365TIP3   OH234585   5.318   3.348   2.470 -0.4613 -0.0192 -1.2824
 4365TIP3    H134586   5.393   3.402   2.496 -0.9749  0.0933  0.0016
 4365TIP3    H234587   5.333   3.330   2.377  1.1394  0.0302 -1.0599
 4366TIP3   OH234588   5.501   0.122   2.556 -0.2256 -0.1896 -0.0210
 4366TIP3    H134589   5.565   0.052   2.542  0.1195  0.2016 -0.4499
 4366TIP3    H234590   5.509   0.177   2.478 -2.5433 -1.2432 -1.0852
 4367TIP3   OH234591   3.320   3.289  12.454 -0.5773 -0.0332 -0.0926
 4367TIP3    H134592   3.347   3.277  12.363  0.4664  0.2245  0.1577
 4367TIP3    H234593   3.402   3.285  12.504 -1.0474  0.5135  0.7602
 4368TIP3   OH234594   5.320   5.152  13.601  0.2876  0.3336  0.1725
 4368TIP3    H134595   5.276   5.119  13.522  0.3128 -1.2241  0.7855
 4368TIP3    H234596   5.260   5.132  13.672  0.9274  0.3494  0.7264
 4369TIP3   OH234597   4.249   3.952  16.216 -0.0883  0.6869 -0.2303
 4369TIP3    H134598   4.187   3.882  16.239  0.0231  1.1961  1.7622
 4369TIP3    H234599   4.193   4.028  16.198 -0.1364  0.4850 -0.9884
 4370TIP3   OH234600   1.468   0.584  14.713 -0.0115  0.2493 -0.3116
 4370TIP3    H134601   1.474   0.499  14.669  0.5089 -0.5913  1.3144
 4370TIP3    H234602   1.523   0.575  14.791 -0.9240  1.6713  0.5421
 4371TIP3   OH234603   3.025   0.740   1.966  0.1856  0.2199  0.1393
 4371TIP3    H134604   3.018   0.709   1.875 -0.5418  1.6887 -0.3485
 4371TIP3    H234605   3.057   0.664   2.015  0.2362 -0.7204 -1.2770
 4372TIP3   OH234606   1.026   2.553  14.108 -0.0221  0.3228 -0.3365
 4372TIP3    H134607   1.104   2.587  14.151 -0.5020 -1.5949  2.3564
 4372TIP3    H234608   1.048   2.462  14.086 -0.3022  0.8198 -3.0764
 4373TIP3   OH234609   2.013   4.750  15.737  0.0073 -0.0286  0.6043
 4373TIP3    H134610   1.983   4.664  15.769 -0.5020 -0.7508 -1.6121
 4373TIP3    H234611   2.103   4.735  15.710  0.2351  0.4055  1.1128
 4374TIP3   OH234612   5.599   3.494  10.381 -0.6716 -0.2433  0.4741
 4374TIP3    H134613   5.563   3.408  10.356  1.2931 -1.1439  0.5066
 4374TIP3    H234614   5.564   3.554  10.316 -0.2719 -1.5270 -1.0057
 4375TIP3   OH234615   0.941   0.793   2.377  0.2646  0.7866  0.5340
 4375TIP3    H134616   0.925   0.883   2.405 -0.7720 -0.0495  2.9257
 4375TIP3    H234617   0.888   0.740   2.436  1.2268 -1.4339 -0.4833
 4376TIP3   OH234618   3.858   5.100   5.102 -0.4563 -0.7579 -0.0188
 4376TIP3    H134619   3.822   5.070   5.186  0.0894  0.2904  0.6010
 4376TIP3    H234620   3.950   5.116   5.119 -0.2383 -0.9565 -0.9453
 4377TIP3   OH234621   1.927   5.875  16.210 -0.5472  0.0500 -0.0218
 4377TIP3    H134622   1.992   5.938  16.241  0.0866 -0.3302 -0.5439
 4377TIP3    H234623   1.946   5.795  16.259 -0.4328 -0.1469 -0.3844
 4378TIP3   OH234624   0.783   3.262   1.725 -0.2032  0.2165  0.4047
 4378TIP3    H134625   0.759   3.328   1.660 -1.0355 -0.1067  0.3751
 4378TIP3    H234626   0.728   3.186   1.704  1.6469 -0.9780 -0.3727
 4379TIP3   OH234627   1.990   1.505  11.312 -0.6885  0.8112 -0.0657
 4379TIP3    H134628   2.004   1.457  11.393 -0.3254  0.2372 -0.4669
 4379TIP3    H234629   2.078   1.525  11.279 -0.8322  1.1024 -0.2870
 4380TIP3   OH234630   6.636   3.023  12.496 -0.3815  0.3315 -0.0796
 4380TIP3    H134631   6.583   2.949  12.527  0.7282 -0.6636 -0.4659
 4380TIP3    H234632   6.726   2.996  12.513  0.0160  2.0863  0.7730
 4381TIP3   OH234633   5.126   0.610   2.688  0.2230  0.0113 -0.0933
 4381TIP3    H134634   5.106   0.520   2.715  0.4387 -0.0182 -0.0345
 4381TIP3    H234635   5.095   0.664   2.761 -2.9829  0.2693 -1.4461
 4382TIP3   OH234636   4.363   5.589   1.969  0.2464 -0.2784 -0.0788
 4382TIP3    H134637   4.405   5.551   2.046  0.0267 -1.7254 -0.6442
 4382TIP3    H234638   4.436   5.616   1.913  0.4079  0.0841  0.3023
 4383TIP3   OH234639   6.505   6.195   0.403  0.0529  0.2902  0.2398
 4383TIP3    H134640   6.431   6.253   0.420 -0.2130 -0.0693  0.3080
 4383TIP3    H234641   6.546   6.232   0.325  0.3396  1.0155  0.7153
 4384TIP3   OH234642   5.726   6.100   0.916  0.2177  0.0801  0.8338
 4384TIP3    H134643   5.668   6.071   0.846  0.2137  1.3291  0.2985
 4384TIP3    H234644   5.814   6.077   0.885  0.3605  2.0245 -0.3374
 4385TIP3   OH234645   6.705   5.913  14.267 -0.4519  0.1932  0.2003
 4385TIP3    H134646   6.708   6.006  14.291  2.0761 -0.2821  2.2322
 4385TIP3    H234647   6.612   5.893  14.258 -1.1037  2.6723  0.6896
 4386TIP3   OH234648   0.324   5.680  14.343 -0.3980  0.4482 -0.3403
 4386TIP3    H134649   0.241   5.690  14.390 -0.2816  1.1895 -0.2849
 4386TIP3    H234650   0.306   5.709  14.254 -0.7436 -1.4081 -0.9180
 4387TIP3   OH234651   2.686   4.418   3.648  0.1495  0.0622 -0.1391
 4387TIP3    H134652   2.676   4.324   3.660  0.7217  0.0010 -0.1195
 4387TIP3    H234653   2.750   4.445   3.714  2.0631 -0.0071 -1.8376
 4388TIP3   OH234654   5.427   0.492   3.529  0.1097  0.2065  0.1233
 4388TIP3    H134655   5.428   0.493   3.625 -0.9342  0.7948  0.1398
 4388TIP3    H234656   5.335   0.484   3.506  0.4876 -2.0322 -0.8592
 4389TIP3   OH234657   6.049   6.133  17.021  0.2202  0.2437  1.0069
 4389TIP3    H134658   5.983   6.158  17.085 -1.0713 -2.2467  0.7807
 4389TIP3    H234659   6.001   6.080  16.957  2.4784 -2.0109  1.0439
 4390TIP3   OH234660   4.260   5.163  11.483 -0.5135 -1.0663  0.0390
 4390TIP3    H134661   4.235   5.136  11.572 -0.0646 -0.4856  0.3515
 4390TIP3    H234662   4.283   5.255  11.492 -1.1082 -0.8266 -0.8206
 4391TIP3   OH234663   0.506   3.820  12.572  0.0532 -0.0355 -0.2328
 4391TIP3    H134664   0.599   3.839  12.560  0.0549  0.8145  0.9390
 4391TIP3    H234665   0.464   3.906  12.576 -0.8053 -0.4130 -0.8730
 4392TIP3   OH234666   0.993   6.321  16.291  0.1092 -0.2180 -0.2981
 4392TIP3    H134667   1.058   6.271  16.341  0.4079 -0.0119 -0.4770
 4392TIP3    H234668   1.042   6.356  16.216 -0.4616 -1.0357 -1.0803
 4393TIP3   OH234669   0.837   1.048   0.557  0.1614 -0.4376 -0.0032
 4393TIP3    H134670   0.798   0.992   0.624  0.6258  1.4355  1.9349
 4393TIP3    H234671   0.926   1.013   0.546 -0.5272 -1.9488 -1.1461
 4394TIP3   OH234672   2.076   1.182   2.817 -0.7403 -0.2324 -0.3115
 4394TIP3    H134673   2.101   1.254   2.760 -0.4456  1.3001  1.6718
 4394TIP3    H234674   2.135   1.110   2.791  0.4038  0.8829 -0.9160
 4395TIP3   OH234675   1.403   4.118   4.503 -0.7224  0.3138  0.4190
 4395TIP3    H134676   1.480   4.135   4.449 -0.9586  1.1415  0.3345
 4395TIP3    H234677   1.344   4.191   4.485 -1.0600  0.2843  1.3493
 4396TIP3   OH234678   3.332   0.642   3.441 -0.7293 -0.1817  0.1099
 4396TIP3    H134679   3.427   0.658   3.440 -0.5845 -0.9824 -0.2960
 4396TIP3    H234680   3.308   0.637   3.349 -0.5083 -3.4424  0.1046
 4397TIP3   OH234681   0.983   5.067  10.966 -0.2024  0.0072  0.1364
 4397TIP3    H134682   0.983   5.132  10.896 -0.6384  0.5498  0.6341
 4397TIP3    H234683   1.066   5.081  11.012  0.0009 -0.2272 -0.1576
 4398TIP3   OH234684   0.099   4.204  13.425 -0.1861  0.1249 -0.8487
 4398TIP3    H134685   0.029   4.266  13.441 -0.6519 -0.6186  0.0668
 4398TIP3    H234686   0.124   4.219  13.334 -1.5480  0.3850 -1.1988
 4399TIP3   OH234687   2.353   6.296  11.950  0.6822  0.6595 -0.0063
 4399TIP3    H134688   2.369   6.331  11.862  0.4970 -1.8431 -1.1192
 4399TIP3    H234689   2.260   6.312  11.964  0.9218  1.9952  0.2116
 4400TIP3   OH234690   0.202   1.114   0.288 -0.2286  0.3723  0.0964
 4400TIP3    H134691   0.250   1.196   0.304 -1.7386  1.6216 -1.4463
 4400TIP3    H234692   0.175   1.120   0.197 -1.5462 -1.2561  0.3451
 4401TIP3   OH234693   0.525   1.636  14.434 -0.2645  0.1032 -0.3636
 4401TIP3    H134694   0.445   1.585  14.443  0.3306 -1.0990 -1.6172
 4401TIP3    H234695   0.526   1.692  14.512 -3.0956  1.2942 -1.0610
 4402TIP3   OH234696   1.543   0.984  14.657 -0.5465  0.1894  0.3527
 4402TIP3    H134697   1.492   0.955  14.732 -3.8839  1.8799 -1.0601
 4402TIP3    H234698   1.580   1.068  14.683 -2.1759  1.0497  0.0016
 4403TIP3   OH234699   3.242   5.244  16.963 -0.4678  0.5580 -1.0407
 4403TIP3    H134700   3.227   5.150  16.950 -1.5413  0.0064  2.9374
 4403TIP3    H234701   3.165   5.286  16.927 -2.8117 -0.7102  2.0592
 4404TIP3   OH234702   5.284   1.199  16.300 -0.4374 -0.5478 -0.1059
 4404TIP3    H134703   5.379   1.195  16.312 -0.5517 -0.8252  0.7458
 4404TIP3    H234704   5.256   1.108  16.296 -0.5549 -0.4816 -1.4347
 4405TIP3   OH234705   6.501   6.466  17.221  0.4210 -0.1437  0.3072
 4405TIP3    H134706   6.579   6.425  17.258  1.1709 -0.2023 -1.2649
 4405TIP3    H234707   6.484   6.417  17.141 -1.9301 -0.8536  1.1797
 4406TIP3   OH234708   0.234   4.283  15.963  0.7687  0.5571 -0.5635
 4406TIP3    H134709   0.170   4.247  15.901 -0.7784 -0.7218  1.6331
 4406TIP3    H234710   0.279   4.206  15.997  0.0089  0.9767  1.5031
 4407TIP3   OH234711   3.297   1.019   5.479 -0.5242 -0.7354 -0.5537
 4407TIP3    H134712   3.275   1.029   5.571 -0.4005  1.2926 -0.6901
 4407TIP3    H234713   3.217   0.986   5.438 -1.5415  1.0327 -0.1228
 4408TIP3   OH234714   0.540   6.164  14.949  0.2946 -0.1240 -0.6321
 4408TIP3    H134715   0.530   6.215  15.030  0.7671  1.2514 -1.3925
 4408TIP3    H234716   0.634   6.153  14.939  0.2406 -0.2782 -0.9934
 4409TIP3   OH234717   0.729   5.957  16.708  0.1328  0.2144  0.1049
 4409TIP3    H134718   0.636   5.941  16.698 -0.1571  0.5451  1.8704
 4409TIP3    H234719   0.734   6.038  16.759  1.4360  1.4876 -1.9008
 4410TIP3   OH234720   6.236   4.397  15.026 -0.0156  0.5069 -0.0162
 4410TIP3    H134721   6.159   4.454  15.031 -0.3722  0.1516 -1.1773
 4410TIP3    H234722   6.308   4.451  15.059 -0.9854  0.3510  2.5550
 4411TIP3   OH234723   3.621   3.019  15.245  0.5062 -0.3714 -0.2619
 4411TIP3    H134724   3.570   2.971  15.310  0.3845  0.3161  0.1597
 4411TIP3    H234725   3.600   2.976  15.162  2.1094 -2.4750  0.3537
 4412TIP3   OH234726   0.004   4.948   0.905 -0.0032  0.1509 -0.2526
 4412TIP3    H134727   0.058   4.903   0.840 -2.3017 -0.1817 -2.0678
 4412TIP3    H234728  -0.031   4.879   0.961  0.6478  0.2636  0.3027
 4413TIP3   OH234729   0.060   5.134   6.365  0.1626 -0.3416  1.4327
 4413TIP3    H134730   0.067   5.164   6.456 -1.3467 -1.6900  2.0349
 4413TIP3    H234731   0.027   5.045   6.372  1.1376 -0.8850 -0.4265
 4414TIP3   OH234732   0.092   6.360   5.061  0.6366  0.4830 -0.1184
 4414TIP3    H134733   0.126   6.322   5.143  0.1967  1.8387  0.7195
 4414TIP3    H234734   0.008   6.398   5.086  0.1084  0.1934 -1.4071
 4415TIP3   OH234735   0.072   5.785  12.024  0.2286  0.3947  0.6440
 4415TIP3    H134736   0.000   5.827  12.071 -0.9371  1.9375 -2.2099
 4415TIP3    H234737   0.122   5.857  11.987  0.6530 -0.6617 -0.9699
 4416TIP3   OH234738   1.330   1.993  12.440 -0.0357 -0.6866 -0.3552
 4416TIP3    H134739   1.259   2.057  12.434  1.8072  1.4638 -0.6558
 4416TIP3    H234740   1.362   2.001  12.530  1.8305  0.7735 -1.0764
 4417TIP3   OH234741   3.002   1.418  15.363 -0.0443  0.3182 -0.0518
 4417TIP3    H134742   3.038   1.480  15.299 -0.1658 -1.4707 -1.9559
 4417TIP3    H234743   2.914   1.450  15.382 -0.3155  0.4451 -1.4450
 4418TIP3   OH234744   1.855   1.998  12.112  1.2604 -0.1699  0.2440
 4418TIP3    H134745   1.801   2.017  12.189  0.9516 -0.3750  0.0797
 4418TIP3    H234746   1.823   2.058  12.045  0.9468 -0.5845  0.0188
 4419TIP3   OH234747   2.067   5.392   0.452 -0.3244  0.3730  0.4262
 4419TIP3    H134748   2.003   5.384   0.381 -0.3822  0.7628  0.4341
 4419TIP3    H234749   2.127   5.461   0.422 -0.0222  0.1492  0.5075
 4420TIP3   OH234750   1.574   0.397   5.664 -0.3410 -0.1907  0.7806
 4420TIP3    H134751   1.491   0.356   5.638 -0.1992 -0.5405  0.8805
 4420TIP3    H234752   1.566   0.408   5.759 -0.0005 -0.8332  0.8833
 4421TIP3   OH234753   6.760   0.696  14.402  0.4016 -0.2843 -0.1339
 4421TIP3    H134754   6.736   0.719  14.491  1.7831  0.4385  0.0749
 4421TIP3    H234755   6.848   0.659  14.409  1.1294  1.0999 -1.3243
 4422TIP3   OH234756   1.230   0.077  13.292  0.3032  0.9595  0.5184
 4422TIP3    H134757   1.230   0.173  13.294 -0.7061  0.9543  0.9358
 4422TIP3    H234758   1.161   0.054  13.231  1.2063  0.4961 -0.3508
 4423TIP3   OH234759   3.307   0.412   1.527  0.2592 -0.7460 -0.0551
 4423TIP3    H134760   3.314   0.436   1.620 -0.9158 -3.7373  0.9256
 4423TIP3    H234761   3.367   0.472   1.483  0.2834  1.3088  2.5113
 4424TIP3   OH234762   4.800   5.280   1.200  0.3494 -0.5042 -0.5135
 4424TIP3    H134763   4.750   5.201   1.222  0.9313 -0.7268  0.0325
 4424TIP3    H234764   4.744   5.352   1.230  0.2388 -0.7436 -0.1322
 4425TIP3   OH234765   6.720   1.464   3.986 -0.2088  0.4817 -0.1140
 4425TIP3    H134766   6.699   1.557   3.977  1.7836  0.9174 -0.6607
 4425TIP3    H234767   6.714   1.448   4.080 -0.3321  1.2261  0.0131
 4426TIP3   OH234768   5.061   3.594  12.005  0.0275 -0.2347 -0.0561
 4426TIP3    H134769   4.983   3.646  12.026 -0.0249 -0.1061 -0.5654
 4426TIP3    H234770   5.083   3.552  12.088  0.1462  0.6941  0.4061
 4427TIP3   OH234771   6.754   6.100  11.665 -0.2549 -0.1348  0.0916
 4427TIP3    H134772   6.670   6.074  11.701  0.9355 -1.2184  2.2865
 4427TIP3    H234773   6.804   6.018  11.660  1.5024  0.8163  1.2553
 4428TIP3   OH234774   0.517   4.962   3.413  0.0961 -0.4711 -0.0722
 4428TIP3    H134775   0.548   5.027   3.477  1.1956 -0.2701 -0.7881
 4428TIP3    H234776   0.425   4.948   3.437 -0.2004  1.3829  0.0868
 4429TIP3   OH234777   2.110   4.523  12.369  0.0581 -0.2342 -0.2100
 4429TIP3    H134778   2.038   4.492  12.315  0.5143 -2.9114  0.5559
 4429TIP3    H234779   2.182   4.463  12.349  0.3658 -1.0824  2.9467
 4430TIP3   OH234780   1.546   0.624  16.139 -0.2414 -0.2927  0.2375
 4430TIP3    H134781   1.454   0.647  16.133 -0.0755  0.3130 -0.1905
 4430TIP3    H234782   1.547   0.533  16.166 -0.9335  0.2865  2.3728
 4431TIP3   OH234783   2.647   1.704  14.341  0.0566  0.5155  0.0911
 4431TIP3    H134784   2.726   1.723  14.290 -0.0839  1.2522  0.1391
 4431TIP3    H234785   2.645   1.771  14.410 -0.3768  0.2411  0.3538
 4432TIP3   OH234786   3.119   5.403   0.350  0.7102 -0.0218 -0.6035
 4432TIP3    H134787   3.212   5.404   0.329  0.5633 -0.4470 -1.2726
 4432TIP3    H234788   3.110   5.468   0.420  2.1480 -2.5415  2.2098
 4433TIP3   OH234789   5.918   0.700  11.234 -0.1369 -0.2088  0.2184
 4433TIP3    H134790   5.977   0.709  11.308 -1.0142  0.2496  0.8916
 4433TIP3    H234791   5.830   0.708  11.272 -0.6214 -0.3732 -0.8124
 4434TIP3   OH234792   1.559   3.537   2.056 -0.5467 -0.0113  0.5928
 4434TIP3    H134793   1.550   3.545   2.151 -0.4299  0.5395  0.5621
 4434TIP3    H234794   1.633   3.594   2.035 -0.7215  0.0496  0.1467
 4435TIP3   OH234795   2.127   6.203   1.757 -0.5625  0.2033 -0.1481
 4435TIP3    H134796   2.045   6.227   1.801 -2.0905 -1.2615 -2.0452
 4435TIP3    H234797   2.150   6.118   1.793  0.8404  1.1004  1.2209
 4436TIP3   OH234798   5.221   5.767  11.591 -0.5038 -0.1301  0.0296
 4436TIP3    H134799   5.193   5.858  11.581 -0.4195 -0.1145 -0.0571
 4436TIP3    H234800   5.308   5.763  11.551  1.4325  0.7548  3.7349
 4437TIP3   OH234801   1.536   5.880   0.623  0.2323 -0.4622  0.7740
 4437TIP3    H134802   1.513   5.955   0.569  1.9237 -0.3473  0.1373
 4437TIP3    H234803   1.480   5.809   0.591 -0.6862  0.2667  0.7192
 4438TIP3   OH234804   2.909   2.364  15.406 -0.2072  0.3965  0.5126
 4438TIP3    H134805   2.930   2.385  15.315  1.1115 -0.8522  0.4909
 4438TIP3    H234806   2.864   2.280  15.402  2.3015 -1.0642  1.1506
 4439TIP3   OH234807   3.713   3.236  10.522  0.1309 -0.1302  0.1951
 4439TIP3    H134808   3.738   3.306  10.583  0.0139 -1.1606  1.4510
 4439TIP3    H234809   3.678   3.167  10.577  1.3667 -1.7024 -0.8917
 4440TIP3   OH234810   2.092   0.062   6.262 -0.8168  0.6497 -0.2628
 4440TIP3    H134811   2.066   0.061   6.170  1.6188 -0.9658 -1.0386
 4440TIP3    H234812   2.050  -0.015   6.300 -0.4701  0.3640 -0.4580
 4441TIP3   OH234813   5.459   1.039   3.354 -0.0596  0.7283 -0.1495
 4441TIP3    H134814   5.544   1.018   3.315 -1.2724 -3.5169 -1.0272
 4441TIP3    H234815   5.413   1.089   3.287  1.3265  2.2651 -0.0240
 4442TIP3   OH234816   3.557   4.613  15.534 -0.0086  0.8589 -0.2204
 4442TIP3    H134817   3.632   4.577  15.485  1.1349 -0.7495  2.4798
 4442TIP3    H234818   3.494   4.541  15.537 -0.1197  0.9834  0.5142
 4443TIP3   OH234819   3.645   3.426   3.361 -0.1351 -0.1283 -0.3034
 4443TIP3    H134820   3.575   3.388   3.414 -0.6794  1.7719  0.3911
 4443TIP3    H234821   3.695   3.480   3.421  0.8473 -0.0227 -1.1839
 4444TIP3   OH234822   4.863   3.499   3.843 -0.3958 -0.3806 -0.1696
 4444TIP3    H134823   4.770   3.478   3.843 -0.4913 -0.0048  0.5898
 4444TIP3    H234824   4.907   3.413   3.841 -0.7120 -0.5357 -2.7120
 4445TIP3   OH234825   0.783   4.683   0.209 -0.5065 -0.1631 -0.5787
 4445TIP3    H134826   0.823   4.601   0.237 -1.0107 -0.1223  0.2985
 4445TIP3    H234827   0.696   4.658   0.179 -0.6734  0.0444 -0.2776
 4446TIP3   OH234828   1.344   6.524   2.428 -0.2701  0.2545  0.7045
 4446TIP3    H134829   1.342   6.620   2.433  1.2462  0.5866 -2.3126
 4446TIP3    H234830   1.255   6.500   2.400 -0.1379  1.0255 -0.4680
 4447TIP3   OH234831   0.753   4.615  14.318  0.3161  0.2367 -0.3987
 4447TIP3    H134832   0.720   4.540  14.270 -0.4426  0.3680 -0.0932
 4447TIP3    H234833   0.677   4.651  14.363  0.6232  1.3266 -0.7125
 4448TIP3   OH234834   1.756   3.218   1.924 -0.4183 -0.4348  0.4102
 4448TIP3    H134835   1.723   3.133   1.895 -2.2047  0.5712 -0.7071
 4448TIP3    H234836   1.737   3.220   2.018  0.4571 -1.6066  0.6245
 4449TIP3   OH234837   2.017   2.095  13.256 -0.2517 -0.1121  0.4745
 4449TIP3    H134838   1.990   2.170  13.202 -0.6462 -0.0315  0.7781
 4449TIP3    H234839   1.958   2.024  13.230 -1.3234  0.2833  1.7023
 4450TIP3   OH234840   2.632   2.572  14.676 -0.1932 -0.1037  0.1427
 4450TIP3    H134841   2.602   2.658  14.705  0.3890 -0.1145  0.8089
 4450TIP3    H234842   2.699   2.591  14.610 -0.7967 -0.0622 -0.4581
 4451TIP3   OH234843   5.732   1.215   6.299  0.1836 -0.2563 -0.0579
 4451TIP3    H134844   5.799   1.259   6.351  2.0268 -3.2978  0.3880
 4451TIP3    H234845   5.714   1.134   6.347 -0.5461 -1.5859 -2.4280
 4452TIP3   OH234846   2.514   2.624  15.388  0.2593 -0.1350  0.0997
 4452TIP3    H134847   2.438   2.661  15.344  1.1753 -1.2580 -2.5932
 4452TIP3    H234848   2.539   2.549  15.335  2.1572 -0.9092  1.9444
 4453TIP3   OH234849   1.620   1.911   4.179 -0.1621  0.3570 -0.4103
 4453TIP3    H134850   1.585   1.852   4.113  0.7308 -1.7314  0.8923
 4453TIP3    H234851   1.711   1.927   4.152  0.1286 -0.2984  0.1677
 4454TIP3   OH234852   1.447   4.317  11.887  0.2516  0.8108 -0.5476
 4454TIP3    H134853   1.457   4.296  11.980  1.6904  0.2874 -0.7930
 4454TIP3    H234854   1.446   4.233  11.843  0.4832  1.0820 -1.0816
 4455TIP3   OH234855   1.973   5.874  12.176 -0.1645  0.2203 -0.7126
 4455TIP3    H134856   1.889   5.829  12.187 -0.6128  1.3871  0.9747
 4455TIP3    H234857   1.955   5.943  12.112 -0.5496  0.5870 -0.2156
 4456TIP3   OH234858   3.472   0.016   3.060  0.0136 -0.1117  0.3119
 4456TIP3    H134859   3.445   0.002   3.151  0.4444 -2.0181  0.1960
 4456TIP3    H234860   3.392   0.008   3.010  0.0292 -0.8823  0.3906
 4457TIP3   OH234861   1.948   4.905  11.284  0.3625  0.4985 -0.7746
 4457TIP3    H134862   1.931   4.990  11.324 -0.4669 -0.5253  1.2356
 4457TIP3    H234863   1.862   4.875  11.255 -0.1752 -1.2701  2.1632
 4458TIP3   OH234864   6.134   0.232   4.722  0.3456  0.0708  0.2393
 4458TIP3    H134865   6.077   0.286   4.666  2.7717  0.4726 -2.0282
 4458TIP3    H234866   6.221   0.269   4.710  1.3756 -1.4821  2.3643
 4459TIP3   OH234867   4.154   3.891   3.100 -0.1396 -0.2717  0.0691
 4459TIP3    H134868   4.111   3.859   3.020 -1.7666  1.4554  0.2020
 4459TIP3    H234869   4.196   3.973   3.073  0.7175 -0.5122  0.6322
 4460TIP3   OH234870   6.808   2.813  16.739 -0.0433  0.2571 -0.0922
 4460TIP3    H134871   6.800   2.889  16.797 -0.3924 -0.2393  0.5142
 4460TIP3    H234872   6.865   2.752  16.786 -0.0652 -0.0157 -0.4124
 4461TIP3   OH234873   4.703   4.978  14.556 -0.0186  0.2244  0.3281
 4461TIP3    H134874   4.652   4.900  14.577  3.5383 -1.7204  2.8413
 4461TIP3    H234875   4.677   5.042  14.622 -0.3918 -0.1078  0.5084
 4462TIP3   OH234876   5.014   2.790  12.643 -0.3826 -0.4363  0.2220
 4462TIP3    H134877   4.922   2.778  12.618 -0.7338  1.5626  0.3798
 4462TIP3    H234878   5.015   2.873  12.691  1.4000 -0.8040  0.8884
 4463TIP3   OH234879   0.278   5.503  12.307  0.1198  0.7336  0.2866
 4463TIP3    H134880   0.263   5.596  12.291 -0.5357  0.6467  0.3897
 4463TIP3    H234881   0.193   5.468  12.333  0.3950  0.1375  0.4186
 4464TIP3   OH234882   6.452   3.536  16.710 -0.0184 -0.5749  0.2132
 4464TIP3    H134883   6.387   3.596  16.672  1.8174  2.0630  0.9794
 4464TIP3    H234884   6.522   3.533  16.646  1.0482  0.2170  1.2975
 4465TIP3   OH234885   3.141   2.031  12.753  0.6867 -0.1967  0.0144
 4465TIP3    H134886   3.168   2.079  12.831  4.2732 -0.0326 -1.1658
 4465TIP3    H234887   3.106   1.948  12.787  0.8093  0.4348  1.8038
 4466TIP3   OH234888   3.121   1.647  11.742  0.2214  0.3066  0.5722
 4466TIP3    H134889   3.161   1.720  11.695  0.4152 -0.6863 -0.8987
 4466TIP3    H234890   3.195   1.590  11.764 -0.1452 -0.6110 -0.4740
 4467TIP3   OH234891   2.342   5.114   4.655 -0.0759  0.2950  0.0554
 4467TIP3    H134892   2.349   5.023   4.625 -1.4503  0.2270 -0.1129
 4467TIP3    H234893   2.397   5.118   4.734  1.8791 -0.0659 -1.2225
 4468TIP3   OH234894   0.785   3.759   1.169  0.3689  0.2548  0.2742
 4468TIP3    H134895   0.741   3.765   1.084  1.4795  0.7344 -0.2858
 4468TIP3    H234896   0.849   3.830   1.168 -1.4517  2.1304  2.6387
 4469TIP3   OH234897   0.483   4.130   2.876 -0.2787 -0.1055 -0.7288
 4469TIP3    H134898   0.544   4.115   2.804 -0.1152 -0.0653 -0.5998
 4469TIP3    H234899   0.436   4.209   2.851  1.6667  1.5291  0.4494
 4470TIP3   OH234900   1.625   1.246  15.001 -0.6492  0.3140 -0.8555
 4470TIP3    H134901   1.661   1.211  14.920 -0.5706  0.1746 -0.7606
 4470TIP3    H234902   1.645   1.180  15.067 -1.8698 -0.1858 -0.9660
 4471TIP3   OH234903   1.288   0.003   2.530 -0.5221 -0.2711 -0.2952
 4471TIP3    H134904   1.279   0.092   2.563 -0.6744  0.1891 -1.5296
 4471TIP3    H234905   1.343  -0.041   2.595  0.3768  0.9898 -0.1623
 4472TIP3   OH234906   3.343   3.199  11.557 -0.1028 -0.4991  0.3977
 4472TIP3    H134907   3.351   3.281  11.607  0.5461 -0.1039 -0.3419
 4472TIP3    H234908   3.415   3.145  11.589  0.5992 -0.0674 -0.4287
 4473TIP3   OH234909   1.121   4.602   4.650  0.2245 -1.0205  0.1201
 4473TIP3    H134910   1.212   4.615   4.623 -0.1878 -0.6334 -1.1527
 4473TIP3    H234911   1.084   4.542   4.585 -1.2292  1.1669 -1.2365
 4474TIP3   OH234912   1.788   1.445   1.107  0.2211 -0.7229  0.5960
 4474TIP3    H134913   1.820   1.356   1.090  0.0645 -1.2877  2.8680
 4474TIP3    H234914   1.805   1.458   1.201 -2.7646  0.3747  1.0643
 4475TIP3   OH234915   2.286   5.616  12.644  0.2455 -0.1454  0.2516
 4475TIP3    H134916   2.243   5.530  12.652 -2.5955  1.1716  0.3012
 4475TIP3    H234917   2.331   5.628  12.727  1.7197 -2.0308 -0.1934
 4476TIP3   OH234918   0.095   2.653   1.764  0.5212 -0.5349  0.4883
 4476TIP3    H134919   0.074   2.744   1.781  2.0973 -0.2432  1.0548
 4476TIP3    H234920   0.187   2.654   1.735  0.3254 -1.8506 -0.2884
 4477TIP3   OH234921   3.565   2.854  16.038  0.5864  0.3452  0.5225
 4477TIP3    H134922   3.488   2.908  16.054  1.0835  1.1587  0.2149
 4477TIP3    H234923   3.617   2.863  16.118  0.3594 -0.2245  0.7411
 4478TIP3   OH234924   2.683   3.291   1.024  1.0222  0.8060  0.5659
 4478TIP3    H134925   2.641   3.215   0.985  0.4094  0.5515  1.6827
 4478TIP3    H234926   2.763   3.304   0.972  2.4799 -2.1359  1.8252
 4479TIP3   OH234927   0.820   3.259   2.393  0.4991 -0.2424  0.2727
 4479TIP3    H134928   0.843   3.192   2.329  0.7480  0.3618 -0.2837
 4479TIP3    H234929   0.849   3.341   2.353  0.0551  0.2142  0.8677
 4480TIP3   OH234930   5.216   3.974  10.835  0.3328 -0.3431 -0.6653
 4480TIP3    H134931   5.239   3.930  10.753  0.1730  0.4955 -1.1704
 4480TIP3    H234932   5.301   3.993  10.876  0.3834 -1.9293  0.0077
 4481TIP3   OH234933   0.869   1.056   2.422 -0.3067 -0.0358  0.0690
 4481TIP3    H134934   0.856   1.084   2.512  0.3165  0.4082  0.0254
 4481TIP3    H234935   0.793   1.092   2.375 -1.4259 -1.5073  0.6564
 4482TIP3   OH234936   6.752   2.908  13.754  0.1658  0.1628 -0.1093
 4482TIP3    H134937   6.703   2.986  13.729 -0.6622 -0.7624 -1.5475
 4482TIP3    H234938   6.695   2.835  13.729  0.8652 -0.9086  1.3041
 4483TIP3   OH234939   5.777   4.014  13.427 -0.0668 -0.6995  0.3951
 4483TIP3    H134940   5.814   3.963  13.499  1.1898  2.3299  2.0899
 4483TIP3    H234941   5.686   3.984  13.421  0.4980 -2.8477  1.4585
 4484TIP3   OH234942   3.454   4.126  12.280  0.1477 -0.0659  0.4204
 4484TIP3    H134943   3.539   4.103  12.241  0.0511 -0.3625  0.3832
 4484TIP3    H234944   3.471   4.207  12.328 -0.0916  1.1839 -1.5084
 4485TIP3   OH234945   2.540   0.381   5.123  0.1526 -0.9713 -0.9504
 4485TIP3    H134946   2.530   0.383   5.028  1.1587 -2.0924 -1.1115
 4485TIP3    H234947   2.480   0.448   5.156  0.0997 -0.2880 -2.3966
 4486TIP3   OH234948   0.544   4.537   3.846  0.8328 -0.0533  0.0314
 4486TIP3    H134949   0.536   4.617   3.899 -0.1706  0.4552 -0.8331
 4486TIP3    H234950   0.620   4.492   3.882  1.7041  1.5080  0.2606
 4487TIP3   OH234951   4.780   1.111  12.261 -0.2879 -0.6810  0.0892
 4487TIP3    H134952   4.696   1.087  12.222 -0.9314  0.5086  0.6510
 4487TIP3    H234953   4.757   1.182  12.322  0.4440 -3.1133  3.4565
 4488TIP3   OH234954   0.085   5.772   1.111 -0.1373  0.2136 -0.5114
 4488TIP3    H134955   0.170   5.804   1.141  0.2902 -0.8542 -0.5388
 4488TIP3    H234956   0.040   5.850   1.079  0.6458  0.8661 -0.0586
 4489TIP3   OH234957   0.586   0.647  13.752 -0.1117  0.6642 -0.1215
 4489TIP3    H134958   0.625   0.599  13.825 -0.7543  1.0115  0.4671
 4489TIP3    H234959   0.660   0.687  13.707  0.5381 -1.7137 -1.2616
 4490TIP3   OH234960   0.672   3.090   5.858  0.1877  0.3508  0.0715
 4490TIP3    H134961   0.659   3.026   5.927 -1.5617 -0.1433 -0.6764
 4490TIP3    H234962   0.765   3.083   5.835  0.6508  0.0846  1.9006
 4491TIP3   OH234963   1.604   5.457   2.867 -0.1609 -0.5320  0.3851
 4491TIP3    H134964   1.673   5.404   2.905 -1.1327 -1.0019  1.5285
 4491TIP3    H234965   1.527   5.400   2.865 -1.1991  0.7507  1.5365
 4492TIP3   OH234966   2.547   3.252   3.169 -0.2436 -0.1108  0.1773
 4492TIP3    H134967   2.629   3.261   3.121 -0.3405 -1.1348 -0.2150
 4492TIP3    H234968   2.494   3.193   3.114 -0.5488 -0.9120  1.3028
 4493TIP3   OH234969   1.454   3.880  11.477 -0.1839  0.1806 -0.4135
 4493TIP3    H134970   1.538   3.860  11.436 -0.6313  0.0305 -1.3003
 4493TIP3    H234971   1.443   3.974  11.464  1.3809  0.9076  2.7186
 4494TIP3   OH234972   2.620   0.344   6.538  0.1572  0.0687 -0.1656
 4494TIP3    H134973   2.687   0.412   6.552  0.0090  0.2439 -0.2994
 4494TIP3    H234974   2.545   0.392   6.502  0.1608 -0.2104 -0.5494
 4495TIP3   OH234975   0.073   3.188   3.911 -0.0782  0.2024  0.2341
 4495TIP3    H134976   0.042   3.155   3.827 -0.6271  3.0752 -0.8167
 4495TIP3    H234977   0.168   3.191   3.903  0.1232 -2.3372  0.9283
 4496TIP3   OH234978   6.380   0.764  12.196 -0.2554  0.0335  1.0054
 4496TIP3    H134979   6.308   0.743  12.256 -0.9712  0.3383  0.2858
 4496TIP3    H234980   6.336   0.792  12.116  0.6808 -0.3638  0.3355
 4497TIP3   OH234981   2.041   2.498  11.436 -0.0914  0.2099  0.3211
 4497TIP3    H134982   1.953   2.497  11.398 -0.3022 -0.3100  0.8129
 4497TIP3    H234983   2.026   2.512  11.530  0.2414 -1.4346  0.6527
 4498TIP3   OH234984   5.141   5.713   2.680 -0.1220  0.3574  0.3269
 4498TIP3    H134985   5.110   5.679   2.764 -0.6991  0.6354  0.2361
 4498TIP3    H234986   5.085   5.671   2.615 -0.2457  0.7892  0.1481
 4499TIP3   OH234987   0.219   4.488  15.380  0.2734 -0.9141  0.0849
 4499TIP3    H134988   0.221   4.576  15.417 -0.1773 -0.4886 -0.8961
 4499TIP3    H234989   0.287   4.441  15.428  2.1829  0.6174 -0.9991
 4500TIP3   OH234990   1.238   4.832   2.264  0.0376  0.5250  0.0904
 4500TIP3    H134991   1.330   4.855   2.279  0.2167  0.8282 -1.3886
 4500TIP3    H234992   1.230   4.744   2.300  1.1425  0.1213 -0.5957
 4501TIP3   OH234993   1.075   2.805   2.145 -0.2872 -0.0567 -0.5312
 4501TIP3    H134994   1.050   2.845   2.062 -0.2528 -0.4750 -0.7425
 4501TIP3    H234995   1.009   2.737   2.159 -0.6144  0.3708  0.0544
 4502TIP3   OH234996   4.670   5.531   5.810  0.0198  0.1524 -0.1285
 4502TIP3    H134997   4.724   5.461   5.774 -0.5473 -0.1038 -0.5040
 4502TIP3    H234998   4.674   5.519   5.905 -0.2270 -0.5128 -0.1960
 4503TIP3   OH234999   1.411   6.411  12.046  0.5312  0.1989 -0.2063
 4503TIP3    H135000   1.450   6.471  11.981 -1.1324  1.1739 -0.3639
 4503TIP3    H235001   1.438   6.324  12.016  5.1634  0.7912  1.4271
 4504TIP3   OH235002   6.740   5.776   2.878 -0.2538 -0.1468  0.2566
 4504TIP3    H135003   6.734   5.848   2.816  0.0749  1.7776  2.3466
 4504TIP3    H235004   6.649   5.747   2.890 -0.2216 -1.4257 -1.9657
 4505TIP3   OH235005   5.073   4.315   3.360 -0.0950  0.2177 -0.6038
 4505TIP3    H135006   5.014   4.373   3.408  1.8775  1.2656  0.7149
 4505TIP3    H235007   5.072   4.233   3.410  1.1670  0.9650  0.7293
 4506TIP3   OH235008   3.549   6.242   5.663  1.0193  0.1882 -0.0857
 4506TIP3    H135009   3.492   6.310   5.698 -0.6357 -1.1293 -0.0993
 4506TIP3    H235010   3.590   6.203   5.741  0.0500 -0.4013  0.1571
 4507TIP3   OH235011   1.252   1.600   2.903 -0.3956 -0.2441  0.6780
 4507TIP3    H135012   1.188   1.596   2.831 -1.4741  0.2934  1.5788
 4507TIP3    H235013   1.215   1.545   2.971 -0.7799  1.4343  1.8758
 4508TIP3   OH235014   3.250   0.999  13.820  0.7177 -0.2000  0.1566
 4508TIP3    H135015   3.265   0.992  13.725  1.2943 -0.4347  0.2622
 4508TIP3    H235016   3.310   0.936  13.858 -0.9582 -1.6298  0.5771
 4509TIP3   OH235017   1.044   4.199   5.384  0.3233 -0.5610 -0.3086
 4509TIP3    H135018   0.971   4.252   5.352  2.0471  2.4805  0.3854
 4509TIP3    H235019   1.020   4.178   5.474 -0.1751 -0.5721 -0.4398
 4510TIP3   OH235020   1.468   6.712   0.522  0.2429  0.3206  0.0343
 4510TIP3    H135021   1.546   6.657   0.509 -1.0058 -1.2609 -1.1054
 4510TIP3    H235022   1.468   6.731   0.616  1.7235 -0.0562  0.1412
 4511TIP3   OH235023   1.183   0.850  17.180 -0.2071  0.9525 -0.3388
 4511TIP3    H135024   1.230   0.784  17.230 -1.1211  0.3994 -0.1886
 4511TIP3    H235025   1.095   0.851  17.218 -0.3212  1.9796 -0.5970
 4512TIP3   OH235026   2.682   2.615   5.967 -0.7123  0.0280 -0.5059
 4512TIP3    H135027   2.607   2.651   5.919  0.1694 -0.0971 -2.0323
 4512TIP3    H235028   2.750   2.682   5.961 -0.7117  0.2042  0.9958
 4513TIP3   OH235029   1.833   1.990  11.736 -0.7341  0.5285 -0.1085
 4513TIP3    H135030   1.850   2.023  11.648  0.9204 -3.0303 -1.2634
 4513TIP3    H235031   1.841   2.068  11.792 -1.8940  2.9277 -2.9983
 4514TIP3   OH235032   2.995   3.340  15.268  0.4073  0.0477 -0.0455
 4514TIP3    H135033   2.998   3.289  15.187  0.3514  0.9263 -0.6060
 4514TIP3    H235034   3.021   3.428  15.242 -0.3333  0.5120  0.7636
 4515TIP3   OH235035   5.417   5.716  11.424 -0.4143 -0.2407 -0.0486
 4515TIP3    H135036   5.441   5.623  11.430 -1.7014 -0.6492 -0.7525
 4515TIP3    H235037   5.501   5.762  11.423  0.2924 -1.4586 -0.6556
 4516TIP3   OH235038   1.960   6.178  11.706  0.5032 -0.1514  0.5371
 4516TIP3    H135039   1.970   6.083  11.709  0.1013 -0.3057 -1.5360
 4516TIP3    H235040   1.877   6.196  11.749  0.8163 -0.6648  1.3833
 4517TIP3   OH235041   0.019   6.745  13.677 -0.1400  0.7544 -0.6307
 4517TIP3    H135042   0.033   6.659  13.636 -1.3190 -0.7127  1.8157
 4517TIP3    H235043  -0.072   6.766  13.656 -0.0745  1.0763 -0.5985
 4518TIP3   OH235044   1.958   0.113  16.083  0.1634  0.9900 -0.1919
 4518TIP3    H135045   1.867   0.142  16.079  0.0148  0.7669  1.0510
 4518TIP3    H235046   1.984   0.101  15.992 -0.9787  1.2764 -0.5672
 4519TIP3   OH235047   3.913   0.131   3.673 -0.2467 -0.2097  0.3303
 4519TIP3    H135048   3.841   0.131   3.736  0.6259 -0.1417  1.3608
 4519TIP3    H235049   3.976   0.068   3.708 -0.4142 -1.3306 -1.2931
 4520TIP3   OH235050   6.658   1.698   0.369  0.2092 -0.2712  0.4026
 4520TIP3    H135051   6.716   1.634   0.328  3.3119  2.6456 -0.1738
 4520TIP3    H235052   6.631   1.656   0.451  1.0939 -2.7449 -0.4810
 4521TIP3   OH235053   2.547   4.257  14.040  0.5558 -0.1662 -0.0181
 4521TIP3    H135054   2.564   4.320  13.969 -2.5911 -0.2362 -0.9980
 4521TIP3    H235055   2.548   4.172  13.997 -1.0975 -0.2338  0.0155
 4522TIP3   OH235056   6.333   3.122  11.673 -0.2453 -0.5535 -0.3437
 4522TIP3    H135057   6.269   3.068  11.626 -0.9724 -1.0903  1.1845
 4522TIP3    H235058   6.407   3.130  11.613 -1.0754 -1.3145 -1.5102
 4523TIP3   OH235059   0.014   2.557   5.176 -0.2611  0.1163 -0.7488
 4523TIP3    H135060  -0.035   2.586   5.254  1.1706 -2.2753  1.2062
 4523TIP3    H235061  -0.032   2.478   5.148  0.6826 -0.4287 -0.7716
 4524TIP3   OH235062   0.156   5.490   3.353  0.6313 -0.3782 -0.3925
 4524TIP3    H135063   0.157   5.409   3.405  2.6371 -1.5505 -2.0898
 4524TIP3    H235064   0.077   5.484   3.300  0.4103 -0.9093 -0.0070
 4525TIP3   OH235065   4.570   2.807  14.886 -0.2931 -0.7140 -0.1782
 4525TIP3    H135066   4.594   2.790  14.978  0.3708  0.0466 -0.2015
 4525TIP3    H235067   4.568   2.902  14.879  2.0307 -0.6959 -1.5225
 4526TIP3   OH235068   2.679   2.573  14.057 -0.5296 -0.0302 -0.0835
 4526TIP3    H135069   2.640   2.529  13.982 -0.9997  0.3794 -0.0896
 4526TIP3    H235070   2.642   2.526  14.133  0.2670 -0.7108 -0.1056
 4527TIP3   OH235071   5.115   0.564   5.554  0.1654  0.3501 -0.1293
 4527TIP3    H135072   5.204   0.530   5.542  0.4445  0.8366  0.4652
 4527TIP3    H235073   5.068   0.495   5.600 -0.2250 -0.5468 -1.8040
 4528TIP3   OH235074   5.353   5.507   6.331  0.3170  0.4402 -0.0354
 4528TIP3    H135075   5.322   5.425   6.371 -0.8989 -0.1244 -2.0126
 4528TIP3    H235076   5.274   5.561   6.324  0.9223  1.3814  0.2698
 4529TIP3   OH235077   3.836   1.537   3.684  0.7372  0.1695 -0.1725
 4529TIP3    H135078   3.839   1.603   3.614  0.2146  0.1671 -0.1967
 4529TIP3    H235079   3.829   1.589   3.765  1.8785  0.1941 -0.0676
 4530TIP3   OH235080   1.730   1.846  16.421 -0.0536  0.3662  0.8594
 4530TIP3    H135081   1.637   1.865  16.434 -0.1678  2.5760 -2.2902
 4530TIP3    H235082   1.775   1.924  16.451  0.5178  0.5250 -0.3571
 4531TIP3   OH235083   3.049   4.868   0.347  0.1761  0.3369  0.0075
 4531TIP3    H135084   3.005   4.953   0.351  0.4880  0.4570  1.6383
 4531TIP3    H235085   3.103   4.873   0.268  0.1925  1.6706  0.0728
 4532TIP3   OH235086   4.530   3.500   3.805 -0.1848 -0.2154 -0.4349
 4532TIP3    H135087   4.567   3.420   3.766 -0.0225  0.2147 -1.1801
 4532TIP3    H235088   4.524   3.480   3.898 -1.5404 -1.6429 -0.7894
 4533TIP3   OH235089   3.643   5.184  16.534 -0.2751  0.1339 -0.4093
 4533TIP3    H135090   3.654   5.093  16.505  0.9804 -0.5723  1.9998
 4533TIP3    H235091   3.577   5.179  16.604  0.5850  0.8609  0.4870
 4534TIP3   OH235092   1.671   0.395  13.534 -0.2540  0.0178  0.0946
 4534TIP3    H135093   1.618   0.474  13.532 -1.1256 -0.5620 -0.3453
 4534TIP3    H235094   1.696   0.381  13.443 -1.2013 -0.9174 -0.0445
 4535TIP3   OH235095   2.783   0.910   3.163  0.2042  0.0029  0.1641
 4535TIP3    H135096   2.755   0.820   3.143 -0.1566  0.4021 -1.2020
 4535TIP3    H235097   2.869   0.900   3.202  0.2861 -0.9277 -0.2334
 4536TIP3   OH235098   2.800   6.404  14.614  0.1004  0.2107  0.2439
 4536TIP3    H135099   2.720   6.374  14.571 -0.8502  0.8705  1.4980
 4536TIP3    H235100   2.786   6.498  14.628  1.3573  0.4619 -0.0589
 4537TIP3   OH235101   5.986   2.336  10.155 -0.1720 -0.5381  0.5161
 4537TIP3    H135102   6.008   2.307  10.243  0.7498  0.8014  0.7435
 4537TIP3    H235103   5.890   2.337  10.154 -0.2041 -1.5828  1.1410
 4538TIP3   OH235104   5.609   1.566  11.866  0.5639  0.2504  0.1284
 4538TIP3    H135105   5.548   1.600  11.801  0.9555 -1.3395 -1.1625
 4538TIP3    H235106   5.595   1.471  11.864  2.5940 -0.1074  0.2550
 4539TIP3   OH235107   4.874   0.355   3.579 -0.1576  0.6155 -0.3249
 4539TIP3    H135108   4.875   0.433   3.635 -1.6013  0.2588  0.2449
 4539TIP3    H235109   4.792   0.362   3.531  0.8785  0.7194 -2.1769
 4540TIP3   OH235110   4.830   5.042   2.590  0.4054  0.2085  0.1862
 4540TIP3    H135111   4.799   4.978   2.654  1.9244  0.0123  0.7666
 4540TIP3    H235112   4.750   5.074   2.547 -0.7063  0.6474  2.4245
 4541TIP3   OH235113   5.610   3.537   4.675 -0.0325  0.0099  0.3015
 4541TIP3    H135114   5.541   3.481   4.711 -0.8296  1.8881  1.8623
 4541TIP3    H235115   5.684   3.525   4.734  0.4910 -0.8188 -0.4857
 4542TIP3   OH235116   2.513   5.373  12.406 -0.3071 -0.3237 -0.0689
 4542TIP3    H135117   2.517   5.314  12.331 -1.5027  0.6657 -0.9578
 4542TIP3    H235118   2.564   5.449  12.379  0.1634 -0.4028  0.5667
 4543TIP3   OH235119   4.019   4.314   1.365 -0.0562 -0.4449 -0.1644
 4543TIP3    H135120   4.107   4.345   1.344 -0.1906 -0.4410 -0.7622
 4543TIP3    H235121   3.969   4.328   1.284 -1.2329  1.7412  0.8569
 4544TIP3   OH235122   3.643   0.313   6.532  0.1679 -0.9100 -0.0236
 4544TIP3    H135123   3.679   0.280   6.614  0.9478 -1.9630 -0.7602
 4544TIP3    H235124   3.687   0.262   6.464  0.6882  0.9676 -1.1872
 4545TIP3   OH235125   0.594   2.371   2.818  0.4768  0.3113  0.1396
 4545TIP3    H135126   0.662   2.325   2.866  1.5332 -0.6469 -2.1534
 4545TIP3    H235127   0.514   2.322   2.837  0.6899  0.4640  1.5383
 4546TIP3   OH235128   2.553   0.271  15.398  0.0103 -0.4361  0.2954
 4546TIP3    H135129   2.519   0.313  15.477 -0.9065 -0.3805 -0.1151
 4546TIP3    H235130   2.629   0.323  15.374 -1.3374  1.3062 -0.4379
 4547TIP3   OH235131   1.191   3.870   1.192 -0.3826 -0.2472  0.2905
 4547TIP3    H135132   1.185   3.916   1.109  0.3576  1.9345  1.3698
 4547TIP3    H235133   1.200   3.778   1.168  1.1561  0.4416 -2.0894
 4548TIP3   OH235134   4.575   2.454   2.597  0.3212  0.1201 -0.5473
 4548TIP3    H135135   4.636   2.463   2.670 -1.9553  0.8205  1.3957
 4548TIP3    H235136   4.583   2.536   2.549  1.2239  0.0125 -0.5982
 4549TIP3   OH235137   6.387   2.830   5.032  0.2978 -0.2792 -0.8706
 4549TIP3    H135138   6.416   2.750   4.987  0.9535 -1.1047  0.9197
 4549TIP3    H235139   6.468   2.869   5.065 -0.1585  0.3877 -0.5299
 4550TIP3   OH235140   4.490   1.845   0.776  0.2889  0.3610 -0.6066
 4550TIP3    H135141   4.578   1.811   0.791  0.3753  0.3489 -1.1406
 4550TIP3    H235142   4.437   1.769   0.754 -0.0997  0.2128  0.7108
 4551TIP3   OH235143   2.478   4.654   1.024 -0.2133  0.2458  0.2614
 4551TIP3    H135144   2.384   4.670   1.015 -0.4514 -1.4715 -0.7951
 4551TIP3    H235145   2.518   4.705   0.954 -0.3704  0.7443  0.5269
 4552TIP3   OH235146   1.541   3.003  11.276  0.0440 -0.5771  0.0574
 4552TIP3    H135147   1.562   3.042  11.192 -1.7355 -0.8553 -0.5698
 4552TIP3    H235148   1.527   2.910  11.256 -1.7832 -0.4013  0.3504
 4553TIP3   OH235149   6.015   2.936  14.232  0.4250 -0.2734  0.1379
 4553TIP3    H135150   5.940   2.942  14.292  0.2204 -0.1622 -0.1270
 4553TIP3    H235151   6.068   2.865  14.267  0.1049 -0.4690  0.2305
 4554TIP3   OH235152   4.115   0.099   1.328 -0.0219 -0.0685 -0.2037
 4554TIP3    H135153   4.095   0.118   1.236 -1.6075 -0.0783  0.1140
 4554TIP3    H235154   4.059   0.159   1.377  0.0045 -0.8273  0.7743
 4555TIP3   OH235155   4.644   5.415  13.385  0.3550 -0.1585 -0.0414
 4555TIP3    H135156   4.615   5.421  13.294  0.8192  1.5436 -0.1224
 4555TIP3    H235157   4.563   5.416  13.436 -0.0506 -3.3720 -0.4172
 4556TIP3   OH235158   0.417   1.820  16.401  0.4189  0.3412  0.3788
 4556TIP3    H135159   0.468   1.812  16.482  0.1023 -0.5957  0.4996
 4556TIP3    H235160   0.426   1.735  16.359 -2.7970 -0.6655  1.4467
 4557TIP3   OH235161   5.136   0.678   4.213 -0.6503 -0.6459  0.8814
 4557TIP3    H135162   5.096   0.593   4.194  0.5628 -1.1273  0.3368
 4557TIP3    H235163   5.069   0.742   4.191 -1.4466 -1.4550  0.9126
 4558TIP3   OH235164   0.061   3.613   0.125  0.0912  0.1320 -0.0921
 4558TIP3    H135165   0.120   3.687   0.140  0.2867 -0.2047  0.8452
 4558TIP3    H235166   0.017   3.634   0.042 -0.2097  1.5302  0.3923
 4559TIP3   OH235167   3.548   5.803   2.221  0.3109  0.3966 -0.4259
 4559TIP3    H135168   3.580   5.865   2.156 -0.9983 -0.1529 -1.6572
 4559TIP3    H235169   3.622   5.745   2.239  0.3232 -0.3208 -2.5434
 4560TIP3   OH235170   5.216   4.736  12.662 -0.5454 -0.5085  0.5308
 4560TIP3    H135171   5.135   4.713  12.616 -1.0794  2.5472 -0.3164
 4560TIP3    H235172   5.283   4.736  12.594  0.3010 -3.1896  1.2615
 4561TIP3   OH235173   6.301   3.312   1.313  0.2983  0.7767 -0.3148
 4561TIP3    H135174   6.359   3.316   1.237  0.2632  0.2255 -0.3797
 4561TIP3    H235175   6.360   3.307   1.388  0.3445  2.4794 -0.2070
 4562TIP3   OH235176   3.264   0.661  12.307 -0.3150  1.0787 -0.1052
 4562TIP3    H135177   3.182   0.661  12.356  0.6036  1.5392  1.5271
 4562TIP3    H235178   3.312   0.585  12.341  0.1447  1.1139 -0.6662
 4563TIP3   OH235179   6.195   5.852  13.505  0.4881  0.5880 -0.2785
 4563TIP3    H135180   6.134   5.840  13.432  0.8100  0.7462 -0.5719
 4563TIP3    H235181   6.188   5.770  13.556 -1.3056  1.2843  0.6989
 4564TIP3   OH235182   1.153   1.952   4.360  0.0928 -0.2844 -0.4235
 4564TIP3    H135183   1.071   1.908   4.382 -0.2444  1.1432  1.4589
 4564TIP3    H235184   1.192   1.974   4.444  0.9017  1.7570 -1.2520
 4565TIP3   OH235185   1.041   4.217  14.868  0.7820 -0.0125 -0.0954
 4565TIP3    H135186   1.109   4.228  14.801  0.8978 -0.4197 -0.0514
 4565TIP3    H235187   1.074   4.264  14.944  1.0535 -0.2747 -0.0496
 4566TIP3   OH235188   3.104   4.281   4.908 -0.3381 -0.1470  0.6922
 4566TIP3    H135189   3.190   4.323   4.904  0.2857 -1.3139  1.1550
 4566TIP3    H235190   3.101   4.224   4.831 -0.2789 -0.8458  1.1937
 4567TIP3   OH235191   3.211   0.277   5.762  0.2353  0.5056  0.4576
 4567TIP3    H135192   3.151   0.332   5.710 -0.7451  0.4396  1.4670
 4567TIP3    H235193   3.170   0.273   5.848 -1.2045 -4.0162 -0.2007
 4568TIP3   OH235194   0.639   4.502   2.952 -0.7003  0.5535  0.0878
 4568TIP3    H135195   0.654   4.415   2.988 -1.5241 -0.0554 -0.9694
 4568TIP3    H235196   0.561   4.534   2.997  0.4708  1.4101  1.5819
 4569TIP3   OH235197   4.704   5.539   6.105  0.1038 -0.8630 -0.0221
 4569TIP3    H135198   4.779   5.568   6.158  1.2884 -1.5069 -1.3122
 4569TIP3    H235199   4.640   5.509   6.170  0.0486  1.6378  1.2395
 4570TIP3   OH235200   0.338   5.154  11.058 -0.1164  0.5631  0.6363
 4570TIP3    H135201   0.349   5.079  11.116  0.4012  1.0969  1.2429
 4570TIP3    H235202   0.379   5.126  10.976 -0.1899  0.0728  0.7631
 4571TIP3   OH235203   6.281   3.928  15.994 -0.7141  0.3817 -0.3355
 4571TIP3    H135204   6.263   3.844  16.037  2.0623 -0.1637 -0.0609
 4571TIP3    H235205   6.356   3.964  16.041 -0.2827  1.8281 -2.0074
 4572TIP3   OH235206   6.039   4.972  15.682 -0.2618 -0.1451  0.5972
 4572TIP3    H135207   5.986   4.951  15.759 -0.2095 -1.1158  0.3795
 4572TIP3    H235208   5.977   4.974  15.610  0.1685 -3.1152  0.0199
 4573TIP3   OH235209   1.568   5.170   1.866  0.2227 -0.1612  0.2655
 4573TIP3    H135210   1.502   5.100   1.863 -1.2954  1.2348 -1.2121
 4573TIP3    H235211   1.618   5.159   1.786 -0.0645  0.4746 -0.0047
 4574TIP3   OH235212   1.374   4.334  13.059 -0.6453 -0.3190 -0.8235
 4574TIP3    H135213   1.344   4.366  13.144 -0.3063 -1.0354 -0.4293
 4574TIP3    H235214   1.302   4.280  13.027 -1.2064  0.7577 -1.4787
 4575TIP3   OH235215   5.743   5.954   0.159  0.4687 -0.4756 -0.8382
 4575TIP3    H135216   5.713   6.039   0.191 -0.3652 -1.1038  0.0836
 4575TIP3    H235217   5.820   5.975   0.105 -0.1124  0.9168 -1.1631
 4576TIP3   OH235218   4.309   0.166   4.522  0.1197  0.0033 -0.1589
 4576TIP3    H135219   4.239   0.229   4.541 -1.6768 -1.7642 -0.6400
 4576TIP3    H235220   4.319   0.169   4.427 -0.2699 -0.7267 -0.2258
 4577TIP3   OH235221   0.794   5.949   5.187  0.5785  0.2148 -0.0999
 4577TIP3    H135222   0.713   5.909   5.155  0.7198 -1.4015  1.3581
 4577TIP3    H235223   0.857   5.877   5.186  1.6095  1.0968  0.1168
 4578TIP3   OH235224   1.767   2.635   5.208  0.5155  0.3188  0.2753
 4578TIP3    H135225   1.745   2.551   5.167 -1.5895  0.4928  0.9185
 4578TIP3    H235226   1.847   2.616   5.259 -0.0967 -1.4003  0.6750
 4579TIP3   OH235227   4.829   3.747   2.643 -0.2849 -0.1298  0.4297
 4579TIP3    H135228   4.848   3.658   2.672  2.1062  0.6783  1.6193
 4579TIP3    H235229   4.894   3.765   2.575 -0.8377  0.6622  0.0949
 4580TIP3   OH235230   1.087   1.519   1.879 -0.8445  0.1933  0.1199
 4580TIP3    H135231   1.120   1.476   1.958  1.1437  1.5278  0.0892
 4580TIP3    H235232   1.043   1.598   1.912  0.0760  0.8030 -0.0976
 4581TIP3   OH235233   5.631   3.774  13.920 -0.3102 -0.2476 -0.1050
 4581TIP3    H135234   5.695   3.705  13.934 -0.5705 -0.6545 -0.8786
 4581TIP3    H235235   5.549   3.739  13.954 -0.2167  0.1107  0.5025
 4582TIP3   OH235236   0.351   5.562   4.989 -0.1926 -0.1622 -0.0905
 4582TIP3    H135237   0.392   5.646   5.007 -0.6159  0.0649 -0.1877
 4582TIP3    H235238   0.281   5.555   5.054 -1.2896  0.3517 -1.1748
 4583TIP3   OH235239   0.196   1.625   5.839 -0.1953 -0.2702  0.4653
 4583TIP3    H135240   0.241   1.571   5.904 -0.3975 -0.2277  0.6417
 4583TIP3    H235241   0.144   1.687   5.891 -3.3249 -2.5691  0.3865
 4584TIP3   OH235242   1.837   0.965   2.404 -0.1918 -0.1578  0.2033
 4584TIP3    H135243   1.908   1.006   2.356  0.4860 -2.9453 -1.3795
 4584TIP3    H235244   1.855   0.986   2.496  1.9806  0.2497 -0.2598
 4585TIP3   OH235245   5.692   5.585   4.725  0.1845 -0.2423  1.1491
 4585TIP3    H135246   5.715   5.492   4.726 -0.3219 -0.3948  0.0384
 4585TIP3    H235247   5.772   5.629   4.697  0.1099 -0.4580  0.5734
 4586TIP3   OH235248   3.573   4.953  16.042  0.2700  0.0954  0.1759
 4586TIP3    H135249   3.518   4.981  15.969 -0.2263  1.5319  1.0685
 4586TIP3    H235250   3.652   4.918  16.000 -0.6220 -0.4951 -1.0749
 4587TIP3   OH235251   2.015   4.562  13.404 -0.4270  0.0125  0.2090
 4587TIP3    H135252   2.046   4.551  13.314 -1.9622 -0.7676 -0.2635
 4587TIP3    H235253   2.030   4.477  13.445  0.3701  0.3976  0.7464
 4588TIP3   OH235254   0.964   3.844  11.948 -0.5239  0.0197 -0.5244
 4588TIP3    H135255   0.930   3.867  11.862 -1.7279  2.6730  0.5750
 4588TIP3    H235256   0.887   3.820  11.999  0.1413 -1.2272 -0.0517
 4589TIP3   OH235257   0.382   2.962  12.412  0.4684  0.0698 -0.3772
 4589TIP3    H135258   0.413   2.876  12.384 -2.4609 -1.5541  0.9160
 4589TIP3    H235259   0.320   2.989  12.344  0.1657  0.4056  0.0268
 4590TIP3   OH235260   6.287   4.880  16.070 -0.2138 -0.4024 -0.2510
 4590TIP3    H135261   6.236   4.949  16.113 -0.5493 -1.7294  1.6000
 4590TIP3    H235262   6.283   4.902  15.976 -0.1939  2.1253  0.2629
 4591TIP3   OH235263   5.966   5.222   0.989 -0.2988  0.7423 -0.2828
 4591TIP3    H135264   5.910   5.151   0.959  0.3732  0.5521 -1.0909
 4591TIP3    H235265   5.948   5.294   0.928 -0.2410  0.9525 -0.0577
 4592TIP3   OH235266   5.667   4.276  10.693  0.3034  0.0858 -0.1339
 4592TIP3    H135267   5.610   4.335  10.743  0.1390  0.5422 -0.8407
 4592TIP3    H235268   5.755   4.314  10.702  0.3176  0.0129  0.0347
 4593TIP3   OH235269   1.943   5.424  13.988 -0.4336  0.6166  0.3179
 4593TIP3    H135270   1.871   5.482  14.013 -1.9312 -0.0316 -2.1247
 4593TIP3    H235271   1.901   5.350  13.944  1.6301 -0.7395  0.4579
 4594TIP3   OH235272   3.200   0.478   4.377  0.5910  0.0127 -0.2552
 4594TIP3    H135273   3.185   0.514   4.289 -1.2147 -1.8365 -0.8030
 4594TIP3    H235274   3.213   0.554   4.433  2.8471  1.2303 -2.2497
 4595TIP3   OH235275   5.217   4.542  15.328 -0.2486  0.1258  0.2417
 4595TIP3    H135276   5.260   4.468  15.373  0.9569  0.3079 -0.5699
 4595TIP3    H235277   5.229   4.616  15.387  2.1996  0.5955 -0.7134
 4596TIP3   OH235278   4.383   0.881   1.572  0.1250  0.1278 -0.5322
 4596TIP3    H135279   4.452   0.873   1.505  0.1417 -1.6697 -0.3604
 4596TIP3    H235280   4.401   0.809   1.632 -0.3706  1.2278  0.9944
 4597TIP3   OH235281   4.467   2.610   3.344 -0.5231 -0.1807  1.2601
 4597TIP3    H135282   4.492   2.653   3.425  1.0416  0.6792  0.3666
 4597TIP3    H235283   4.437   2.681   3.287  1.6644 -0.2376 -0.0760
 4598TIP3   OH235284   2.642   1.263  12.811 -0.4709 -0.3869 -0.2315
 4598TIP3    H135285   2.560   1.300  12.844  0.3100 -0.5075  2.0040
 4598TIP3    H235286   2.710   1.315  12.853  0.6282 -2.5680  0.8263
 4599TIP3   OH235287   1.258   5.086  15.094 -0.3913 -0.3088  0.9645
 4599TIP3    H135288   1.316   5.114  15.166  1.3016 -0.1562 -0.3884
 4599TIP3    H235289   1.200   5.161  15.080 -0.1750 -0.0104  1.6276
 4600TIP3   OH235290   5.865   3.899  14.637 -0.4579  0.4041  0.0502
 4600TIP3    H135291   5.834   3.875  14.549 -2.7276  0.3633  0.8055
 4600TIP3    H235292   5.868   3.816  14.684 -2.1989  0.7301  0.8342
 4601TIP3   OH235293   4.297   0.031   0.367 -0.2499  0.4496 -0.9445
 4601TIP3    H135294   4.360   0.077   0.311 -1.1551  0.5326 -1.9237
 4601TIP3    H235295   4.234  -0.007   0.306 -0.2937 -0.9537 -0.0681
 4602TIP3   OH235296   4.230   4.660  12.653 -0.1009 -0.4283  0.0035
 4602TIP3    H135297   4.237   4.565  12.642  0.2262 -0.3324 -0.6828
 4602TIP3    H235298   4.155   4.672  12.711 -1.9074 -1.0075 -2.0757
 4603TIP3   OH235299   0.341   5.802  15.057  0.2793 -0.2145  0.3695
 4603TIP3    H135300   0.330   5.878  15.000  0.4614  0.2857  0.9934
 4603TIP3    H235301   0.273   5.813  15.124  2.5561  1.3628  2.5889
 4604TIP3   OH235302   1.025   3.769  15.744  0.3583  0.6107 -0.3784
 4604TIP3    H135303   1.083   3.695  15.762 -0.3099 -0.0626 -0.9230
 4604TIP3    H235304   0.952   3.731  15.695  0.1681  1.6964 -0.9676
 4605TIP3   OH235305   2.032   0.219  11.362  0.1087  0.8395  0.3931
 4605TIP3    H135306   2.063   0.162  11.292  2.1635  2.1216  0.1772
 4605TIP3    H235307   2.083   0.193  11.438 -1.1159  0.4007  1.0966
 4606TIP3   OH235308   5.548   4.428  16.418 -0.7686 -0.0704  0.0133
 4606TIP3    H135309   5.563   4.334  16.403  2.1432  0.3296 -0.2358
 4606TIP3    H235310   5.552   4.438  16.513 -1.1348 -0.1953  0.0424
 4607TIP3   OH235311   4.727   0.160  11.389  0.1143 -0.0806 -0.4020
 4607TIP3    H135312   4.689   0.242  11.358  0.2161 -0.0670 -0.4911
 4607TIP3    H235313   4.696   0.094  11.327  0.2259 -0.0719 -0.4656
 4608TIP3   OH235314   3.864   1.599  14.073  0.8126  0.4686 -0.2715
 4608TIP3    H135315   3.866   1.509  14.106  0.8968  0.5539 -0.0439
 4608TIP3    H235316   3.889   1.653  14.148  1.1897  0.6483 -0.5218
 4609TIP3   OH235317   1.332   2.651   4.670  0.6656 -0.3171 -0.1288
 4609TIP3    H135318   1.308   2.704   4.594  1.6922 -0.8242 -0.8302
 4609TIP3    H235319   1.248   2.623   4.707  0.1418 -0.6841 -1.5175
 4610TIP3   OH235320   5.350   6.027   2.981 -0.6070 -0.7538  0.3000
 4610TIP3    H135321   5.341   6.116   2.948  0.6383 -0.1926  1.4002
 4610TIP3    H235322   5.260   5.996   2.989 -1.1309  0.8536  1.0773
 4611TIP3   OH235323   0.934   6.339  14.359 -0.0920  0.4709 -0.1876
 4611TIP3    H135324   0.940   6.373  14.270  0.3288  0.8895 -0.0042
 4611TIP3    H235325   0.905   6.248  14.348  0.3602  0.3891 -0.7795
 4612TIP3   OH235326   5.521   5.942  16.308  0.1535 -0.4759 -0.0299
 4612TIP3    H135327   5.432   5.944  16.343 -0.1850  0.1459 -0.9052
 4612TIP3    H235328   5.575   5.977  16.379 -0.6778  2.0054 -0.5382
 4613TIP3   OH235329   1.402   4.504   0.036  0.0707 -0.2373 -0.1246
 4613TIP3    H135330   1.483   4.465   0.004  0.9483 -0.8008  2.5511
 4613TIP3    H235331   1.368   4.441   0.099 -2.2693  0.1811 -0.8647
 4614TIP3   OH235332   5.053   0.284  16.896  0.3493 -0.0131  0.0023
 4614TIP3    H135333   5.014   0.308  16.980 -0.8601 -0.8333 -0.2999
 4614TIP3    H235334   5.072   0.368  16.854 -1.2438  0.4434  0.1244
 4615TIP3   OH235335   1.855   5.426  12.183 -0.0970  0.6860  0.2625
 4615TIP3    H135336   1.902   5.378  12.114 -0.1896 -0.0142  0.6790
 4615TIP3    H235337   1.796   5.361  12.221  1.7821  0.2945  2.7558
 4616TIP3   OH235338   0.136   5.596   6.675  0.0728 -0.4138 -0.1318
 4616TIP3    H135339   0.147   5.592   6.770  0.4190 -1.1262 -0.1955
 4616TIP3    H235340   0.194   5.528   6.641 -1.4719 -1.5179 -0.7304
 4617TIP3   OH235341   6.704   5.819   3.222  0.1484 -0.2369  0.3052
 4617TIP3    H135342   6.686   5.827   3.315 -0.9771 -0.6168  0.1489
 4617TIP3    H235343   6.618   5.800   3.183  0.8626 -1.9721 -0.5690
 4618TIP3   OH235344   5.785   5.208  13.263  0.3088 -0.7984 -0.6719
 4618TIP3    H135345   5.708   5.209  13.320  0.1553 -1.3259 -0.8666
 4618TIP3    H235346   5.761   5.266  13.190  0.7631  0.4186  0.1175
 4619TIP3   OH235347   1.239   1.854  13.570 -0.0952 -0.7838 -0.1846
 4619TIP3    H135348   1.200   1.904  13.642 -1.6118 -1.7469 -0.2867
 4619TIP3    H235349   1.171   1.792  13.544  1.1021 -1.7339 -1.2090
 4620TIP3   OH235350   2.504   2.728   5.813  0.5250  0.0622  0.0652
 4620TIP3    H135351   2.521   2.821   5.825  1.2911  0.3316 -2.5316
 4620TIP3    H235352   2.452   2.723   5.732 -0.2288 -1.7213  0.6087
 4621TIP3   OH235353   4.496   4.594   0.683  0.2152 -0.1760  0.3384
 4621TIP3    H135354   4.457   4.553   0.760  0.4753 -0.3856  0.3591
 4621TIP3    H235355   4.449   4.676   0.673 -0.3682 -0.5196  0.2428
 4622TIP3   OH235356   2.555   3.723  11.463  0.3425 -0.2411  0.0407
 4622TIP3    H135357   2.647   3.698  11.465  0.5244  0.3389 -0.5578
 4622TIP3    H235358   2.508   3.647  11.498  1.0177 -0.6613  0.0473
 4623TIP3   OH235359   6.186   2.087   4.892  0.5174 -0.5880  0.9091
 4623TIP3    H135360   6.115   2.150   4.880 -0.3463 -1.1318  2.6949
 4623TIP3    H235361   6.235   2.121   4.968  2.2373 -0.1951 -0.3302
 4624TIP3   OH235362   0.355   2.288   3.902  0.1367  0.1873 -0.3765
 4624TIP3    H135363   0.270   2.274   3.861 -0.4064  0.7429  0.5094
 4624TIP3    H235364   0.335   2.333   3.984  1.2887  0.3257 -0.1453
 4625TIP3   OH235365   4.158   0.661   1.553  0.0391 -0.4964 -0.1726
 4625TIP3    H135366   4.237   0.652   1.606  0.6246 -1.0176 -1.0971
 4625TIP3    H235367   4.144   0.756   1.545  1.0219 -0.3755 -0.6235
 4626TIP3   OH235368   6.121   5.121  11.531 -0.4007  0.1153  0.2251
 4626TIP3    H135369   6.084   5.034  11.514  0.6740 -0.2920 -0.1597
 4626TIP3    H235370   6.146   5.154  11.445  1.7119 -0.3932  0.5710
 4627TIP3   OH235371   1.087   3.470   3.280  0.5259  0.2505 -0.0996
 4627TIP3    H135372   1.052   3.422   3.205 -0.2949  0.0054  0.4254
 4627TIP3    H235373   1.049   3.426   3.356  2.0023 -0.0406  0.5047
 4628TIP3   OH235374   3.249   4.620  12.125 -0.7816 -0.0641 -0.2907
 4628TIP3    H135375   3.265   4.536  12.168  2.2492  0.5997  0.0417
 4628TIP3    H235376   3.242   4.598  12.032 -0.1392 -0.7204 -0.1936
 4629TIP3   OH235377   6.454   3.164   6.420 -0.1196  0.2623 -0.2965
 4629TIP3    H135378   6.549   3.151   6.424  0.2239  2.4317  0.0514
 4629TIP3    H235379   6.444   3.257   6.399 -2.1813 -0.0070 -0.6760
 4630TIP3   OH235380   2.760   3.123  12.147  0.2336 -0.3192 -0.0904
 4630TIP3    H135381   2.706   3.089  12.076  1.6628 -1.3630 -0.7485
 4630TIP3    H235382   2.814   3.048  12.174 -1.6849 -0.6174  3.6133
 4631TIP3   OH235383   4.798   2.706   0.944  0.1502  0.1825  0.0812
 4631TIP3    H135384   4.797   2.719   1.039 -0.3289 -1.6050  0.3551
 4631TIP3    H235385   4.880   2.745   0.915  0.6236  0.1556  1.3264
 4632TIP3   OH235386   2.033   2.209   4.915 -0.3494  1.1682 -0.5300
 4632TIP3    H135387   2.090   2.169   4.850 -0.6895  0.8405 -0.6321
 4632TIP3    H235388   1.952   2.158   4.910 -0.6796  1.6792 -0.4473
 4633TIP3   OH235389   4.458   1.992   0.540 -0.1053  0.0930  0.4504
 4633TIP3    H135390   4.527   1.936   0.577 -0.1984 -0.5687 -0.3740
 4633TIP3    H235391   4.472   2.077   0.583  1.2595 -0.0161  0.2624
 4634TIP3   OH235392   2.441   4.240  15.146  0.1006 -0.0329  0.0615
 4634TIP3    H135393   2.444   4.202  15.058 -0.1614 -0.9685  0.4447
 4634TIP3    H235394   2.350   4.229  15.174  0.1334  0.4439  0.3756
 4635TIP3   OH235395   0.278   2.074  15.912  0.4282 -0.0639  0.7359
 4635TIP3    H135396   0.349   2.044  15.968 -0.7213 -0.8606  1.8366
 4635TIP3    H235397   0.199   2.037  15.952 -0.4853 -0.2805 -1.1709
 4636TIP3   OH235398   3.413   2.509   1.187  1.0861  0.1230  0.0486
 4636TIP3    H135399   3.416   2.605   1.183  2.9712  0.0481 -2.8629
 4636TIP3    H235400   3.487   2.485   1.243 -0.1717  0.3264  1.8773
 4637TIP3   OH235401   5.370   4.463  13.206  0.7466  0.0211  0.2480
 4637TIP3    H135402   5.416   4.454  13.289 -0.2960 -0.0420  0.8340
 4637TIP3    H235403   5.394   4.550  13.174  2.2653 -0.5010 -0.0933
 4638TIP3   OH235404   1.296   0.530   2.143 -0.1135 -0.8077  0.8439
 4638TIP3    H135405   1.309   0.604   2.204  1.4788 -1.3433  1.2209
 4638TIP3    H235406   1.319   0.453   2.195 -1.5559 -1.5694  0.3863
 4639TIP3   OH235407   6.531   0.717  17.127 -0.1474  0.2680 -0.6979
 4639TIP3    H135408   6.621   0.720  17.094  0.8436  0.7982  1.8434
 4639TIP3    H235409   6.482   0.773  17.068  1.3997  0.7735 -1.5636
 4640TIP3   OH235410   4.515   0.751  16.163  0.5931  0.3845  0.1286
 4640TIP3    H135411   4.561   0.756  16.247  0.4192 -0.2102  0.2678
 4640TIP3    H235412   4.422   0.747  16.188  0.4832  1.2077 -0.1343
 4641TIP3   OH235413   0.080   6.190  15.292 -0.2853  0.4521 -0.0083
 4641TIP3    H135414   0.026   6.260  15.330 -1.2379 -0.9753  1.4280
 4641TIP3    H235415   0.018   6.139  15.239 -0.1991 -0.6988  0.9532
 4642TIP3   OH235416   3.783   2.274   3.914  0.1773 -0.3950  0.0558
 4642TIP3    H135417   3.728   2.345   3.947  0.0635 -0.4404 -0.0379
 4642TIP3    H235418   3.803   2.298   3.824 -0.0003 -0.5656 -0.0293
 4643TIP3   OH235419   5.259   2.863   3.974  0.1670  0.3045 -0.3704
 4643TIP3    H135420   5.256   2.779   4.020 -0.5726 -0.0577 -1.0550
 4643TIP3    H235421   5.351   2.873   3.949  0.8875  1.1189  2.2239
 4644TIP3   OH235422   1.019   6.475  11.848  0.1399 -0.4623 -0.2154
 4644TIP3    H135423   1.045   6.387  11.875  1.2084 -0.6147 -1.6383
 4644TIP3    H235424   1.008   6.469  11.753 -3.0085  0.1616  0.0140
 4645TIP3   OH235425   3.045   5.132  11.723  0.0829  0.0208  0.4754
 4645TIP3    H135426   3.087   5.194  11.783 -1.6838  1.0797  0.7094
 4645TIP3    H235427   2.952   5.138  11.745 -0.2853 -1.7031 -0.4677
 4646TIP3   OH235428   0.194   1.828  14.035 -0.5000 -0.1765  0.4701
 4646TIP3    H135429   0.113   1.866  14.069 -1.3781 -1.6632  0.1476
 4646TIP3    H235430   0.261   1.851  14.099 -1.0862  1.4022  0.5458
 4647TIP3   OH235431   0.727   3.217   0.152 -0.2780 -0.6745  0.1385
 4647TIP3    H135432   0.659   3.201   0.085 -0.6900 -2.2251  0.8746
 4647TIP3    H235433   0.678   3.232   0.233  0.2426 -0.1926  0.3674
 4648TIP3   OH235434   5.925   1.271  11.892  0.5203 -0.6568 -0.0346
 4648TIP3    H135435   5.996   1.228  11.844 -0.0673  0.1315 -1.6944
 4648TIP3    H235436   5.846   1.250  11.842 -0.1232  0.2066  0.5797
 4649TIP3   OH235437   3.758   2.903  16.218  0.1873  0.4405  0.2363
 4649TIP3    H135438   3.842   2.857  16.226  0.6001  1.1088 -0.1908
 4649TIP3    H235439   3.755   2.961  16.295 -0.3541 -0.3167  0.7998
 4650TIP3   OH235440   6.727   3.014  15.943  0.6522 -0.3554  0.4707
 4650TIP3    H135441   6.711   2.922  15.963 -0.4140 -0.2534  0.1395
 4650TIP3    H235442   6.796   3.040  16.004  1.0053 -1.3883  0.5212
 4651TIP3   OH235443   1.600   1.427   0.091 -0.3604  0.4248 -0.2006
 4651TIP3    H135444   1.506   1.409   0.081 -0.6679  0.2481  2.3661
 4651TIP3    H235445   1.604   1.510   0.139  0.7626  0.1472  0.2284
 4652TIP3   OH235446   0.201   5.232  15.180  0.5157  0.3867 -0.7035
 4652TIP3    H135447   0.280   5.282  15.160 -0.0452  1.0863 -1.1877
 4652TIP3    H235448   0.134   5.298  15.197 -0.1285 -0.2021 -0.9272
 4653TIP3   OH235449   1.381   3.296  12.363 -0.2391  0.5704 -0.3502
 4653TIP3    H135450   1.353   3.275  12.273 -0.4837 -0.6106 -0.0179
 4653TIP3    H235451   1.365   3.216  12.412  0.3482  1.0535  0.6578
 4654TIP3   OH235452   5.788   5.414  14.883  0.0959  0.2318 -0.3502
 4654TIP3    H135453   5.871   5.422  14.930 -0.3790  0.9079  0.3935
 4654TIP3    H235454   5.813   5.415  14.790  0.9292  0.2498 -0.1371
 4655TIP3   OH235455   0.295   0.760   1.641  0.0105 -0.2312 -0.4182
 4655TIP3    H135456   0.305   0.674   1.682 -1.7184 -0.0105  0.5617
 4655TIP3    H235457   0.341   0.753   1.558 -0.8290 -2.3960 -0.7556
 4656TIP3   OH235458   4.454   4.663   2.355  0.2973 -0.3785 -0.3881
 4656TIP3    H135459   4.446   4.633   2.446 -0.3711  0.8272 -0.0255
 4656TIP3    H235460   4.539   4.629   2.326  1.3547  0.7035  1.2764
 4657TIP3   OH235461   2.161   4.762  14.408 -0.3527 -0.0571  0.0211
 4657TIP3    H135462   2.250   4.777  14.376 -0.7605  0.0904 -1.0883
 4657TIP3    H235463   2.173   4.726  14.496  0.8331 -1.0758 -0.5198
 4658TIP3   OH235464   0.010   6.432  17.032  0.1084 -0.2509 -0.2841
 4658TIP3    H135465   0.013   6.390  17.119  0.5708  1.5901  0.6426
 4658TIP3    H235466   0.102   6.446  17.010 -0.0119 -0.6422 -1.0754
 4659TIP3   OH235467   4.198   1.481   3.693 -0.6255  0.5173  0.4086
 4659TIP3    H135468   4.173   1.555   3.637  1.1401 -0.2572 -1.5503
 4659TIP3    H235469   4.171   1.403   3.643  0.0068 -0.1984  1.1529
 4660TIP3   OH235470   3.033   4.161  11.744 -0.2141 -0.2279  0.6150
 4660TIP3    H135471   3.108   4.154  11.804  0.3264 -0.1833 -0.0399
 4660TIP3    H235472   2.960   4.187  11.800  0.5645  1.1109  1.0588
 4661TIP3   OH235473   6.775   4.547  14.545 -0.5951  0.2317  0.3995
 4661TIP3    H135474   6.788   4.456  14.570 -0.1491  0.1826 -0.0170
 4661TIP3    H235475   6.805   4.597  14.621 -0.5420  0.0415  0.5049
 4662TIP3   OH235476   5.496   2.331   3.719  0.0034  0.2521 -0.5061
 4662TIP3    H135477   5.467   2.416   3.753 -0.7602  0.3006 -1.2532
 4662TIP3    H235478   5.548   2.353   3.642  1.0722  0.1028  0.1517
 4663TIP3   OH235479   3.154   4.830  11.994 -0.5238  0.0800 -0.1010
 4663TIP3    H135480   3.164   4.762  12.061 -1.3982 -0.4558 -0.5012
 4663TIP3    H235481   3.073   4.808  11.948  0.7530 -0.3657 -2.2615
 4664TIP3   OH235482   1.538   4.536   3.198  0.0514  0.2363  0.0098
 4664TIP3    H135483   1.506   4.590   3.126 -0.5214 -0.3353 -0.1722
 4664TIP3    H235484   1.501   4.450   3.182  0.1968  0.0160  0.8002
 4665TIP3   OH235485   4.976   2.609   5.467 -0.4497 -0.1699  0.5896
 4665TIP3    H135486   5.037   2.537   5.454 -0.4765 -0.4583  1.9259
 4665TIP3    H235487   4.991   2.667   5.391 -0.8862 -1.8591 -0.8481
 4666TIP3   OH235488   3.916   1.866  16.991 -0.1605  0.2200 -1.0509
 4666TIP3    H135489   3.942   1.899  17.077 -0.6567 -2.5129  0.2535
 4666TIP3    H235490   3.820   1.868  16.993 -0.2594 -2.3682 -0.3826
 4667TIP3   OH235491   2.208   3.880   3.264 -0.3427 -0.4351 -0.3261
 4667TIP3    H135492   2.300   3.853   3.254  0.9032  3.1911 -0.2501
 4667TIP3    H235493   2.160   3.820   3.208  1.7064 -3.8013  1.1826
 4668TIP3   OH235494   0.598   2.061  15.541 -0.5343  0.3965  0.0459
 4668TIP3    H135495   0.635   1.973  15.530  0.9434  0.9607  0.2372
 4668TIP3    H235496   0.656   2.117  15.490 -1.1040  1.3402  0.4167
 4669TIP3   OH235497   6.175   0.767  13.891 -0.1973  0.0282 -0.2849
 4669TIP3    H135498   6.204   0.857  13.908 -2.4640  0.6099  0.8032
 4669TIP3    H235499   6.190   0.755  13.797  1.0869  1.1517 -0.2554
 4670TIP3   OH235500   5.187   3.307   1.470  0.5161 -0.1924  0.2367
 4670TIP3    H135501   5.122   3.341   1.531 -1.2507 -1.5605 -0.7902
 4670TIP3    H235502   5.141   3.301   1.386  1.6807 -2.0302 -0.3448
 4671TIP3   OH235503   4.582   4.531  12.291  0.0599  0.4608 -0.3011
 4671TIP3    H135504   4.578   4.609  12.348  2.2925 -0.1704  0.8366
 4671TIP3    H235505   4.563   4.458  12.350 -2.1129  0.0689 -1.3800
 4672TIP3   OH235506   2.468   3.827   3.838 -0.3911 -0.0826 -0.3714
 4672TIP3    H135507   2.539   3.779   3.881  0.0269 -0.1951 -1.1771
 4672TIP3    H235508   2.391   3.772   3.850  0.5494 -2.3704 -3.5653
 4673TIP3   OH235509   1.643   1.175   0.509  0.2301 -0.3390  0.4129
 4673TIP3    H135510   1.626   1.167   0.603  0.3386  0.2091  0.4799
 4673TIP3    H235511   1.631   1.268   0.490 -2.1025 -0.7480 -0.5581
 4674TIP3   OH235512   3.048   3.932   2.209 -0.6336 -0.2128 -0.3515
 4674TIP3    H135513   3.078   4.012   2.252 -0.5668 -1.4690  2.0845
 4674TIP3    H235514   2.956   3.924   2.234 -0.7299 -0.7511 -0.8476
 4675TIP3   OH235515   0.412   3.797  16.949 -0.0563 -0.7479  0.2405
 4675TIP3    H135516   0.324   3.833  16.953  0.3373  0.4634 -1.2687
 4675TIP3    H235517   0.460   3.843  17.018 -0.3094 -0.5720  0.3014
 4676TIP3   OH235518   3.816   3.808  14.005  0.1192  0.4832 -0.0412
 4676TIP3    H135519   3.792   3.760  13.926  2.0379  0.4548 -0.6718
 4676TIP3    H235520   3.842   3.741  14.068  0.9972  0.5975 -0.2702
 4677TIP3   OH235521   5.637   3.525  16.799 -0.2692 -0.1739 -0.3221
 4677TIP3    H135522   5.603   3.607  16.764  0.4900 -0.4749 -1.8346
 4677TIP3    H235523   5.586   3.457  16.755 -2.3708 -0.5821  2.4391
 4678TIP3   OH235524   3.725   2.535   2.041 -0.6067  0.1747 -0.2429
 4678TIP3    H135525   3.723   2.440   2.039  0.3254  0.1494 -1.5057
 4678TIP3    H235526   3.705   2.558   2.132 -2.7215 -1.1297 -0.3096
 4679TIP3   OH235527   1.799   4.556  16.884  0.6752 -0.3801 -0.3001
 4679TIP3    H135528   1.750   4.486  16.926 -0.0088  0.2356 -0.0447
 4679TIP3    H235529   1.860   4.586  16.951 -0.5662  0.7509  0.3822
 4680TIP3   OH235530   1.133   5.760  16.138 -0.3226  0.4294  0.0728
 4680TIP3    H135531   1.092   5.834  16.094 -0.4669  0.5968  0.4832
 4680TIP3    H235532   1.227   5.776  16.129 -0.3222  1.5471  1.5831
 4681TIP3   OH235533   1.881   5.719   2.404 -0.4353 -0.4051 -0.1925
 4681TIP3    H135534   1.887   5.813   2.419  0.7228 -0.4631 -0.2291
 4681TIP3    H235535   1.965   5.684   2.433 -2.1218 -1.9505  3.4329
 4682TIP3   OH235536   5.042   3.960   0.302  0.4044 -0.0735  0.1014
 4682TIP3    H135537   4.952   3.973   0.271 -0.0398  0.2885  1.4768
 4682TIP3    H235538   5.080   4.047   0.301  0.3327 -0.0293  0.6838
 4683TIP3   OH235539   4.945   5.646   5.955  0.0672 -0.7050  0.1284
 4683TIP3    H135540   4.914   5.646   6.046 -1.6657 -0.7456 -0.4390
 4683TIP3    H235541   4.873   5.684   5.905  0.6198 -1.5455 -1.3650
 4684TIP3   OH235542   2.383   3.502  11.510  0.0618  0.0516  0.2380
 4684TIP3    H135543   2.364   3.568  11.444 -2.1919 -0.5731  0.1815
 4684TIP3    H235544   2.363   3.419  11.467 -0.9736 -0.3999  1.5315
 4685TIP3   OH235545   1.378   1.061  16.462  0.0902  0.3003 -0.1566
 4685TIP3    H135546   1.444   1.128  16.442  0.9227  0.0108  1.4781
 4685TIP3    H235547   1.321   1.102  16.527 -0.0479 -0.2166  0.0515
 4686TIP3   OH235548   3.076   4.488  13.657 -0.5560  0.1097 -0.1075
 4686TIP3    H135549   3.062   4.460  13.748 -0.9210 -0.0276 -0.2061
 4686TIP3    H235550   3.142   4.557  13.664  1.3938 -1.6523  0.0226
 4687TIP3   OH235551   5.905   5.542  15.505  0.0112  0.4746  0.0977
 4687TIP3    H135552   5.859   5.466  15.469 -0.3568  0.6162  0.2638
 4687TIP3    H235553   5.899   5.532  15.600  0.6748  0.2882  0.1266
 4688TIP3   OH235554   4.668   3.534  16.590 -0.0430  0.0371 -0.0503
 4688TIP3    H135555   4.695   3.465  16.529  1.1096  1.5909 -1.3744
 4688TIP3    H235556   4.668   3.491  16.676  0.2164 -1.7057 -0.8679
 4689TIP3   OH235557   6.589   1.139   0.403  0.5787 -0.5218  0.5631
 4689TIP3    H135558   6.528   1.071   0.376 -0.4423  0.5585  0.0202
 4689TIP3    H235559   6.674   1.095   0.410  0.0780 -1.6921 -0.4347
 4690TIP3   OH235560   1.713   1.062  15.175 -0.1390 -0.0957 -0.2154
 4690TIP3    H135561   1.741   1.100  15.259 -0.6678 -1.6846  0.7168
 4690TIP3    H235562   1.793   1.060  15.123  0.8262 -1.4992  1.2178
 4691TIP3   OH235563   2.198   4.152  14.702 -0.5185 -0.0803 -0.1552
 4691TIP3    H135564   2.176   4.061  14.682 -0.8535 -0.0023 -0.1615
 4691TIP3    H235565   2.283   4.166  14.660 -0.4412 -0.4035 -0.1108
 4692TIP3   OH235566   3.327   5.514  13.248 -0.5175  0.1937 -0.3258
 4692TIP3    H135567   3.278   5.596  13.246 -2.3952 -0.8641  0.5022
 4692TIP3    H235568   3.356   5.506  13.339  0.1571  0.2023 -0.5362
 4693TIP3   OH235569   5.251   2.224  15.671  0.7587 -0.4391 -0.5244
 4693TIP3    H135570   5.302   2.222  15.752 -1.1497  0.8602  0.7836
 4693TIP3    H235571   5.273   2.308  15.631  1.3698 -0.8923 -1.1644
 4694TIP3   OH235572   4.853   0.150  14.648  0.3863 -0.1586 -0.1521
 4694TIP3    H135573   4.934   0.142  14.699 -0.4151 -1.4170  1.0013
 4694TIP3    H235574   4.843   0.065  14.605  0.1080  0.2731 -0.9512
 4695TIP3   OH235575   3.694   5.504  12.276 -0.0242  0.0855  0.2273
 4695TIP3    H135576   3.632   5.576  12.263  1.1678  0.9239 -1.2578
 4695TIP3    H235577   3.639   5.425  12.278 -1.2172  0.8737 -0.0288
 4696TIP3   OH235578   1.806   3.829  11.257  0.4737 -0.2358 -0.4595
 4696TIP3    H135579   1.886   3.817  11.205 -0.2360  0.3312 -1.7223
 4696TIP3    H235580   1.796   3.924  11.262  1.3619 -0.1897  2.0886
 4697TIP3   OH235581   0.506   2.212   4.188 -0.7685  0.1063  0.5089
 4697TIP3    H135582   0.440   2.278   4.168  0.0695  0.1846 -2.4288
 4697TIP3    H235583   0.588   2.262   4.197 -0.4937 -0.3332  0.4926
 4698TIP3   OH235584   2.061   4.118  15.780 -0.1737 -0.6840  0.1848
 4698TIP3    H135585   1.968   4.099  15.785 -0.0413 -1.0377  1.8879
 4698TIP3    H235586   2.083   4.107  15.687 -1.5955 -1.6896 -0.0638
 4699TIP3   OH235587   2.201   3.089   0.358 -0.0480 -1.0148 -0.0867
 4699TIP3    H135588   2.181   3.055   0.445 -0.1815  1.5874  0.9792
 4699TIP3    H235589   2.294   3.109   0.361 -0.3969  0.7341  0.1274
 4700TIP3   OH235590   4.961   4.974  13.384  0.6043  0.1882 -0.2365
 4700TIP3    H135591   4.877   4.983  13.339 -0.5043 -2.4654  1.0933
 4700TIP3    H235592   4.968   5.053  13.438 -1.7070 -0.0890  0.5791
 4701TIP3   OH235593   5.649   1.489   3.552  0.3975  0.4194 -0.0999
 4701TIP3    H135594   5.637   1.533   3.468  1.5293  2.2141  0.6142
 4701TIP3    H235595   5.666   1.560   3.614  2.6496 -1.0178  1.0627
 4702TIP3   OH235596   4.487   6.694   1.122  0.3708  0.0379  0.4710
 4702TIP3    H135597   4.509   6.722   1.211  0.5869  0.2734  0.3445
 4702TIP3    H235598   4.438   6.768   1.086 -0.2186 -0.2888  0.5863
 4703TIP3   OH235599   5.866   1.499  16.038  0.0398  0.1670 -0.3473
 4703TIP3    H135600   5.795   1.447  16.076 -0.1136  0.3147 -0.4326
 4703TIP3    H235601   5.917   1.529  16.113 -0.9703  1.5076 -0.1543
 4704TIP3   OH235602   0.163   1.549  12.951 -0.2129  0.2380  0.1911
 4704TIP3    H135603   0.132   1.499  13.027 -0.8842  0.3096 -0.0318
 4704TIP3    H235604   0.089   1.605  12.928  0.5182  1.3522  0.4431
 4705TIP3   OH235605   3.468   5.865  16.942  0.0613 -0.4131  0.2339
 4705TIP3    H135606   3.517   5.847  16.862 -2.6624 -1.7627 -1.2804
 4705TIP3    H235607   3.409   5.937  16.918 -0.4295 -0.4746  1.2010
 4706TIP3   OH235608   5.729   2.307  16.329  0.4764  0.1718  0.1855
 4706TIP3    H135609   5.737   2.244  16.258  0.6842 -0.5386  0.8263
 4706TIP3    H235610   5.662   2.269  16.387 -0.7158  1.4091 -0.3140
 4707TIP3   OH235611   5.271   2.863   3.648  0.2087  0.2720  0.0347
 4707TIP3    H135612   5.267   2.805   3.572  1.3198  0.4371 -0.1627
 4707TIP3    H235613   5.226   2.814   3.717  0.8531 -0.7112 -0.2125
 4708TIP3   OH235614   5.346   1.107   4.928 -0.2489  0.7616 -0.3060
 4708TIP3    H135615   5.323   1.195   4.959 -1.1014  0.4115  0.0840
 4708TIP3    H235616   5.431   1.118   4.885 -0.5818  1.8789 -0.7094
 4709TIP3   OH235617   5.491   3.727   3.755  0.3074 -0.8977  0.0604
 4709TIP3    H135618   5.467   3.639   3.725 -1.0705 -0.3509 -0.5568
 4709TIP3    H235619   5.409   3.763   3.790  1.4293 -0.8383  2.9084
 4710TIP3   OH235620   0.909   2.797  13.652 -0.0717  0.6032 -0.3324
 4710TIP3    H135621   0.908   2.765  13.742  0.9945  0.7519 -0.2453
 4710TIP3    H235622   1.000   2.785  13.625 -0.2728  1.0467 -1.2118
 4711TIP3   OH235623   3.737   2.188   0.894 -0.0104  0.1404 -0.0415
 4711TIP3    H135624   3.649   2.216   0.918  0.7193  1.7437  0.9521
 4711TIP3    H235625   3.730   2.093   0.884 -1.6282  0.1071  0.9681
 4712TIP3   OH235626   0.805   6.022  12.655  0.3150 -0.2162 -0.3358
 4712TIP3    H135627   0.769   5.959  12.718  0.1765 -0.9491 -1.1131
 4712TIP3    H235628   0.793   5.979  12.570  1.1825  0.4199 -0.7923
 4713TIP3   OH235629   6.434   2.537   2.382  0.0757 -0.2715 -0.3574
 4713TIP3    H135630   6.510   2.595   2.376  1.1464 -1.6309 -0.4303
 4713TIP3    H235631   6.462   2.467   2.441 -0.5236 -1.6472 -1.6391
 4714TIP3   OH235632   1.703   5.076   4.577  0.6112  0.5200  0.8272
 4714TIP3    H135633   1.607   5.074   4.579  0.6049  1.0062  2.6267
 4714TIP3    H235634   1.725   5.141   4.511 -0.3554  1.9090  1.8195
 4715TIP3   OH235635   2.914   1.301   5.621  0.3031  0.0463  0.7959
 4715TIP3    H135636   2.959   1.295   5.706 -0.3219 -1.8100  1.0417
 4715TIP3    H235637   2.821   1.297   5.642  0.1543 -1.7971 -0.0142
 4716TIP3   OH235638   4.251   1.230  13.183 -0.0431  0.2892  0.1196
 4716TIP3    H135639   4.246   1.197  13.272  2.6420  0.8834  0.5641
 4716TIP3    H235640   4.280   1.155  13.131  1.1692  0.6422  0.2653
 4717TIP3   OH235641   3.408   1.531  13.885  0.3382 -0.2492  0.2469
 4717TIP3    H135642   3.356   1.556  13.961  0.2981 -0.1300  0.1788
 4717TIP3    H235643   3.421   1.437  13.895 -3.9134 -1.3543 -2.1358
 4718TIP3   OH235644   4.935   6.226   5.900 -0.5382 -0.7810 -0.6893
 4718TIP3    H135645   4.992   6.173   5.845  1.1202 -0.1200  0.3375
 4718TIP3    H235646   4.869   6.165   5.933  0.7708 -2.0171 -0.2805
 4719TIP3   OH235647   6.727   1.017  12.097  0.4303 -0.8851 -0.5332
 4719TIP3    H135648   6.717   0.966  12.016  2.3844 -1.5717 -0.4029
 4719TIP3    H235649   6.753   0.952  12.162  1.1214  0.0002  0.0930
 4720TIP3   OH235650   0.438   4.436  10.783  0.1168 -0.3695 -0.3348
 4720TIP3    H135651   0.425   4.466  10.693  0.6624  0.5417 -0.1229
 4720TIP3    H235652   0.458   4.343  10.775 -0.0693 -0.3437 -1.1355
 4721TIP3   OH235653   2.463   5.122  13.364  0.3552 -0.3930 -0.3458
 4721TIP3    H135654   2.542   5.157  13.323  0.9922 -0.3001  0.9108
 4721TIP3    H235655   2.407   5.198  13.378  0.6785 -0.2363  0.1113
 4722TIP3   OH235656   4.677   3.489   1.130 -0.3709  0.6668  0.7230
 4722TIP3    H135657   4.742   3.559   1.119  1.1985 -0.6721  1.1782
 4722TIP3    H235658   4.639   3.478   1.043  1.2846  0.2954  0.0115
 4723TIP3   OH235659   0.022   4.884   5.563 -0.3225  0.0368 -0.3523
 4723TIP3    H135660   0.024   4.979   5.572  0.1608 -0.1483  2.2000
 4723TIP3    H235661   0.111   4.856   5.582 -0.5784 -0.9557 -0.5604
 4724TIP3   OH235662   0.171   4.390  16.564 -0.2858  0.1327  0.4288
 4724TIP3    H135663   0.099   4.405  16.626 -1.0385 -3.4125  0.6515
 4724TIP3    H235664   0.228   4.328  16.609  0.6397 -0.3875 -1.3739
 4725TIP3   OH235665   2.261   5.767   2.295 -0.1664 -0.0617  0.1891
 4725TIP3    H135666   2.326   5.723   2.350 -0.1040  1.1487  1.1270
 4725TIP3    H235667   2.213   5.695   2.253  0.4996 -1.0081  0.9798
 4726TIP3   OH235668   2.388   0.676  13.156  0.5525 -0.2172 -0.6079
 4726TIP3    H135669   2.433   0.620  13.093  0.2407  0.6893 -1.6837
 4726TIP3    H235670   2.428   0.762  13.145  1.0715 -0.2045  1.0577
 4727TIP3   OH235671   4.546   3.914   6.097 -0.2459  0.6624  0.3773
 4727TIP3    H135672   4.455   3.940   6.089 -0.3647 -0.0507 -0.9106
 4727TIP3    H235673   4.593   3.994   6.119 -1.2807  0.8642  1.9895
 4728TIP3   OH235674   6.241   3.690  15.364 -0.1928  0.0531  0.1954
 4728TIP3    H135675   6.224   3.783  15.376  2.3424  0.5214  0.7841
 4728TIP3    H235676   6.187   3.666  15.289 -1.0530  1.9475  0.1401
 4729TIP3   OH235677   5.866   0.986  13.427  0.7540 -0.0821 -0.3359
 4729TIP3    H135678   5.806   0.921  13.464  1.6047  1.2221  3.7887
 4729TIP3    H235679   5.819   1.069  13.432  1.0839  0.2513 -1.9939
 4730TIP3   OH235680   3.849   5.299  10.996 -0.4384  0.7609  0.4663
 4730TIP3    H135681   3.857   5.390  10.967  0.0341  0.1870 -1.3612
 4730TIP3    H235682   3.885   5.248  10.923  0.1813 -0.8539  1.8484
 4731TIP3   OH235683   5.048   0.516  16.760  0.1188  0.5548  0.3503
 4731TIP3    H135684   5.067   0.582  16.694  0.5350 -0.6723 -0.8100
 4731TIP3    H235685   4.962   0.481  16.735  0.5848 -0.3933  0.0128
 4732TIP3   OH235686   3.728   3.076  16.435  0.7670  0.3996  0.4007
 4732TIP3    H135687   3.638   3.107  16.425  0.0594 -1.6274 -0.1424
 4732TIP3    H235688   3.781   3.155  16.440 -1.0082  1.6446  0.3850
 4733TIP3   OH235689   6.814   0.155  11.765 -0.5149 -0.2904  0.0411
 4733TIP3    H135690   6.800   0.065  11.736  0.2974 -0.8075  1.1688
 4733TIP3    H235691   6.885   0.187  11.709  0.8283 -1.1748  1.1433
 4734TIP3   OH235692   2.265   1.516  13.627  0.3965 -0.2265 -0.2094
 4734TIP3    H135693   2.275   1.610  13.641 -2.1317  0.2368 -1.0477
 4734TIP3    H235694   2.355   1.482  13.627  1.3115  1.6188  3.5094
 4735TIP3   OH235695   3.487   5.447  13.958 -0.3388  0.6082 -0.0597
 4735TIP3    H135696   3.551   5.456  13.888 -2.1876  0.1012 -1.9238
 4735TIP3    H235697   3.444   5.363  13.941 -0.0883 -0.1070  2.4134
 4736TIP3   OH235698   0.684   4.023  14.967 -0.3189  0.4810  0.0319
 4736TIP3    H135699   0.747   3.973  15.019  0.4767  1.2619 -0.1519
 4736TIP3    H235700   0.614   3.961  14.948  0.7635 -0.6400 -0.4170
 4737TIP3   OH235701   3.491   0.034   1.310 -0.1196 -0.2216 -0.1132
 4737TIP3    H135702   3.431   0.100   1.276  0.6278  0.2319 -0.5816
 4737TIP3    H235703   3.483  -0.040   1.250  1.6012  0.7826 -1.6653
 4738TIP3   OH235704   5.052   1.097  13.572 -0.3754  0.2294 -0.1142
 4738TIP3    H135705   5.074   1.154  13.499 -2.6028  0.6305 -0.5358
 4738TIP3    H235706   5.023   1.157  13.641 -1.9316 -0.2877 -0.2696
 4739TIP3   OH235707   4.932   2.145   3.172 -0.0242 -0.2277  0.1801
 4739TIP3    H135708   5.019   2.128   3.208 -0.5487 -0.7457  1.2825
 4739TIP3    H235709   4.881   2.173   3.248 -1.0460 -0.8331 -0.2638
 4740TIP3   OH235710   1.092   1.500   5.971 -0.1298  0.1357 -0.1754
 4740TIP3    H135711   1.105   1.591   5.943 -2.1172  0.1568 -1.1926
 4740TIP3    H235712   1.131   1.496   6.058  2.0929  1.3167 -1.0292
 4741TIP3   OH235713   6.136   2.248  13.802  0.3242 -0.4833 -0.1197
 4741TIP3    H135714   6.179   2.235  13.887  1.3986 -0.8027 -0.6862
 4741TIP3    H235715   6.184   2.191  13.743  1.1039  1.4429 -1.4298
 4742TIP3   OH235716   2.910   2.659   0.214  0.3588 -0.5141  0.0962
 4742TIP3    H135717   2.954   2.735   0.252  0.1809  0.0400 -0.7806
 4742TIP3    H235718   2.915   2.673   0.119 -1.4018 -0.6082 -0.0358
 4743TIP3   OH235719   5.160   6.291  13.288  0.1910  0.3821 -0.1015
 4743TIP3    H135720   5.185   6.221  13.348 -2.4435 -0.8437 -0.2780
 4743TIP3    H235721   5.133   6.245  13.208  0.7715  1.8002 -1.1650
 4744TIP3   OH235722   6.095   3.971  11.877 -0.0019  0.5522 -0.2413
 4744TIP3    H135723   6.169   4.003  11.825  0.0669  1.4635  0.4104
 4744TIP3    H235724   6.036   3.931  11.812  0.2199  1.4118 -0.9930
 4745TIP3   OH235725   1.944   0.585  13.855 -0.3016 -0.0632 -0.4641
 4745TIP3    H135726   1.891   0.526  13.909  0.4524  1.2129  1.8494
 4745TIP3    H235727   1.881   0.628  13.798 -1.0708 -1.9111 -1.0720
 4746TIP3   OH235728   0.718   6.627  16.743  0.0016  0.5653 -0.2554
 4746TIP3    H135729   0.671   6.646  16.824  0.1744  3.0243 -0.6521
 4746TIP3    H235730   0.702   6.534  16.727 -2.0284  0.5712  1.3180
 4747TIP3   OH235731   1.534   1.192   5.939  0.1862  0.0294 -0.2771
 4747TIP3    H135732   1.567   1.169   6.026  1.3548 -1.0965 -0.9892
 4747TIP3    H235733   1.598   1.156   5.879  0.3882  2.3632 -1.5917
 4748TIP3   OH235734   0.536   5.044  14.269  0.0254 -0.0881 -0.2211
 4748TIP3    H135735   0.479   5.024  14.343 -0.7250 -1.8151 -1.1897
 4748TIP3    H235736   0.477   5.053  14.195  0.8355  0.6735 -0.7972
 4749TIP3   OH235737   0.347   5.865   6.283 -0.0812  0.1828  0.8749
 4749TIP3    H135738   0.398   5.939   6.315  2.7274 -0.9850 -0.6259
 4749TIP3    H235739   0.301   5.898   6.206  0.7483  0.5240  0.5185
 4750TIP3   OH235740   2.952   0.642  15.846  0.3087 -0.0354  0.7358
 4750TIP3    H135741   2.991   0.554  15.844  0.8684  0.2138  0.5765
 4750TIP3    H235742   3.022   0.700  15.815 -0.1032  0.4511  0.7085
 4751TIP3   OH235743   2.776   3.351  14.592 -0.5365  0.3948  0.3061
 4751TIP3    H135744   2.778   3.348  14.687 -1.0702 -1.8119  0.2931
 4751TIP3    H235745   2.834   3.424  14.569 -1.3293  1.7370  2.3151
 4752TIP3   OH235746   1.511   2.803   6.024 -0.0389 -0.1881 -0.3209
 4752TIP3    H135747   1.542   2.783   6.112  2.0101 -0.1282 -0.9790
 4752TIP3    H235748   1.587   2.789   5.968 -0.9662  0.9400 -1.9462
 4753TIP3   OH235749   1.420   0.877  12.448  0.0799 -0.0394 -0.3156
 4753TIP3    H135750   1.421   0.875  12.353 -2.3329 -1.2398 -0.3842
 4753TIP3    H235751   1.405   0.969  12.470 -2.0227 -0.1159 -1.2215
 4754TIP3   OH235752   2.491   2.440  12.659 -0.4782  0.0496  0.4847
 4754TIP3    H135753   2.481   2.350  12.630  0.6151 -0.1234  0.5911
 4754TIP3    H235754   2.561   2.476  12.604 -0.3207  0.5659  1.0068
 4755TIP3   OH235755   3.084   4.389   4.005  0.1494 -0.0367  0.6217
 4755TIP3    H135756   3.123   4.309   3.969 -1.4205 -1.4296  1.8691
 4755TIP3    H235757   3.143   4.414   4.076 -0.1764 -1.0465  1.2716
 4756TIP3   OH235758   5.738   1.360  15.501  0.3122  0.5266 -0.0033
 4756TIP3    H135759   5.743   1.438  15.446  1.1562 -0.1122 -0.8488
 4756TIP3    H235760   5.730   1.287  15.439 -0.6722 -0.0558  0.7803
 4757TIP3   OH235761   0.520   4.809   4.290 -0.4784  0.2898  0.9361
 4757TIP3    H135762   0.502   4.902   4.295 -1.1244  0.2067  0.2992
 4757TIP3    H235763   0.606   4.799   4.331  0.1162  1.3220 -0.0159
 4758TIP3   OH235764   5.281   2.824  16.302  0.1112  0.1656  0.4241
 4758TIP3    H135765   5.284   2.817  16.397  2.7148 -1.1973  0.3496
 4758TIP3    H235766   5.215   2.761  16.274 -1.3264  1.2256  1.3122
 4759TIP3   OH235767   6.063   4.560   1.301  0.0356  0.3263  0.3335
 4759TIP3    H135768   6.021   4.570   1.386 -2.4178 -1.5739 -0.5188
 4759TIP3    H235769   6.043   4.470   1.275  2.1595  0.3028 -1.5409
 4760TIP3   OH235770   4.731   3.747  15.682 -0.0997 -0.1004  0.3584
 4760TIP3    H135771   4.781   3.674  15.646 -1.6133  0.0326 -2.2731
 4760TIP3    H235772   4.645   3.710  15.701 -0.3626  0.6279  0.6197
 4761TIP3   OH235773   0.919   5.547  15.213  0.3005 -1.3878 -0.1266
 4761TIP3    H135774   1.014   5.534  15.208  0.2681 -1.5453 -0.3597
 4761TIP3    H235775   0.884   5.493  15.142  0.1601  0.0721 -1.1947
 4762TIP3   OH235776   0.771   2.074  12.689 -0.1490  0.3822  0.3068
 4762TIP3    H135777   0.696   2.066  12.630 -0.3348  0.3851  0.5418
 4762TIP3    H235778   0.847   2.061  12.633 -0.3619 -1.6100  0.4042
 4763TIP3   OH235779   1.280   6.249  11.339 -0.4249  0.0422 -0.1512
 4763TIP3    H135780   1.319   6.296  11.265  0.0362  1.9875  1.2250
 4763TIP3    H235781   1.212   6.194  11.300 -1.1716  2.0574 -1.9096
 4764TIP3   OH235782   6.813   1.967  14.750 -0.2401  0.4123  0.2325
 4764TIP3    H135783   6.739   1.956  14.809  0.4216  1.3059  1.2857
 4764TIP3    H235784   6.845   1.878  14.735 -1.8460 -0.0426 -0.7141
 4765TIP3   OH235785   4.545   4.369   4.631 -0.1991 -0.1397  0.1646
 4765TIP3    H135786   4.601   4.438   4.666 -1.1761 -0.7791  3.4241
 4765TIP3    H235787   4.579   4.288   4.670 -0.8948 -1.0982 -1.1305
 4766TIP3   OH235788   2.767   6.683   0.772  0.1342 -0.4421  0.6020
 4766TIP3    H135789   2.754   6.653   0.862  0.6885  2.7692  1.8858
 4766TIP3    H235790   2.682   6.720   0.747 -0.1724 -1.7913 -0.4422
 4767TIP3   OH235791   1.063   4.357   2.254  0.1171 -0.0671 -0.1850
 4767TIP3    H135792   1.004   4.365   2.328 -0.3199 -2.3148 -0.2117
 4767TIP3    H235793   1.112   4.276   2.270  1.0706  0.1726 -1.6146
 4768TIP3   OH235794   2.490   1.693   5.971 -0.0329 -0.0325 -1.1300
 4768TIP3    H135795   2.453   1.698   5.883  0.1507 -1.3997 -1.3001
 4768TIP3    H235796   2.419   1.656   6.025 -0.8899  2.6778 -0.2190
 4769TIP3   OH235797   1.334   4.840  16.125  0.1069  0.1071  0.4072
 4769TIP3    H135798   1.406   4.876  16.073  1.4513 -1.6037  0.9827
 4769TIP3    H235799   1.365   4.843  16.215 -1.3699  1.1460  0.9157
 4770TIP3   OH235800   6.794   4.999  15.918 -0.0036 -0.1845  0.2753
 4770TIP3    H135801   6.754   5.031  15.999 -0.3470  2.1069 -0.7138
 4770TIP3    H235802   6.796   4.904  15.928 -0.6904 -0.0130  2.6524
 4771TIP3   OH235803   2.945   5.061  13.948  0.3051  0.5359 -0.1925
 4771TIP3    H135804   2.892   5.020  13.879  2.2563  1.0536 -2.1232
 4771TIP3    H235805   2.889   5.128  13.986 -0.3148  1.4200 -2.5176
 4772TIP3   OH235806   3.707   4.173   5.235 -0.1517 -0.0170 -0.1647
 4772TIP3    H135807   3.737   4.083   5.235 -1.5292 -0.5107  0.8818
 4772TIP3    H235808   3.702   4.197   5.142 -0.4805 -1.2751 -0.4843
 4773TIP3   OH235809   1.252   5.043  15.460 -0.0516  0.5102 -0.4236
 4773TIP3    H135810   1.257   5.116  15.398 -1.6578  0.1729 -0.9966
 4773TIP3    H235811   1.280   4.967  15.409 -0.2629  0.4207 -0.4066
 4774TIP3   OH235812   5.360   4.294  14.197 -0.7387  0.3814 -0.5970
 4774TIP3    H135813   5.426   4.226  14.184  0.4763  1.5237 -0.6168
 4774TIP3    H235814   5.321   4.306  14.111 -0.4370  0.2326 -0.7555
 4775TIP3   OH235815   3.489   3.983  14.008  0.2360 -0.3661  0.1508
 4775TIP3    H135816   3.499   4.078  14.004  0.6937 -0.3689  1.1022
 4775TIP3    H235817   3.527   3.951  13.925  1.1658  0.1959  0.3452
 4776TIP3   OH235818   3.572   0.826   1.840  0.2823 -0.6746 -0.2518
 4776TIP3    H135819   3.580   0.853   1.749  0.3293 -0.3169 -0.1440
 4776TIP3    H235820   3.622   0.891   1.889 -1.2214  0.2113  0.1995
 4777TIP3   OH235821   3.917   0.491   4.697  0.0210 -0.6609 -0.4474
 4777TIP3    H135822   3.960   0.543   4.765  0.1759  0.1495 -1.1524
 4777TIP3    H235823   3.833   0.535   4.682 -0.8107 -1.8596  0.4600
 4778TIP3   OH235824   3.598   4.055  14.610  0.0856 -0.3314 -0.6170
 4778TIP3    H135825   3.606   3.968  14.571  1.1846 -0.6621  0.2852
 4778TIP3    H235826   3.616   4.116  14.538 -0.8532 -0.8214 -1.2939
 4779TIP3   OH235827   4.081   3.156  12.987  0.8832  0.6170  0.4319
 4779TIP3    H135828   4.145   3.091  12.959 -0.8494 -0.3013 -1.6683
 4779TIP3    H235829   4.004   3.139  12.932  0.0660  3.9162  0.3647
 4780TIP3   OH235830   1.530   0.224   0.587  0.8561  0.0266 -0.0123
 4780TIP3    H135831   1.617   0.190   0.566  1.0925  0.9822 -0.6910
 4780TIP3    H235832   1.546   0.311   0.623  0.2090 -0.0666  0.5317
 4781TIP3   OH235833   2.928   0.087  14.954 -0.5462 -0.5073  0.3517
 4781TIP3    H135834   2.957   0.008  14.908  0.9261 -1.1294  2.2513
 4781TIP3    H235835   2.832   0.080  14.953 -0.4849 -1.6763 -0.5432
 4782TIP3   OH235836   5.148   3.820   4.366 -0.0125  1.0613 -0.1767
 4782TIP3    H135837   5.057   3.802   4.391  0.7753 -3.5838  0.1272
 4782TIP3    H235838   5.195   3.826   4.449  0.1985  2.2801 -0.3635
 4783TIP3   OH235839   5.320   6.482  13.221 -0.0751 -0.1734  0.2006
 4783TIP3    H135840   5.251   6.415  13.217 -0.3556  0.1623 -0.9757
 4783TIP3    H235841   5.396   6.435  13.256 -0.6809 -0.7314  0.8093
 4784TIP3   OH235842   5.618   0.797   5.274  0.2048 -0.6607  0.3608
 4784TIP3    H135843   5.633   0.800   5.179  0.4611 -4.2749  0.1476
 4784TIP3    H235844   5.703   0.772   5.310  0.3075  1.4219  1.7196
 4785TIP3   OH235845   5.462   1.745   4.983  0.0517  0.0825  0.5346
 4785TIP3    H135846   5.381   1.774   5.027  0.8478 -0.0365  2.1665
 4785TIP3    H235847   5.456   1.650   4.983  0.5726  0.0360  1.4762
 4786TIP3   OH235848   2.884   6.076  12.619  0.1452 -0.3868  0.5171
 4786TIP3    H135849   2.929   6.027  12.688 -0.7602 -0.5805  0.9946
 4786TIP3    H235850   2.940   6.152  12.602  1.0921 -1.0811  0.4403
 4787TIP3   OH235851   4.662   1.314   4.112  1.0639 -0.2110 -0.3730
 4787TIP3    H135852   4.650   1.266   4.031  2.4987  0.0486 -0.7771
 4787TIP3    H235853   4.611   1.394   4.101 -2.2153 -1.9612  0.7214
 4788TIP3   OH235854   4.691   0.680  12.778 -0.1115 -1.1369  0.2101
 4788TIP3    H135855   4.707   0.742  12.707 -1.9859 -0.5580  0.2357
 4788TIP3    H235856   4.759   0.699  12.843  0.2943 -0.1935 -0.4790
 4789TIP3   OH235857   5.102   6.390  16.439 -0.1315  0.0031  0.2111
 4789TIP3    H135858   5.110   6.432  16.353 -0.0218 -0.3386  0.0518
 4789TIP3    H235859   5.090   6.463  16.500  0.0527  0.2652 -0.0610
 4790TIP3   OH235860   0.257   4.523  16.234 -0.0966  0.4135  0.2620
 4790TIP3    H135861   0.313   4.532  16.157  0.9273  0.7831  1.0152
 4790TIP3    H235862   0.229   4.612  16.253  1.5502  0.6938  1.6401
 4791TIP3   OH235863   6.737   1.747  10.966  0.2403 -0.4405 -0.1710
 4791TIP3    H135864   6.698   1.806  10.901  0.5196  0.0966  0.1421
 4791TIP3    H235865   6.688   1.764  11.046 -0.2556 -1.2644 -0.2793
 4792TIP3   OH235866   4.233   2.228  14.896  0.3345 -0.2713 -0.0031
 4792TIP3    H135867   4.296   2.228  14.825 -0.9306  0.9099 -1.2068
 4792TIP3    H235868   4.161   2.173  14.865 -0.4641  0.6738  0.0904
 4793TIP3   OH235869   1.870   3.800   4.672 -0.0137  1.0552  0.1204
 4793TIP3    H135870   1.794   3.741   4.678 -0.3911  1.3878 -1.2226
 4793TIP3    H235871   1.838   3.884   4.705  0.4210  0.6526  1.6763
 4794TIP3   OH235872   1.782   5.390  16.373  0.8314  0.0780  0.0060
 4794TIP3    H135873   1.704   5.335  16.367  0.6958  0.3790 -1.5096
 4794TIP3    H235874   1.753   5.467  16.424  0.3855 -0.2048  0.1880
 4795TIP3   OH235875   4.597   5.394   3.562 -0.8026 -0.0764  0.2545
 4795TIP3    H135876   4.507   5.372   3.540 -0.9623  0.5816  0.2265
 4795TIP3    H235877   4.643   5.394   3.477 -0.8035 -0.2694  0.2526
 4796TIP3   OH235878   0.964   2.144  13.622  0.0602  0.4099 -0.1417
 4796TIP3    H135879   0.895   2.114  13.563 -0.8132 -0.0252  1.0455
 4796TIP3    H235880   1.018   2.067  13.637 -0.6865  0.0658  0.8954
 4797TIP3   OH235881   6.111   0.053  14.911 -0.2222 -0.2990  0.0159
 4797TIP3    H135882   6.034   0.103  14.938  0.6558  1.4509 -0.5285
 4797TIP3    H235883   6.091   0.024  14.822 -0.4270 -0.2219  0.0360
 4798TIP3   OH235884   2.600   3.693   4.910  0.0178 -0.6412  0.7808
 4798TIP3    H135885   2.673   3.638   4.882  0.9004  0.1677  1.4696
 4798TIP3    H235886   2.533   3.679   4.843  1.4353 -0.0557 -0.8233
 4799TIP3   OH235887   5.216   1.053  15.924  0.2640 -0.1438 -1.0073
 4799TIP3    H135888   5.143   1.068  15.984  0.5572  0.8898 -0.8870
 4799TIP3    H235889   5.182   0.989  15.861 -0.1610 -0.9816  0.0424
 4800TIP3   OH235890   6.715   0.822  11.914 -0.3194 -0.2267 -0.3107
 4800TIP3    H135891   6.705   0.754  11.980  2.3237  1.0301  1.5405
 4800TIP3    H235892   6.761   0.778  11.842  1.5589 -0.4175  0.9529
 4801TIP3   OH235893   3.767   0.611   3.849 -0.0164 -0.5202 -0.0940
 4801TIP3    H135894   3.738   0.594   3.939  1.2105 -0.3793  0.3538
 4801TIP3    H235895   3.790   0.703   3.849 -2.7775  0.2779 -1.3974
 4802TIP3   OH235896   6.374   2.810  15.954  0.4914  0.4899  0.0531
 4802TIP3    H135897   6.288   2.847  15.972  0.2665  1.0966 -1.9401
 4802TIP3    H235898   6.421   2.816  16.037 -0.8284  1.6906  0.7561
 4803TIP3   OH235899   6.616   6.330   4.099 -0.3548  0.2953 -0.2314
 4803TIP3    H135900   6.650   6.418   4.114  0.0444  0.7791 -3.3142
 4803TIP3    H235901   6.555   6.340   4.026  0.6070 -2.1139 -1.4883
 4804TIP3   OH235902   5.300   3.704  16.565 -0.2496 -0.0734  0.2189
 4804TIP3    H135903   5.275   3.627  16.615 -0.4166  0.2571  0.6498
 4804TIP3    H235904   5.387   3.728  16.599 -0.3553  0.1393  0.3436
 4805TIP3   OH235905   4.840   6.051  12.948  0.4750 -0.8518 -0.1190
 4805TIP3    H135906   4.857   6.051  12.853  1.9756 -0.9048  0.1144
 4805TIP3    H235907   4.754   6.012  12.957 -1.2588  2.2405 -1.6971
 4806TIP3   OH235908   2.664   0.787  12.076 -0.0500  0.5274 -0.1955
 4806TIP3    H135909   2.748   0.745  12.092 -0.8898 -1.5678 -0.9084
 4806TIP3    H235910   2.649   0.841  12.153  2.7879  2.5189 -0.8940
 4807TIP3   OH235911   4.200   5.983  14.973 -0.4166 -0.1010 -0.2157
 4807TIP3    H135912   4.110   6.007  14.995 -0.7119 -1.5466  0.2501
 4807TIP3    H235913   4.252   6.057  15.005 -1.4941  1.2258 -1.3875
 4808TIP3   OH235914   6.437   6.718   4.047 -0.0581  0.7297 -0.3761
 4808TIP3    H135915   6.487   6.791   4.010 -2.2767  1.4285 -2.2471
 4808TIP3    H235916   6.384   6.685   3.974 -2.5093  0.2196  1.4812
 4809TIP3   OH235917   3.395   4.773   5.974  0.0531 -0.2170  0.3247
 4809TIP3    H135918   3.490   4.771   5.965  0.3273  0.3579  2.4127
 4809TIP3    H235919   3.380   4.814   6.060 -2.0949  0.2862 -0.2186
 4810TIP3   OH235920   2.693   6.028  11.549  0.2853 -0.1617 -0.3691
 4810TIP3    H135921   2.730   6.116  11.542 -0.0333  0.0241  0.2006
 4810TIP3    H235922   2.714   6.000  11.638 -0.7781 -0.1226 -0.0943
 4811TIP3   OH235923   6.092   6.626   5.076 -0.1137 -0.3372 -0.4970
 4811TIP3    H135924   6.171   6.680   5.084 -0.5649  0.6194 -2.0063
 4811TIP3    H235925   6.033   6.660   5.143  0.5736 -0.7745  0.3552
 4812TIP3   OH235926   1.996   2.173  13.916 -0.1487 -0.0320  0.1314
 4812TIP3    H135927   1.952   2.233  13.976  2.4115  1.9966  0.1538
 4812TIP3    H235928   2.000   2.220  13.834  0.6996 -0.7624 -0.2604
 4813TIP3   OH235929   5.435   3.223   6.471 -0.2912  0.1390 -0.3769
 4813TIP3    H135930   5.415   3.168   6.396  0.0796  1.4220 -1.4483
 4813TIP3    H235931   5.475   3.302   6.434  1.7902 -0.0343  1.2830
 4814TIP3   OH235932   0.807   6.698   6.007  0.5123 -0.0462 -0.0430
 4814TIP3    H135933   0.730   6.679   6.061  1.8748 -1.4053  1.5210
 4814TIP3    H235934   0.862   6.752   6.063  0.5021  1.4151 -1.3675
 4815TIP3   OH235935   5.748   6.623   5.659  0.5038 -0.0903 -0.5115
 4815TIP3    H135936   5.690   6.592   5.728 -1.2404 -0.9213 -2.2404
 4815TIP3    H235937   5.715   6.711   5.638  0.8052  0.0253 -0.5027
 4816TIP3   OH235938   2.792   0.797  14.864 -0.2257 -1.1465  0.8800
 4816TIP3    H135939   2.756   0.773  14.949  0.8367 -1.5349  1.2349
 4816TIP3    H235940   2.848   0.724  14.839  2.5389  0.5275  1.6701
 4817TIP3   OH235941   3.757   0.553   2.030 -0.1985 -0.5982 -0.0608
 4817TIP3    H135942   3.832   0.532   2.086 -0.1128  0.4383  0.2298
 4817TIP3    H235943   3.713   0.625   2.075  0.6629  1.2093 -1.9897
 4818TIP3   OH235944   5.492   5.973  13.536 -0.2347  0.4553 -0.3221
 4818TIP3    H135945   5.453   5.929  13.461  1.2440 -1.2602 -0.1494
 4818TIP3    H235946   5.561   5.913  13.566  0.0420  1.6633  1.6318
 4819TIP3   OH235947   0.868   0.547   4.674 -0.6775  0.4662 -0.2226
 4819TIP3    H135948   0.846   0.485   4.743 -1.2935 -0.1941 -0.9976
 4819TIP3    H235949   0.783   0.580   4.643 -0.5568 -0.6857 -1.9557
 4820TIP3   OH235950   4.647   4.300  14.882 -0.0349  0.7085 -0.1542
 4820TIP3    H135951   4.645   4.233  14.813 -0.2481  0.9661 -0.4045
 4820TIP3    H235952   4.557   4.334  14.884 -0.9273 -1.4709  2.4429
 4821TIP3   OH235953   4.047   1.298  11.857  0.6401  0.6054 -0.5454
 4821TIP3    H135954   4.139   1.271  11.859  0.5937  0.4185 -0.8198
 4821TIP3    H235955   4.009   1.248  11.785 -0.0696 -0.5504  0.5934
 4822TIP3   OH235956   6.702   4.780   2.592 -0.0520  0.0683  0.0490
 4822TIP3    H135957   6.615   4.771   2.630 -0.6518 -0.4284 -1.3681
 4822TIP3    H235958   6.722   4.694   2.557  0.4565  0.4978 -0.7508
 4823TIP3   OH235959   5.941   1.274  12.988 -0.3915  0.2643 -0.1642
 4823TIP3    H135960   5.961   1.296  13.079 -0.3729  1.2960 -0.4078
 4823TIP3    H235961   5.947   1.178  12.985 -1.4143  0.1219  1.1635
 4824TIP3   OH235962   1.663   0.972   5.180 -0.1183 -0.1818 -0.3221
 4824TIP3    H135963   1.744   1.009   5.146  0.1692 -1.0558 -0.6147
 4824TIP3    H235964   1.650   0.892   5.130 -1.6357  0.3827 -0.8819
 4825TIP3   OH235965   1.391   5.683  13.529 -0.3466 -0.4758  0.9597
 4825TIP3    H135966   1.481   5.684  13.499 -0.4057  2.9790  0.4094
 4825TIP3    H235967   1.381   5.766  13.576 -3.6071  0.0271 -0.3313
 4826TIP3   OH235968   0.795   6.449   1.552 -0.2036 -0.6783 -0.3130
 4826TIP3    H135969   0.822   6.456   1.643  1.0693  0.6168 -0.7341
 4826TIP3    H235970   0.787   6.540   1.523 -0.9606 -1.0683 -1.3835
 4827TIP3   OH235971   0.585   2.858  15.498 -0.9588 -0.3435 -0.3212
 4827TIP3    H135972   0.576   2.869  15.403  0.0523  3.9327 -0.1124
 4827TIP3    H235973   0.505   2.895  15.534 -0.1115  0.7480  0.5079
 4828TIP3   OH235974   6.340   5.706  16.292  0.3463 -0.0664 -0.8847
 4828TIP3    H135975   6.368   5.794  16.315 -0.8199  0.1840 -0.3486
 4828TIP3    H235976   6.358   5.699  16.198 -0.8811  1.2822 -1.2621
 4829TIP3   OH235977   5.014   0.916  15.191 -0.9589  0.1209 -0.0083
 4829TIP3    H135978   5.068   0.987  15.157 -1.8237  0.2657 -1.1650
 4829TIP3    H235979   5.013   0.928  15.286  2.4564 -0.9148  0.3125
 4830TIP3   OH235980   3.996   3.544   3.943 -0.2233  0.0211  0.0585
 4830TIP3    H135981   3.957   3.583   4.022 -1.5655  0.6596 -0.8768
 4830TIP3    H235982   4.086   3.523   3.968  0.2128  2.6517  0.9993
 4831TIP3   OH235983   5.088   5.784  12.759  0.3696  0.0801 -0.1119
 4831TIP3    H135984   5.111   5.849  12.692  1.4817  0.8685  0.9942
 4831TIP3    H235985   5.101   5.700  12.715 -2.0415  0.5364 -1.8695
 4832TIP3   OH235986   1.785   2.695   2.207  0.0934  0.3344  0.0487
 4832TIP3    H135987   1.697   2.731   2.193  0.8103  2.0938 -0.1858
 4832TIP3    H235988   1.843   2.753   2.158  1.3899 -0.9459 -0.0160
 4833TIP3   OH235989   0.039   5.876  16.886  0.3682 -0.4959 -0.2214
 4833TIP3    H135990   0.118   5.852  16.934  0.0024 -0.4687  0.4077
 4833TIP3    H235991   0.062   5.957  16.840  0.3831  0.1183  0.8311
 4834TIP3   OH235992   4.458   0.461   4.050  0.3186  0.4760 -0.3438
 4834TIP3    H135993   4.500   0.515   4.116 -1.6164  2.5845 -0.7340
 4834TIP3    H235994   4.371   0.441   4.086  0.3312 -0.9055 -0.9847
 4835TIP3   OH235995   0.013   0.664  16.167 -0.5485 -0.0525  0.7078
 4835TIP3    H135996   0.034   0.725  16.096 -0.1810  0.6081  1.3819
 4835TIP3    H235997  -0.083   0.662  16.169 -0.6615 -2.1138 -1.5390
 4836TIP3   OH235998   1.218   4.377   3.359  0.2349  0.2486  0.4014
 4836TIP3    H135999   1.218   4.462   3.315  2.8897 -0.6992 -1.7034
 4836TIP3    H236000   1.229   4.398   3.452 -1.6284  2.2016  0.2741
 4837TIP3   OH236001   3.742   5.805   1.226  0.4399  0.2536 -0.2604
 4837TIP3    H136002   3.720   5.881   1.172 -0.6020  0.8015  0.8986
 4837TIP3    H236003   3.678   5.806   1.296  1.5652 -0.6235  0.8237
 4838TIP3   OH236004   5.858   3.851   4.247 -0.1683  0.5516  0.4559
 4838TIP3    H136005   5.863   3.759   4.222 -1.0643  0.5716  0.1906
 4838TIP3    H236006   5.800   3.853   4.323  0.5923  0.7925  1.0451
 4839TIP3   OH236007   6.347   6.401   0.441  0.6786 -0.4500  0.0841
 4839TIP3    H136008   6.393   6.465   0.387 -0.8158  0.5082 -0.1113
 4839TIP3    H236009   6.334   6.446   0.525 -0.2281 -0.5457  0.0015
 4840TIP3   OH236010   3.363   6.068   1.925 -0.0498 -0.7385  0.1135
 4840TIP3    H136011   3.407   6.016   1.858  1.9100  3.3783 -2.1737
 4840TIP3    H236012   3.283   6.100   1.882 -0.5562 -0.7716  0.9924
 4841TIP3   OH236013   2.086   6.752   0.876 -0.0398  0.0415  0.4702
 4841TIP3    H136014   2.032   6.763   0.798  2.4228  2.5257 -1.0492
 4841TIP3    H236015   2.037   6.798   0.945  0.3659  3.0188 -1.0731
 4842TIP3   OH236016   3.615   4.855  10.663 -0.0366 -0.4128  0.6438
 4842TIP3    H136017   3.557   4.816  10.728 -1.3612  1.1840  0.4914
 4842TIP3    H236018   3.580   4.943  10.650  3.2387  1.1968  1.5656
 4843TIP3   OH236019   3.913   2.901   3.541 -0.9817 -0.4964  0.2183
 4843TIP3    H136020   3.942   2.823   3.588 -0.9132  0.0672  1.1456
 4843TIP3    H236021   3.835   2.930   3.589 -0.2304  0.7634  0.7467
 4844TIP3   OH236022   1.450   4.287   3.255  0.4572 -0.5029  0.2828
 4844TIP3    H136023   1.434   4.194   3.245 -0.6005 -0.3191  0.1312
 4844TIP3    H236024   1.371   4.320   3.299 -0.5320  0.8060 -2.3116
 4845TIP3   OH236025   1.508   2.189   2.155  0.7178  0.1048  0.1332
 4845TIP3    H136026   1.545   2.214   2.239 -0.5811 -0.8720  1.0413
 4845TIP3    H236027   1.418   2.223   2.157  0.2944 -0.9480 -0.3467
 4846TIP3   OH236028   6.283   4.587  15.634 -0.2525 -0.0334 -0.2224
 4846TIP3    H136029   6.238   4.558  15.713 -1.5666  0.5369 -0.7352
 4846TIP3    H236030   6.304   4.506  15.587 -1.9112 -0.2897 -0.5891
 4847TIP3   OH236031   2.898   0.345   0.080  0.4312 -0.1059  0.1104
 4847TIP3    H136032   2.875   0.301  -0.002 -1.8450  0.6980  0.2660
 4847TIP3    H236033   2.844   0.303   0.146  1.0038  0.3971  0.9219
 4848TIP3   OH236034   6.760   0.210   2.285 -0.0357  0.2953  0.3301
 4848TIP3    H136035   6.739   0.204   2.378  0.4104  0.3478  0.4345
 4848TIP3    H236036   6.789   0.122   2.261  1.3613  0.6604  0.6131
 4849TIP3   OH236037   2.727   1.602   1.660  0.3481 -0.6041  0.0447
 4849TIP3    H136038   2.822   1.614   1.651  0.3009  2.5255  2.1983
 4849TIP3    H236039   2.717   1.511   1.686  2.7096 -1.1566 -0.7253
 4850TIP3   OH236040   2.528   1.670  13.974  0.4226  0.0683  0.0309
 4850TIP3    H136041   2.537   1.642  13.883  1.0613  1.2555 -0.2845
 4850TIP3    H236042   2.615   1.658  14.012 -0.0997 -1.4935  0.8269
 4851TIP3   OH236043   3.083   4.947  16.042 -0.1818  0.0996  0.0114
 4851TIP3    H136044   3.007   4.997  16.070  1.2704  1.8564  1.0455
 4851TIP3    H236045   3.076   4.864  16.088 -2.2667 -0.4334 -1.1677
 4852TIP3   OH236046   3.525   6.585  13.490  0.3232 -0.3341  0.6227
 4852TIP3    H136047   3.525   6.497  13.454 -0.5398 -0.0182 -0.1885
 4852TIP3    H236048   3.481   6.638  13.424 -0.1008  0.5116  1.5593
 4853TIP3   OH236049   6.660   4.328   2.056 -0.1332 -0.3463  0.3112
 4853TIP3    H136050   6.679   4.268   1.984 -2.1702  0.2577 -0.8228
 4853TIP3    H236051   6.589   4.285   2.105 -1.8077  1.1551 -0.6721
 4854TIP3   OH236052   3.364   6.225   2.657 -0.1130 -0.4910  0.4328
 4854TIP3    H136053   3.401   6.303   2.699 -2.1223 -0.2405  1.8827
 4854TIP3    H236054   3.429   6.157   2.671  1.2630  0.6618 -0.0334
 4855TIP3   OH236055   3.926   5.984   0.327  0.1758  0.4927  0.1251
 4855TIP3    H136056   3.989   5.924   0.289 -2.0349 -1.7292 -0.2764
 4855TIP3    H236057   3.972   6.068   0.331  3.5158 -1.2208  1.0037
 4856TIP3   OH236058   2.147   5.891  11.847 -0.1000  0.3866  0.1442
 4856TIP3    H136059   2.234   5.910  11.883  0.8511  1.7444 -2.5493
 4856TIP3    H236060   2.087   5.940  11.904  1.2288  1.8958  0.3379
 4857TIP3   OH236061   3.865   6.048  14.601 -0.1297 -0.1767  0.2328
 4857TIP3    H136062   3.885   5.957  14.579 -1.2411 -0.1439 -0.9857
 4857TIP3    H236063   3.949   6.085  14.628  0.5417 -1.2805 -0.2979
 4858TIP3   OH236064   6.247   3.713  16.605 -0.4766 -0.1598 -0.2602
 4858TIP3    H136065   6.159   3.747  16.622 -0.7053 -1.3353  1.1065
 4858TIP3    H236066   6.305   3.782  16.638 -0.8834  0.3055 -0.4951
 4859TIP3   OH236067   6.619   1.155   6.254 -0.3249 -0.2290 -0.0047
 4859TIP3    H136068   6.577   1.230   6.211 -1.9697 -0.5392  0.9747
 4859TIP3    H236069   6.580   1.153   6.341 -0.1544 -2.1065  0.0626
 4860TIP3   OH236070   4.073   4.439   2.588  0.2527  0.2390  0.0757
 4860TIP3    H136071   4.045   4.463   2.499 -1.6678 -1.5668  0.1070
 4860TIP3    H236072   4.146   4.498   2.607  1.0557  0.3616 -2.8894
 4861TIP3   OH236073   3.836   3.382  12.536 -0.6829  0.2837  0.0748
 4861TIP3    H136074   3.881   3.462  12.510  0.4702  0.3259  2.0194
 4861TIP3    H236075   3.860   3.318  12.469 -1.8575  1.5928 -1.6669
 4862TIP3   OH236076   0.473   6.325   3.730 -0.2521 -0.2954  0.5499
 4862TIP3    H136077   0.537   6.323   3.659 -1.1176  0.0167 -0.2542
 4862TIP3    H236078   0.459   6.418   3.747 -1.7575 -0.2976 -0.4727
 4863TIP3   OH236079   2.023   3.719  17.179  0.0830  0.3724 -0.3189
 4863TIP3    H136080   2.068   3.646  17.222  0.1252  1.5792  1.8089
 4863TIP3    H236081   2.043   3.708  17.086 -0.5228 -2.7257 -0.1819
 4864TIP3   OH236082   0.570   1.308  12.702 -0.3954  0.0321 -0.9973
 4864TIP3    H136083   0.626   1.385  12.695  1.2064 -0.8735  0.8154
 4864TIP3    H236084   0.511   1.327  12.775 -0.4940 -0.1689 -1.0215
 4865TIP3   OH236085   1.992   5.600   1.311  0.0756  0.5115  0.4311
 4865TIP3    H136086   1.957   5.575   1.226 -0.1991  2.4370 -0.0707
 4865TIP3    H236087   2.045   5.525   1.338  0.5216  0.0195 -1.6294
 4866TIP3   OH236088   6.518   3.762  14.511  0.2550 -0.8908  0.0513
 4866TIP3    H136089   6.534   3.852  14.541  1.1909 -0.4951 -1.5233
 4866TIP3    H236090   6.465   3.723  14.580 -1.3219  1.2936  0.1811
 4867TIP3   OH236091   0.093   2.880   5.229  0.2716  0.1140 -0.2276
 4867TIP3    H136092   0.120   2.939   5.158 -1.2274  0.5587 -0.4791
 4867TIP3    H236093   0.174   2.857   5.273  1.2434 -0.0712 -2.0006
 4868TIP3   OH236094   6.327   3.433  12.752 -0.2685  0.3507  0.4886
 4868TIP3    H136095   6.399   3.494  12.769 -0.2283  0.4108  0.1084
 4868TIP3    H236096   6.270   3.479  12.691 -0.4085  0.1373  0.4562
 4869TIP3   OH236097   1.535   6.181   0.525  0.1702 -0.2357 -0.0052
 4869TIP3    H136098   1.625   6.205   0.544 -0.0338  1.1632 -0.6629
 4869TIP3    H236099   1.525   6.198   0.431 -0.8606 -0.0295  0.1279
 4870TIP3   OH236100   5.630   5.063  14.601 -0.6699  1.2797 -0.2633
 4870TIP3    H136101   5.719   5.095  14.587  0.0224 -0.5847 -0.3369
 4870TIP3    H236102   5.628   5.036  14.693  0.0566 -2.0278 -1.0773
 4871TIP3   OH236103   6.023   1.377  12.748  0.5011 -0.4041 -0.6612
 4871TIP3    H136104   5.945   1.369  12.693 -0.1867  1.4336 -0.0219
 4871TIP3    H236105   5.993   1.351  12.836  0.5681  0.3960 -0.3946
 4872TIP3   OH236106   5.175   2.191  13.505 -0.2533 -0.5261 -0.1689
 4872TIP3    H136107   5.178   2.271  13.453  0.7704  1.2109  2.3756
 4872TIP3    H236108   5.258   2.147  13.485  0.1114  0.1021 -0.0792
 4873TIP3   OH236109   3.604   1.671  13.278 -0.0220 -0.5570 -0.3346
 4873TIP3    H136110   3.519   1.710  13.300  1.0979  2.6519 -1.1637
 4873TIP3    H236111   3.654   1.676  13.359 -0.5461 -2.5492  0.1842
 4874TIP3   OH236112   2.678   6.820  11.647 -0.1300 -0.0024  0.4449
 4874TIP3    H136113   2.763   6.862  11.656 -0.3655  0.2968  1.5080
 4874TIP3    H236114   2.627   6.879  11.592 -0.0500  0.4689  0.8728
 4875TIP3   OH236115   6.368   3.466  16.988  0.1104  0.5896  0.6915
 4875TIP3    H136116   6.278   3.497  16.993  0.0563  0.4925  0.3620
 4875TIP3    H236117   6.384   3.456  16.894 -0.0153 -0.7905  0.8021
 4876TIP3   OH236118   1.144   0.842   2.833  0.1923 -0.2023  0.4055
 4876TIP3    H136119   1.153   0.871   2.743 -1.1424  0.2692  0.4103
 4876TIP3    H236120   1.188   0.910   2.884 -0.0832  0.1463  0.1854
 4877TIP3   OH236121   4.330   4.699  12.386 -0.2970  0.2576 -0.0643
 4877TIP3    H136122   4.264   4.666  12.324 -0.2193 -0.5274  0.2645
 4877TIP3    H236123   4.295   4.678  12.472  0.1733  0.2509  0.1281
 4878TIP3   OH236124   4.803   3.698   5.064  0.8018  0.2446  1.2174
 4878TIP3    H136125   4.753   3.667   5.140  1.0064 -0.5236  1.0415
 4878TIP3    H236126   4.771   3.646   4.991  1.8455 -0.2614  1.0989
 4879TIP3   OH236127   5.907   3.950   1.567  0.6225 -0.2451  0.6378
 4879TIP3    H136128   5.882   3.879   1.508  2.6564 -2.4104  2.1514
 4879TIP3    H236129   5.863   4.027   1.533 -2.0983 -2.2834 -0.8874
 4880TIP3   OH236130   2.946   4.588   1.730  0.0173 -0.2720 -0.5237
 4880TIP3    H136131   2.891   4.616   1.803 -0.3759  0.3113 -1.0336
 4880TIP3    H236132   2.996   4.514   1.765 -1.1415 -0.8732 -0.0730
 4881TIP3   OH236133   1.911   5.582   5.098  0.6048 -0.3411 -0.3345
 4881TIP3    H136134   1.890   5.545   5.012  1.5022 -0.9101 -0.3202
 4881TIP3    H236135   1.983   5.642   5.081  1.2487 -0.9744  0.1232
 4882TIP3   OH236136   1.449   5.727  11.390  0.3213  0.4900 -0.2690
 4882TIP3    H136137   1.432   5.808  11.342 -0.9961  1.9349  2.4347
 4882TIP3    H236138   1.530   5.745  11.438 -0.3010  0.4687  0.8074
 4883TIP3   OH236139   3.953   2.912   1.245  0.2617  0.0526 -0.0691
 4883TIP3    H136140   3.906   2.889   1.325 -0.6618 -0.5964 -0.7834
 4883TIP3    H236141   4.012   2.839   1.229 -0.5333 -0.4643 -0.7103
 4884TIP3   OH236142   0.146   2.634  13.177 -0.4414  0.5934 -0.2163
 4884TIP3    H136143   0.210   2.566  13.197 -1.6638 -0.2260  1.1242
 4884TIP3    H236144   0.149   2.642  13.082  1.1805  0.1284 -0.2303
 4885TIP3   OH236145   4.752   1.995  15.053  0.3621  0.0428 -0.3336
 4885TIP3    H136146   4.763   2.072  14.998 -1.7212  0.8675  0.2824
 4885TIP3    H236147   4.687   1.942  15.008 -0.1693 -0.0571  0.5221
 4886TIP3   OH236148   5.101   1.488  15.556 -0.2207 -0.7745  0.4990
 4886TIP3    H136149   5.015   1.446  15.561 -0.2110 -0.8348  0.1900
 4886TIP3    H236150   5.159   1.432  15.607 -0.8186  0.4570  2.6766
 4887TIP3   OH236151   6.319   0.492  13.957  0.3838 -0.4779 -0.2436
 4887TIP3    H136152   6.389   0.549  13.926  0.6919 -1.7826 -2.0874
 4887TIP3    H236153   6.250   0.553  13.987  2.0537  0.8244  1.1900
 4888TIP3   OH236154   2.965   1.961   4.060  0.2642 -0.7245 -0.0387
 4888TIP3    H136155   3.009   1.938   3.978 -0.8918  1.0809 -1.2137
 4888TIP3    H236156   3.017   2.033   4.096 -1.6956  1.5959 -1.5601
 4889TIP3   OH236157   2.132   5.760   0.291  0.2622 -0.1520  0.3171
 4889TIP3    H136158   2.039   5.771   0.311  0.8205  1.7256  2.2849
 4889TIP3    H236159   2.136   5.756   0.196 -1.7366  1.0309  0.1240
 4890TIP3   OH236160   5.346   0.454  13.470 -0.0172 -0.1517 -0.1873
 4890TIP3    H136161   5.398   0.460  13.550  0.3285  0.7812 -0.4673
 4890TIP3    H236162   5.404   0.409  13.408  0.2253  0.3437 -0.3191
 4891TIP3   OH236163   2.019   3.283   4.543  0.8602 -0.3533  0.7002
 4891TIP3    H136164   2.056   3.218   4.603 -1.1743 -1.4346  0.8560
 4891TIP3    H236165   1.977   3.231   4.474 -0.4922  0.7895  0.6254
 4892TIP3   OH236166   6.816   4.758   3.570  0.5787 -0.2175 -0.2626
 4892TIP3    H136167   6.787   4.797   3.653 -1.6353 -1.4606 -0.3742
 4892TIP3    H236168   6.853   4.831   3.521 -2.0425  1.5072  0.0966
 4893TIP3   OH236169   3.616   5.562  11.089  0.2100  0.2412 -0.2766
 4893TIP3    H136170   3.608   5.594  10.999  0.2807 -0.5124 -0.5655
 4893TIP3    H236171   3.629   5.640  11.142 -1.0194  0.8207 -0.7772
 4894TIP3   OH236172   0.896   2.882   1.032  0.2381 -0.4435  0.3822
 4894TIP3    H136173   0.885   2.790   1.007 -1.3432  0.2317 -1.7440
 4894TIP3    H236174   0.807   2.913   1.051  0.2439  1.4058 -2.0950
 4895TIP3   OH236175   2.616   5.411   4.605 -0.1954 -0.1920 -0.0225
 4895TIP3    H136176   2.547   5.389   4.542  0.9076 -2.0036 -0.6728
 4895TIP3    H236177   2.632   5.504   4.591 -0.8307 -0.2845 -1.5817
 4896TIP3   OH236178   4.347   4.885  12.922  0.4098 -0.1706 -0.1215
 4896TIP3    H136179   4.360   4.978  12.944  0.1112 -0.1146 -0.1733
 4896TIP3    H236180   4.310   4.887  12.834 -0.9441 -0.2660  0.4139
 4897TIP3   OH236181   0.562   1.881  16.645  0.6388  0.5061 -0.1503
 4897TIP3    H136182   0.549   1.848  16.734 -0.8176  1.3446 -0.0093
 4897TIP3    H236183   0.616   1.960  16.656  0.5288  0.5628 -0.0043
 4898TIP3   OH236184   6.113   0.102  14.396 -0.5956 -0.2188  0.2161
 4898TIP3    H136185   6.148   0.187  14.421 -0.1208 -0.1029 -0.8116
 4898TIP3    H236186   6.023   0.119  14.369  0.5106  0.6437 -3.4766
 4899TIP3   OH236187   5.883   4.451  17.118 -0.0824  0.6876 -0.3775
 4899TIP3    H136188   5.795   4.473  17.151  0.5899  0.5337  1.6717
 4899TIP3    H236189   5.927   4.536  17.109  0.0455  0.6792  0.1187
 4900TIP3   OH236190   3.587   0.963  14.631  0.0476  0.0176 -0.4562
 4900TIP3    H136191   3.667   0.987  14.678 -0.4795  1.0465 -0.0329
 4900TIP3    H236192   3.613   0.961  14.539  0.3259  1.5608 -0.4511
 4901TIP3   OH236193   4.656   2.045  10.985 -0.3284 -0.1560 -0.9242
 4901TIP3    H136194   4.634   2.068  10.894  0.9075  0.1622 -1.1590
 4901TIP3    H236195   4.748   2.020  10.982 -0.2929 -0.2197  0.2401
 4902TIP3   OH236196   5.678   4.603  12.601  0.4704 -0.1310 -0.2013
 4902TIP3    H136197   5.765   4.611  12.561  0.1606  1.4972 -0.6385
 4902TIP3    H236198   5.675   4.674  12.666 -0.7500  0.2332 -0.6333
 4903TIP3   OH236199   3.028   4.802  11.456 -0.5152 -0.5012  0.0840
 4903TIP3    H136200   2.977   4.832  11.532 -1.4015  1.2307 -1.1096
 4903TIP3    H236201   2.993   4.854  11.383  2.3027  0.0451 -0.9895
 4904TIP3   OH236202   1.135   4.451   1.403 -0.1735 -0.2975  0.0197
 4904TIP3    H136203   1.112   4.505   1.327  0.6740 -1.3451 -1.0158
 4904TIP3    H236204   1.133   4.512   1.477  0.0587  0.9882 -0.9948
 4905TIP3   OH236205   0.720   3.188   2.903  0.2213 -0.3140  0.2112
 4905TIP3    H136206   0.652   3.255   2.901  0.6978  0.1639 -1.0822
 4905TIP3    H236207   0.745   3.177   2.811  0.4695 -1.9496  0.4440
 4906TIP3   OH236208   1.432   3.628  14.200 -0.3955  0.3453  0.0783
 4906TIP3    H136209   1.466   3.568  14.134 -1.4493  1.4208 -1.5312
 4906TIP3    H236210   1.352   3.586  14.232 -0.2831  0.1618  0.1180
 4907TIP3   OH236211   0.587   1.117   6.486  0.8821 -0.0033 -0.1747
 4907TIP3    H136212   0.517   1.183   6.478 -0.7328 -1.2228  2.4444
 4907TIP3    H236213   0.623   1.131   6.573  0.9105 -2.1650  0.2134
 4908TIP3   OH236214   1.267   1.693  14.424 -0.3079  0.0367  0.1623
 4908TIP3    H136215   1.244   1.613  14.377 -0.5972 -0.0246  0.4014
 4908TIP3    H236216   1.215   1.761  14.381 -0.0323  0.1034 -0.0664
 4909TIP3   OH236217   5.741   5.336   0.858  0.2676 -0.1736  0.2353
 4909TIP3    H136218   5.650   5.356   0.877 -0.2076 -2.7135  0.9368
 4909TIP3    H236219   5.738   5.272   0.787  1.3541 -1.9038  1.6643
 4910TIP3   OH236220   6.446   5.670  10.465 -0.3014  0.3976  0.3004
 4910TIP3    H136221   6.355   5.692  10.444 -0.1613 -0.2281 -1.1548
 4910TIP3    H236222   6.496   5.747  10.440 -0.1372 -0.3426 -1.8953
 4911TIP3   OH236223   5.047   3.768  16.342  0.1991 -0.0393 -0.0863
 4911TIP3    H136224   5.081   3.767  16.431 -1.5006 -0.2389  0.6110
 4911TIP3    H236225   4.982   3.838  16.342 -0.2164 -0.4053 -0.9901
 4912TIP3   OH236226   6.221   1.707   1.954  0.4001 -0.3512 -0.6965
 4912TIP3    H136227   6.236   1.666   2.039  0.0566 -0.0698 -0.4961
 4912TIP3    H236228   6.267   1.791   1.961 -1.5414  0.7036  0.0732
 4913TIP3   OH236229   1.529   6.021  11.615 -0.3596 -0.0537 -0.2045
 4913TIP3    H136230   1.588   5.984  11.681 -2.1855 -1.0664  0.9634
 4913TIP3    H236231   1.494   5.945  11.569 -1.4047  0.4516 -0.2760
 4914TIP3   OH236232   4.596   1.559   4.001 -0.3601 -0.4635 -0.8776
 4914TIP3    H136233   4.584   1.654   4.006  1.3847 -0.2770  0.6959
 4914TIP3    H236234   4.624   1.543   3.910  0.7825  0.7411 -0.7606
 4915TIP3   OH236235   0.327   3.368  13.455 -0.4670  0.3859  0.0957
 4915TIP3    H136236   0.299   3.278  13.474 -0.0771  0.1123 -0.5702
 4915TIP3    H236237   0.296   3.384  13.366  0.4675  0.4863 -0.2201
 4916TIP3   OH236238   1.789   0.154   0.537 -0.3095 -0.3914 -0.2156
 4916TIP3    H136239   1.795   0.203   0.455  0.8708  0.3833  0.3059
 4916TIP3    H236240   1.855   0.193   0.593 -0.9215 -1.0858  1.0290
 4917TIP3   OH236241   4.405   5.366   5.801 -0.2328  0.1897  0.2462
 4917TIP3    H136242   4.363   5.310   5.866 -0.2862 -1.2888 -1.0051
 4917TIP3    H236243   4.476   5.314   5.765  0.1686  1.1822 -0.4682
 4918TIP3   OH236244   1.172   6.073  14.061 -0.7250 -0.5285 -0.0004
 4918TIP3    H136245   1.259   6.078  14.102  0.4458  1.3701 -2.4026
 4918TIP3    H236246   1.132   5.995  14.099  1.3686 -0.5814  2.4067
 4919TIP3   OH236247   5.683   1.268   6.021 -0.0127  0.1561  0.7593
 4919TIP3    H136248   5.705   1.257   6.113 -1.3651 -0.1529  1.0654
 4919TIP3    H236249   5.602   1.219   6.010  0.0061  0.3888 -0.5436
 4920TIP3   OH236250   3.457   1.371   1.591 -0.1016  0.3939 -0.4189
 4920TIP3    H136251   3.464   1.440   1.657  2.4829 -1.3793  1.3396
 4920TIP3    H236252   3.375   1.326   1.611 -0.5663  1.3940 -0.0105
 4921TIP3   OH236253   4.569   0.255  16.804 -0.2951  0.0721 -0.4477
 4921TIP3    H136254   4.508   0.282  16.736 -0.2933  0.7122 -0.2016
 4921TIP3    H236255   4.643   0.218  16.756 -0.8317 -0.6285 -0.7463
 4922TIP3   OH236256   3.934   6.337   1.713  0.0237  0.2339 -0.3794
 4922TIP3    H136257   3.968   6.280   1.644 -1.0155  0.3405 -0.9899
 4922TIP3    H236258   3.899   6.413   1.667  1.1983  1.3130  0.4068
 4923TIP3   OH236259   2.786   0.732   0.355  0.7202 -0.3284  0.0749
 4923TIP3    H136260   2.850   0.700   0.292  1.4885 -1.8778  1.5526
 4923TIP3    H236261   2.832   0.798   0.405  0.7693 -0.5499  0.3243
 4924TIP3   OH236262   5.100   0.108  14.791  0.1989  0.0241 -0.4237
 4924TIP3    H136263   5.133   0.029  14.749 -0.3194 -0.6665  0.4562
 4924TIP3    H236264   5.119   0.097  14.884 -1.3147  0.1996 -0.0697
 4925TIP3   OH236265   6.575   2.621  16.695  0.4727 -0.0456  0.7118
 4925TIP3    H136266   6.659   2.665  16.705  0.9571 -0.8719  0.3483
 4925TIP3    H236267   6.589   2.532  16.727 -0.3432 -0.1163  0.9168
 4926TIP3   OH236268   4.713   6.648  16.703 -0.4783 -0.0836 -0.2002
 4926TIP3    H136269   4.717   6.742  16.682 -2.0607  0.5601  2.0701
 4926TIP3    H236270   4.736   6.644  16.796 -0.5796 -1.9497 -0.2346
 4927TIP3   OH236271   3.327   1.247  12.017 -0.4573 -0.3181  0.0409
 4927TIP3    H136272   3.328   1.187  12.091  0.0365  0.2779  0.5260
 4927TIP3    H236273   3.262   1.210  11.957 -0.0293 -1.4412  0.2369
 4928TIP3   OH236274   6.749   4.542  11.447 -0.0818  0.3822 -0.2352
 4928TIP3    H136275   6.666   4.506  11.478  0.2646 -0.6746 -0.4862
 4928TIP3    H236276   6.815   4.484  11.484  0.5809  1.4666  0.3101
 4929TIP3   OH236277   4.254   1.228  14.438 -0.4392  0.1086  0.1639
 4929TIP3    H136278   4.280   1.317  14.464  0.0375  0.1088 -0.2907
 4929TIP3    H236279   4.178   1.241  14.382 -0.5628  0.2075  0.3528
 4930TIP3   OH236280   0.773   1.809  10.977  0.5787 -0.4158 -0.0303
 4930TIP3    H136281   0.688   1.850  10.991 -0.1513 -1.7200 -0.5490
 4930TIP3    H236282   0.824   1.875  10.929 -0.6000 -0.1252 -0.9226
 4931TIP3   OH236283   0.829   4.239  13.625 -0.2945 -0.1508  0.8846
 4931TIP3    H136284   0.854   4.147  13.631  0.7341  0.0908  0.4742
 4931TIP3    H236285   0.806   4.263  13.714 -1.1968 -0.9687  0.8893
 4932TIP3   OH236286   6.610   1.675  12.327 -0.3428 -0.3213 -0.3643
 4932TIP3    H136287   6.566   1.738  12.270 -0.3786  0.7934  0.8545
 4932TIP3    H236288   6.642   1.727  12.400 -0.2940 -1.7080  0.6355
 4933TIP3   OH236289   4.254   2.788   4.641  0.1426 -0.9541  0.1343
 4933TIP3    H136290   4.335   2.788   4.694 -0.3488 -1.9251  0.9216
 4933TIP3    H236291   4.244   2.697   4.614 -0.0440 -0.6054 -1.0016
 4934TIP3   OH236292   2.900   6.586  16.347  0.4954 -0.2626  0.3561
 4934TIP3    H136293   2.894   6.652  16.278 -0.4342 -0.7258 -0.0131
 4934TIP3    H236294   2.945   6.630  16.419  0.1886  0.6656 -0.0173
 4935TIP3   OH236295   5.178   6.307  15.830 -0.0344 -0.1469  0.0136
 4935TIP3    H136296   5.216   6.288  15.744  0.3489  3.0151 -0.6245
 4935TIP3    H236297   5.245   6.357  15.876 -1.3542  0.8026  0.9890
 4936TIP3   OH236298   3.403   5.671   1.470  0.2067 -0.0394  0.0602
 4936TIP3    H136299   3.449   5.643   1.550  0.6094 -0.7712 -0.4202
 4936TIP3    H236300   3.310   5.656   1.490  0.3318 -0.5758  0.2541
 4937TIP3   OH236301   5.548   2.895  12.224  0.2140 -0.4709 -0.4578
 4937TIP3    H136302   5.594   2.837  12.163 -0.6101  0.6818 -2.2627
 4937TIP3    H236303   5.524   2.971  12.172 -0.5849  0.5720  1.3213
 4938TIP3   OH236304   5.366   3.768   0.464 -0.4682 -0.2374 -0.3823
 4938TIP3    H136305   5.374   3.836   0.397  1.2783 -0.7344 -0.7244
 4938TIP3    H236306   5.440   3.709   0.447 -1.7781 -2.0981  0.0418
 4939TIP3   OH236307   1.232   0.847  16.746  0.1099  0.0091  0.3911
 4939TIP3    H136308   1.242   0.916  16.681 -1.1785  0.1726  0.3469
 4939TIP3    H236309   1.182   0.779  16.702 -0.9601  0.2125  1.2638
 4940TIP3   OH236310   6.067   0.916   3.706 -0.0363 -0.4736  0.4583
 4940TIP3    H136311   6.040   0.902   3.615 -1.1278  0.5289  0.6026
 4940TIP3    H236312   6.028   1.000   3.729 -2.8894 -2.3026  2.9940
 4941TIP3   OH236313   0.515   2.223  13.467 -0.2784 -0.1206  0.2419
 4941TIP3    H136314   0.583   2.284  13.495  0.2286 -0.6588  0.2176
 4941TIP3    H236315   0.450   2.277  13.424  1.0735  0.1935 -1.4963
 4942TIP3   OH236316   1.951   3.142  14.447  0.4576  0.2260 -0.1565
 4942TIP3    H136317   1.872   3.136  14.501  1.3813  1.5491  1.4259
 4942TIP3    H236318   2.020   3.104  14.500  0.6382 -2.9282 -2.3588
 4943TIP3   OH236319   4.245   0.647  13.062  0.1995 -0.6195 -0.6893
 4943TIP3    H136320   4.237   0.723  13.120 -0.5374 -2.5712  1.9601
 4943TIP3    H236321   4.223   0.681  12.975  1.2402  2.4356  0.1171
 4944TIP3   OH236322   2.675   5.378  13.984 -0.0928 -0.2852 -0.0954
 4944TIP3    H136323   2.669   5.294  14.030  0.3217  0.0843  0.6554
 4944TIP3    H236324   2.745   5.365  13.920  0.8323 -0.1577  0.8506
 4945TIP3   OH236325   0.512   5.465  11.910 -0.4526  0.3724  0.3614
 4945TIP3    H136326   0.535   5.477  12.002  2.1235  2.6887 -0.4366
 4945TIP3    H236327   0.425   5.505  11.902  0.4415  2.6974  1.3552
 4946TIP3   OH236328   3.918   1.766   3.208 -0.2222  0.3259  0.1000
 4946TIP3    H136329   3.946   1.811   3.128 -0.1886  1.4743  0.7343
 4946TIP3    H236330   3.828   1.795   3.222 -0.7306 -0.9807 -0.2660
 4947TIP3   OH236331   3.720   4.527  16.407  0.1941 -0.0656  0.6147
 4947TIP3    H136332   3.815   4.537  16.412  0.8572 -2.7409 -2.8132
 4947TIP3    H236333   3.696   4.481  16.487  1.8983 -0.0116  1.1966
 4948TIP3   OH236334   4.724   4.337   5.965 -0.5467 -0.1520 -0.7187
 4948TIP3    H136335   4.630   4.324   5.976 -1.0524  2.6531 -0.8529
 4948TIP3    H236336   4.753   4.376   6.047  0.3680 -0.3007 -0.9497
 4949TIP3   OH236337   3.573   6.011   2.718 -0.3493  0.8643 -0.6539
 4949TIP3    H136338   3.574   5.934   2.662 -0.7712  0.0028  0.4966
 4949TIP3    H236339   3.615   6.080   2.665  0.7623 -0.3391 -1.3915
 4950TIP3   OH236340   6.260   1.265   4.109  0.0436 -0.1691  0.5285
 4950TIP3    H136341   6.208   1.187   4.129  0.2425 -0.5636 -0.4021
 4950TIP3    H236342   6.330   1.265   4.174  0.3185 -1.0470  0.2548
 4951TIP3   OH236343   0.917   2.251  11.798 -0.0005  0.1920  0.2915
 4951TIP3    H136344   1.008   2.234  11.773  0.6356  1.3797  1.5946
 4951TIP3    H236345   0.867   2.182  11.756  1.7347 -1.6318  1.0337
 4952TIP3   OH236346   2.430   5.402  10.988 -0.2346  0.1218  0.1388
 4952TIP3    H136347   2.491   5.339  11.026 -0.1114  1.2377  1.8680
 4952TIP3    H236348   2.479   5.441  10.915  0.6369  0.0675  0.6835
 4953TIP3   OH236349   6.726   0.901  15.498 -0.4004 -0.3896  0.0735
 4953TIP3    H136350   6.691   0.844  15.566  1.6590 -1.3135  0.4524
 4953TIP3    H236351   6.778   0.842  15.442  2.1865  1.0868  0.7299
 4954TIP3   OH236352   0.704   4.995   4.671 -0.2965 -0.1345  0.3078
 4954TIP3    H136353   0.754   5.029   4.597 -0.0125  1.3647  1.1476
 4954TIP3    H236354   0.615   5.027   4.656 -0.4946 -0.7784  0.0564
 4955TIP3   OH236355   1.619   1.651  16.675 -0.0202 -0.4531 -0.0759
 4955TIP3    H136356   1.549   1.586  16.670 -0.0704 -0.3629 -0.5820
 4955TIP3    H236357   1.696   1.607  16.639 -0.1154 -0.1567 -0.6573
 4956TIP3   OH236358   4.794   0.365  15.173  0.5306 -0.7179  0.5189
 4956TIP3    H136359   4.821   0.306  15.243  1.0429 -0.4408  0.5641
 4956TIP3    H236360   4.848   0.340  15.098  0.8313 -0.2432  0.5701
 4957TIP3   OH236361   6.312   1.293   5.147 -0.2283  0.4016 -0.1352
 4957TIP3    H136362   6.398   1.328   5.173  1.3184 -1.8582 -1.7532
 4957TIP3    H236363   6.266   1.367   5.110  0.1382  2.1565  2.6309
 4958TIP3   OH236364   6.214   0.303  15.613  0.4078  0.0671  0.0794
 4958TIP3    H136365   6.194   0.215  15.646  0.3631 -0.4539 -1.2577
 4958TIP3    H236366   6.176   0.305  15.525 -0.3267  1.7358  0.3924
 4959TIP3   OH236367   2.157   5.294   1.292  0.1584 -0.3375  0.5800
 4959TIP3    H136368   2.201   5.211   1.272 -0.9529 -0.5384 -1.2305
 4959TIP3    H236369   2.228   5.355   1.310  1.2605 -0.6332 -2.2419
 4960TIP3   OH236370   5.354   5.683   3.445 -0.1871  0.9028  0.3431
 4960TIP3    H136371   5.263   5.683   3.415  0.4994 -0.9425 -1.9448
 4960TIP3    H236372   5.350   5.645   3.533 -1.7236  2.0590  0.8169
 4961TIP3   OH236373   2.490   1.635  17.073  0.1197 -0.6083  0.0547
 4961TIP3    H136374   2.569   1.685  17.096 -1.5842  2.5760 -0.4368
 4961TIP3    H236375   2.521   1.570  17.010  2.4372  0.1560  0.2894
 4962TIP3   OH236376   6.673   5.342  14.598 -0.4997 -0.0865 -0.2613
 4962TIP3    H136377   6.763   5.347  14.632 -0.6062  1.1018 -0.1325
 4962TIP3    H236378   6.671   5.406  14.527 -0.8711 -1.0812 -1.1674
 4963TIP3   OH236379   2.343   5.700  13.470  0.3039 -0.3243 -0.0994
 4963TIP3    H136380   2.258   5.740  13.492  0.8516  2.2452 -2.0581
 4963TIP3    H236381   2.339   5.688  13.375  1.4261 -2.0940  0.0313
 4964TIP3   OH236382   0.740   5.963   1.791  0.6881  0.5431  0.7790
 4964TIP3    H136383   0.689   5.934   1.867  0.8442  0.4896  0.8644
 4964TIP3    H236384   0.727   5.894   1.726  0.3449  0.7157  0.6625
 4965TIP3   OH236385   0.805   5.556   3.392 -0.2849 -0.3450  0.1488
 4965TIP3    H136386   0.769   5.636   3.353 -0.2008 -0.0197  0.7272
 4965TIP3    H236387   0.872   5.587   3.453 -0.4396 -0.8416  0.5798
 4966TIP3   OH236388   2.822   5.435   3.511  0.1420  0.0850 -0.8770
 4966TIP3    H136389   2.802   5.529   3.514 -3.3843 -0.5196  1.2710
 4966TIP3    H236390   2.893   5.423   3.574  0.5710  1.2720 -1.1149
 4967TIP3   OH236391   6.414   3.889  16.267  0.5862 -0.3659  0.8193
 4967TIP3    H136392   6.496   3.858  16.305  0.4049  0.5185  1.9780
 4967TIP3    H236393   6.388   3.963  16.322  0.5040  1.2280 -1.2562
 4968TIP3   OH236394   3.291   1.911  15.314 -0.5124 -0.2352 -0.6929
 4968TIP3    H136395   3.364   1.960  15.352  0.6460 -2.7276  0.5023
 4968TIP3    H236396   3.280   1.950  15.227  0.4281  1.9654  0.0858
 4969TIP3   OH236397   4.169   3.896   4.489 -0.1074 -0.1207 -0.2129
 4969TIP3    H136398   4.075   3.916   4.499  0.0942  0.6936  0.1287
 4969TIP3    H236399   4.199   3.877   4.578  0.0055 -0.6051 -0.3530
 4970TIP3   OH236400   2.684   6.804   5.324 -0.4032  0.2072 -0.5522
 4970TIP3    H136401   2.671   6.730   5.265  0.3031  0.6685 -1.3070
 4970TIP3    H236402   2.693   6.764   5.411  0.1872 -0.6109 -0.9822
 4971TIP3   OH236403   6.337   0.144   4.412  0.5369 -0.2878 -0.1235
 4971TIP3    H136404   6.265   0.084   4.393  1.3256 -1.3972  0.2960
 4971TIP3    H236405   6.403   0.123   4.346  0.1605  1.3168 -1.0476
 4972TIP3   OH236406   2.937   5.096   2.653  0.3382 -0.2436 -0.2308
 4972TIP3    H136407   2.888   5.147   2.588 -0.3807 -1.4677 -0.7061
 4972TIP3    H236408   2.880   5.093   2.729 -0.2960 -1.5264 -0.7236
 4973TIP3   OH236409   3.015   4.794   3.923 -0.2118 -0.3670 -0.1426
 4973TIP3    H136410   3.048   4.883   3.922 -1.4989  0.1508  0.2125
 4973TIP3    H236411   2.977   4.784   4.011 -0.4420 -1.1163 -0.3188
 4974TIP3   OH236412   0.269   6.031  14.867 -0.3631  0.6929  0.8925
 4974TIP3    H136413   0.335   6.082  14.915 -1.6542  1.7090  1.6835
 4974TIP3    H236414   0.315   5.998  14.790  0.7150  2.5914  0.6492
 4975TIP3   OH236415   1.197   2.461   1.292 -0.1998 -0.2237  0.1515
 4975TIP3    H136416   1.145   2.500   1.362 -0.1973 -2.2513  1.3635
 4975TIP3    H236417   1.135   2.408   1.243  0.3132 -1.0393  0.3664
 4976TIP3   OH236418   0.970   5.478   2.458 -0.2174  0.3129  0.2842
 4976TIP3    H136419   1.023   5.404   2.430 -0.2337  0.8535 -1.2851
 4976TIP3    H236420   0.954   5.463   2.551  1.9052 -0.3432  0.5896
 4977TIP3   OH236421   4.183   0.708  12.751  0.4000  0.1937 -0.2149
 4977TIP3    H136422   4.258   0.760  12.721  0.5843 -0.0441 -0.1713
 4977TIP3    H236423   4.130   0.770  12.800  1.0986  0.1395  0.6484
 4978TIP3   OH236424   6.728   1.086  10.896 -0.0088  0.2834  0.0247
 4978TIP3    H136425   6.742   1.140  10.819 -0.5737 -0.0322 -0.3005
 4978TIP3    H236426   6.641   1.109  10.927 -0.9933 -1.6610 -1.1237
 4979TIP3   OH236427   2.785   3.224   3.975  0.1021 -0.2209 -0.4906
 4979TIP3    H136428   2.718   3.157   3.960 -0.9937  0.4589  1.0043
 4979TIP3    H236429   2.785   3.276   3.895 -3.4589  1.6270  0.4868
 4980TIP3   OH236430   2.256   0.629   3.689  0.1948  0.6704 -0.1867
 4980TIP3    H136431   2.324   0.661   3.749 -0.3132 -0.6575  1.1598
 4980TIP3    H236432   2.174   0.648   3.734 -0.1487 -2.3289  0.6687
 4981TIP3   OH236433   1.821   6.638  12.911 -0.4755  0.3486 -0.1531
 4981TIP3    H136434   1.816   6.731  12.889  0.3431 -0.0978 -2.6003
 4981TIP3    H236435   1.731   6.607  12.901 -0.3768  0.4654 -1.7366
 4982TIP3   OH236436   4.821   1.948   6.404 -0.2616 -0.0308 -0.0505
 4982TIP3    H136437   4.866   1.998   6.471  1.0058 -1.3269  0.1103
 4982TIP3    H236438   4.767   2.013   6.357  0.6852  1.3041  0.6568
 4983TIP3   OH236439   6.122   1.499   2.989  0.4586 -0.1643  0.0475
 4983TIP3    H136440   6.080   1.584   2.975 -1.9072 -1.3131 -0.4482
 4983TIP3    H236441   6.191   1.516   3.053 -1.3244  1.7903  1.6155
 4984TIP3   OH236442   6.227   3.265   5.397  0.2695 -0.4424  0.4650
 4984TIP3    H136443   6.146   3.283   5.444  0.2450 -0.2950  0.3670
 4984TIP3    H236444   6.271   3.198   5.449 -0.2326 -1.0220  0.1613
 4985TIP3   OH236445   2.066   4.133   2.808 -0.8905 -0.3705 -0.4781
 4985TIP3    H136446   2.077   4.044   2.842 -1.4755 -0.4493 -0.4928
 4985TIP3    H236447   2.134   4.183   2.853 -1.3287 -0.5780  0.4367
 4986TIP3   OH236448   5.681   4.391   5.405  0.1069  0.0194  0.0294
 4986TIP3    H136449   5.646   4.443   5.333 -0.9058  1.6169  1.5915
 4986TIP3    H236450   5.775   4.407   5.403  0.1614 -0.3756 -1.2219
 4987TIP3   OH236451   2.420   6.511   1.042 -0.4247  0.6015 -0.5489
 4987TIP3    H136452   2.351   6.563   1.083 -0.3928 -0.9526  1.6771
 4987TIP3    H236453   2.412   6.529   0.949 -3.7125  0.6177 -0.3555
 4988TIP3   OH236454   3.880   0.741   3.246  0.0737 -0.4787  0.4913
 4988TIP3    H136455   3.874   0.688   3.166  2.4550  2.3639 -1.7709
 4988TIP3    H236456   3.919   0.682   3.310 -0.6821 -2.4689 -0.7604
 4989TIP3   OH236457   0.640   0.022  10.716 -1.1096 -0.4344  0.2404
 4989TIP3    H136458   0.696   0.100  10.717 -2.1921  0.3955  2.2738
 4989TIP3    H236459   0.680  -0.035  10.650  0.4142  1.3192 -0.4539
 4990TIP3   OH236460   4.198   5.083  11.782 -0.3516  0.1976 -0.3982
 4990TIP3    H136461   4.154   5.057  11.862  2.1686 -1.0717  0.7008
 4990TIP3    H236462   4.176   5.175  11.770 -2.1047 -0.0317  0.7998
 4991TIP3   OH236463   4.869   1.692   5.265  0.2475 -0.3238 -0.1821
 4991TIP3    H136464   4.862   1.686   5.360 -1.6186  0.2298 -0.2553
 4991TIP3    H236465   4.864   1.601   5.235 -0.6828 -0.3976  0.1754
 4992TIP3   OH236466   0.163   3.533   4.753 -0.2375 -0.4978  0.4838
 4992TIP3    H136467   0.124   3.568   4.833 -0.5069 -3.0687  1.5644
 4992TIP3    H236468   0.254   3.562   4.756 -0.2531 -0.5434  1.7040
 4993TIP3   OH236469   3.338   6.469   3.532  0.2377  0.2125  0.4065
 4993TIP3    H136470   3.379   6.474   3.619  0.7889 -0.4917  0.2026
 4993TIP3    H236471   3.412   6.465   3.471 -0.1380  1.6872 -0.1870
 4994TIP3   OH236472   6.823   1.506  12.058  0.2205 -0.1676  0.2606
 4994TIP3    H136473   6.730   1.492  12.040  0.1014 -0.8293  1.2997
 4994TIP3    H236474   6.861   1.418  12.057  0.8033  0.0805  0.0353
 4995TIP3   OH236475   6.065   2.045   2.233 -0.4738 -0.0713  0.0741
 4995TIP3    H136476   6.040   1.962   2.272  0.1516  0.2738  1.2852
 4995TIP3    H236477   6.159   2.037   2.218 -0.5476  0.1410 -0.5273
 4996TIP3   OH236478   0.317   4.354   2.784 -0.2333 -0.1871 -0.2186
 4996TIP3    H136479   0.302   4.433   2.732  0.3183  0.0532 -0.0273
 4996TIP3    H236480   0.297   4.282   2.725  3.6626 -0.0597 -2.0036
 4997TIP3   OH236481   6.281   5.861   3.803  0.3466  0.2921  0.3003
 4997TIP3    H136482   6.268   5.771   3.774  2.9898  0.2328 -1.0260
 4997TIP3    H236483   6.225   5.913   3.745  0.0655 -0.3638 -0.0289
 4998TIP3   OH236484   3.441   1.905  16.633 -0.1450  0.2249 -0.9175
 4998TIP3    H136485   3.392   1.931  16.555  1.7316 -0.5292 -2.4288
 4998TIP3    H236486   3.491   1.828  16.606  1.2817  0.4905  0.7341
 4999TIP3   OH236487   2.079   3.675   5.422  0.5610 -0.3032 -0.3138
 4999TIP3    H136488   2.092   3.725   5.342 -0.2628 -0.2044 -0.3930
 4999TIP3    H236489   2.039   3.594   5.394 -1.9727  0.6804  0.1753
 5000TIP3   OH236490   2.918   6.667   4.898  0.3823  0.5828 -0.2938
 5000TIP3    H136491   2.915   6.728   4.824  1.0723 -1.6193 -2.2651
 5000TIP3    H236492   2.830   6.672   4.936 -1.1418 -0.5028 -3.3294
 5001TIP3   OH236493   2.324   2.414  15.936  0.3261  0.1694 -0.1323
 5001TIP3    H136494   2.276   2.485  15.892 -2.2961 -2.4558 -1.8664
 5001TIP3    H236495   2.399   2.398  15.880  0.6250  1.1680 -0.0357
 5002TIP3   OH236496   6.010   0.135   4.080 -0.4404 -0.4142  0.2271
 5002TIP3    H136497   5.921   0.165   4.098 -1.2081 -1.3306 -1.7737
 5002TIP3    H236498   6.016   0.131   3.985  1.2386 -1.7877  0.3288
 5003TIP3   OH236499   4.158   5.092  12.076 -0.2981 -0.2945  0.2343
 5003TIP3    H136500   4.114   5.007  12.085  1.0358 -1.0897 -0.4240
 5003TIP3    H236501   4.161   5.126  12.166  1.8209 -2.3883  1.0778
 5004TIP3   OH236502   5.199   2.306   3.945  0.5243  0.3594 -0.1012
 5004TIP3    H136503   5.188   2.215   3.919  1.3598  0.0263  0.6277
 5004TIP3    H236504   5.196   2.303   4.041  1.5942  0.9379 -0.0357
 5005TIP3   OH236505   5.907   2.550   0.059  0.2662  0.0759 -0.0862
 5005TIP3    H136506   5.900   2.556   0.154  0.9016  2.3926 -0.1444
 5005TIP3    H236507   5.818   2.531   0.030 -0.1998  0.6725  0.9010
 5006TIP3   OH236508   3.307   4.077  15.054 -0.6275  0.4011  0.3996
 5006TIP3    H136509   3.317   4.172  15.044 -1.8154  0.5582  0.6270
 5006TIP3    H236510   3.260   4.049  14.976 -0.1244 -0.0405  0.2496
 5007TIP3   OH236511   3.657   2.126  15.918  0.2604 -0.2638  0.1299
 5007TIP3    H136512   3.658   2.187  15.845 -0.9091 -1.2823 -0.7890
 5007TIP3    H236513   3.648   2.040  15.877  0.0692 -0.9065  1.4622
 5008TIP3   OH236514   2.474   4.443  14.645 -0.2461 -0.2797  0.0111
 5008TIP3    H136515   2.388   4.484  14.656 -0.2571 -0.2192 -0.2829
 5008TIP3    H236516   2.465   4.387  14.568 -0.1625 -0.6576  0.2737
 5009TIP3   OH236517   4.598   6.664  15.671  0.2044 -0.0347  0.1875
 5009TIP3    H136518   4.642   6.595  15.621 -0.5182 -0.0952 -0.3665
 5009TIP3    H236519   4.645   6.665  15.754 -0.7059 -2.2429  0.8217
 5010TIP3   OH236520   3.759   5.602   2.308  0.1947  0.4413 -0.7119
 5010TIP3    H136521   3.796   5.602   2.220  1.0616 -0.6903 -0.3579
 5010TIP3    H236522   3.805   5.673   2.353 -0.2050  0.9804 -1.1262
 5011TIP3   OH236523   4.866   4.962  12.613 -0.1144  0.1145 -0.6458
 5011TIP3    H136524   4.916   4.974  12.694 -0.6980 -0.1373 -0.2454
 5011TIP3    H236525   4.777   4.988  12.635 -0.4937 -0.9122 -0.9209
 5012TIP3   OH236526   5.837   5.472   4.434 -0.2675 -0.2183 -0.1595
 5012TIP3    H136527   5.857   5.438   4.347  1.5084 -2.5038  1.0454
 5012TIP3    H236528   5.920   5.464   4.482 -1.7321 -1.1570  2.3694
 5013TIP3   OH236529   4.267   1.805   4.085 -0.5353 -0.3470 -0.6343
 5013TIP3    H136530   4.320   1.797   4.164  1.2046  1.1821 -1.5576
 5013TIP3    H236531   4.256   1.716   4.053 -0.5145 -0.8933  0.8438
 5014TIP3   OH236532   5.571   2.497   1.717 -0.4770 -0.4884 -0.0244
 5014TIP3    H136533   5.501   2.456   1.665 -0.0231 -2.6590  1.0200
 5014TIP3    H236534   5.640   2.515   1.653 -0.8943 -0.8412 -0.5881
 5015TIP3   OH236535   2.675   2.775   2.534 -0.7299 -0.0608 -0.1911
 5015TIP3    H136536   2.637   2.747   2.617 -1.1138  0.0489 -0.3289
 5015TIP3    H236537   2.647   2.866   2.523  1.3008  0.7257  0.7185
 5016TIP3   OH236538   0.469   6.307   1.300  0.6673 -0.1905 -0.1757
 5016TIP3    H136539   0.534   6.240   1.321  1.2801  0.6306  0.6748
 5016TIP3    H236540   0.456   6.354   1.383 -2.2304 -1.3153  0.1160
 5017TIP3   OH236541   2.271   6.320   4.194 -0.1344 -0.4660  0.5179
 5017TIP3    H136542   2.205   6.292   4.257 -2.4971  1.0275 -1.1339
 5017TIP3    H236543   2.251   6.270   4.115  0.3354  0.4064 -0.1754
 5018TIP3   OH236544   1.301   2.014   5.721  0.8920  0.0575 -0.0415
 5018TIP3    H136545   1.351   2.084   5.680  1.6576  0.3557  1.3262
 5018TIP3    H236546   1.351   1.992   5.800  0.1643 -1.3672  0.0637
 5019TIP3   OH236547   2.178   2.180  12.662 -0.1208 -0.0144  0.7791
 5019TIP3    H136548   2.119   2.201  12.735  0.7907  1.7193  1.0911
 5019TIP3    H236549   2.261   2.221  12.687 -0.1165  1.7690 -1.7893
 5020TIP3   OH236550   3.023   3.362  16.097  0.6008  0.6295  0.2927
 5020TIP3    H136551   2.980   3.443  16.124 -0.6712 -0.3264  1.2929
 5020TIP3    H236552   2.955   3.314  16.048  0.2052 -1.2111  2.4834
 5021TIP3   OH236553   2.764   1.967  14.976 -0.3149  0.0326  0.5267
 5021TIP3    H136554   2.834   1.946  15.037 -0.4578 -0.2618  0.5946
 5021TIP3    H236555   2.806   1.972  14.891  0.0850  1.5636  0.7831
 5022TIP3   OH236556   4.954   3.110   1.021  0.2115 -0.4565  0.5265
 5022TIP3    H136557   4.883   3.116   0.958  0.1516 -1.4354  0.4819
 5022TIP3    H236558   4.980   3.201   1.038  0.3136 -0.1899 -0.9832
 5023TIP3   OH236559   4.773   0.624   4.422  0.3098  0.0697 -0.0170
 5023TIP3    H136560   4.794   0.596   4.510 -0.5986 -2.9140 -0.6596
 5023TIP3    H236561   4.849   0.600   4.370 -0.6590 -1.7546 -0.6584
 5024TIP3   OH236562   6.039   4.132  13.809 -0.1209 -0.2674  0.3758
 5024TIP3    H136563   5.969   4.103  13.867 -0.7440  0.1794 -0.1308
 5024TIP3    H236564   5.994   4.154  13.727  0.3957  1.4093  0.5092
 5025TIP3   OH236565   5.473   1.675   2.449  0.0873  0.0854  0.2239
 5025TIP3    H136566   5.472   1.716   2.535  1.8572  0.3762  0.1376
 5025TIP3    H236567   5.435   1.741   2.391  1.7874  1.1829  0.2885
 5026TIP3   OH236568   6.011   5.008  12.160  0.2763  0.5689  0.0433
 5026TIP3    H136569   6.012   5.080  12.223  0.5577  0.7403 -0.1522
 5026TIP3    H236570   6.102   4.977  12.160  0.0566 -0.0817  0.4630
 5027TIP3   OH236571   0.020   6.689  16.704 -0.3915 -0.0101  0.5798
 5027TIP3    H136572   0.006   6.702  16.610 -1.7405 -0.4596  0.6938
 5027TIP3    H236573   0.058   6.771  16.734  1.4272 -0.3717 -0.5992
 5028TIP3   OH236574   2.379   6.077   6.413 -0.1084  0.5124  0.0320
 5028TIP3    H136575   2.327   6.147   6.453 -0.6598  1.3387 -1.9642
 5028TIP3    H236576   2.468   6.091   6.445 -0.7581  0.2005  2.0733
 5029TIP3   OH236577   0.940   1.212  15.831 -0.6207 -0.4321  0.6402
 5029TIP3    H136578   0.878   1.263  15.882 -0.0249 -1.5714  2.6243
 5029TIP3    H236579   0.886   1.160  15.772 -1.4191  0.0650  0.9202
 5030TIP3   OH236580   3.730   3.360  15.700  0.0891  0.4435  0.9618
 5030TIP3    H136581   3.689   3.289  15.749 -0.5152  1.0731  1.3720
 5030TIP3    H236582   3.784   3.315  15.635 -1.3722 -0.3893  0.2979
 5031TIP3   OH236583   5.885   3.009  16.700 -0.7369 -0.9813 -0.1660
 5031TIP3    H136584   5.871   2.955  16.778  0.6976 -0.7081  0.2964
 5031TIP3    H236585   5.977   2.998  16.679 -0.7436  0.2120 -0.8953
 5032TIP3   OH236586   0.480   0.366  13.872 -0.5574 -0.1207  0.0318
 5032TIP3    H136587   0.548   0.301  13.894 -2.1127 -2.0747 -0.6017
 5032TIP3    H236588   0.462   0.351  13.779 -0.2692  1.9545 -0.3924
 5033TIP3   OH236589   4.053   6.030   4.059  0.1044  0.1706 -0.4715
 5033TIP3    H136590   4.127   6.084   4.087 -0.4776  0.8571 -0.2014
 5033TIP3    H236591   4.028   6.068   3.974 -0.3984  0.4274 -0.2134
 5034TIP3   OH236592   1.769   0.072  12.748  0.5432  0.0733 -0.4894
 5034TIP3    H136593   1.736   0.053  12.660 -0.6379 -1.5298  0.2389
 5034TIP3    H236594   1.730   0.157  12.770  1.8995  1.1237 -1.9650
 5035TIP3   OH236595   0.233   5.949   5.405 -0.6170  0.4899  0.1847
 5035TIP3    H136596   0.225   5.918   5.495 -0.3908  1.0580  0.4023
 5035TIP3    H236597   0.190   6.035   5.405 -2.0250 -0.1886 -0.6166
 5036TIP3   OH236598   6.667   4.588  12.087 -0.7714  0.3694 -0.3067
 5036TIP3    H136599   6.688   4.673  12.047  0.8584  1.8414  3.2125
 5036TIP3    H236600   6.587   4.605  12.138  0.2618  0.2434  1.4280
 5037TIP3   OH236601   5.607   4.877   5.398  0.3915 -0.1668  0.3778
 5037TIP3    H136602   5.593   4.941   5.468  0.2444 -0.6977  0.8394
 5037TIP3    H236603   5.701   4.881   5.380  0.6575 -0.9606  1.5179
 5038TIP3   OH236604   3.269   3.323   0.730  0.1765  0.1439  0.0074
 5038TIP3    H136605   3.280   3.321   0.635  0.9985 -1.0140  0.0999
 5038TIP3    H236606   3.179   3.293   0.744 -0.2494  1.1622 -0.4226
 5039TIP3   OH236607   4.152   1.584  15.148 -0.3081  0.4696 -0.2500
 5039TIP3    H136608   4.197   1.621  15.225  0.0018  0.2208 -0.3105
 5039TIP3    H236609   4.062   1.614  15.157  0.0271  1.5984 -0.5189
 5040TIP3   OH236610   3.961   2.743  12.621  0.0596 -0.0982 -0.3736
 5040TIP3    H136611   3.884   2.793  12.649  0.2865  0.0018  0.0855
 5040TIP3    H236612   3.936   2.652  12.634  0.0239 -0.0652 -0.2111
 5041TIP3   OH236613   1.439   2.123   1.292  0.0108  0.2772 -0.3684
 5041TIP3    H136614   1.385   2.050   1.324  1.7245 -0.5295  0.8163
 5041TIP3    H236615   1.422   2.194   1.354 -0.7464  0.5123 -0.8300
 5042TIP3   OH236616   6.434   6.254  15.989 -0.3250 -0.3437 -0.1123
 5042TIP3    H136617   6.401   6.209  16.067  2.5857 -0.1081  1.3957
 5042TIP3    H236618   6.389   6.338  15.990 -2.1258 -1.2525 -0.1261
 5043TIP3   OH236619   4.727   4.998   1.269 -0.5891 -0.4495  0.1376
 5043TIP3    H136620   4.651   5.022   1.322 -0.9661 -1.2828 -0.0097
 5043TIP3    H236621   4.764   4.921   1.313 -0.5030 -0.7341 -0.4224
 5044TIP3   OH236622   4.927   3.358   5.793 -0.1439  0.2134 -0.7298
 5044TIP3    H136623   4.979   3.361   5.873 -0.7772  0.8814 -0.3355
 5044TIP3    H236624   4.862   3.290   5.810 -0.2735  0.3501 -0.6740
 5045TIP3   OH236625   4.679   1.493  10.440  0.3476  0.4267  0.5938
 5045TIP3    H136626   4.613   1.430  10.411  0.5741  0.7301 -0.6170
 5045TIP3    H236627   4.754   1.439  10.466  0.4740  0.1799 -0.2640
 5046TIP3   OH236628   1.825   1.608   2.399 -0.2864 -0.2394  0.3466
 5046TIP3    H136629   1.783   1.690   2.426 -2.6521 -1.2805  0.0839
 5046TIP3    H236630   1.810   1.548   2.472 -0.5489 -1.0630 -0.3706
 5047TIP3   OH236631   5.598   2.464   1.331 -0.3647 -0.3876  0.7764
 5047TIP3    H136632   5.615   2.507   1.415  0.8343  0.0218  0.3525
 5047TIP3    H236633   5.521   2.508   1.296 -1.0122 -0.7140  1.7525
 5048TIP3   OH236634   6.359   5.590   5.341  0.3573 -0.0116  0.2820
 5048TIP3    H136635   6.276   5.544   5.356 -0.5022  0.6502 -2.0392
 5048TIP3    H236636   6.375   5.581   5.247  2.1563  1.1728  0.4191
 5049TIP3   OH236637   2.094   6.346  12.006 -0.0514 -0.5074 -0.2080
 5049TIP3    H136638   2.080   6.439  11.984  0.2559 -0.9019 -2.2508
 5049TIP3    H236639   2.047   6.334  12.088  0.9980  1.7655  0.8082
 5050TIP3   OH236640   3.959   0.795   5.192 -0.4398  0.2392  0.1333
 5050TIP3    H136641   4.052   0.820   5.187  0.4868 -2.5566  1.0446
 5050TIP3    H236642   3.915   0.853   5.131  2.4419 -0.4157 -2.8662
 5051TIP3   OH236643   4.154   4.377  14.852  0.6071  0.4067  0.0042
 5051TIP3    H136644   4.096   4.357  14.926  1.3141 -1.0262  0.2047
 5051TIP3    H236645   4.101   4.360  14.775  1.4996 -4.0554  0.0857
 5052TIP3   OH236646   0.776   5.930  15.924 -0.4151 -0.1529  0.5329
 5052TIP3    H136647   0.714   5.865  15.957 -0.6731  0.2966  0.9486
 5052TIP3    H236648   0.753   6.011  15.971  0.0048  0.1963  0.1423
 5053TIP3   OH236649   5.224   4.671   3.572  0.0842 -0.1169 -0.0343
 5053TIP3    H136650   5.166   4.635   3.639  0.1789 -3.1867 -1.4100
 5053TIP3    H236651   5.286   4.726   3.621 -1.8122  0.4310  1.9008
 5054TIP3   OH236652   1.339   1.937   6.208  0.2032 -0.1253 -0.0196
 5054TIP3    H136653   1.371   1.857   6.248 -1.3203 -0.1379  1.2587
 5054TIP3    H236654   1.248   1.919   6.186 -0.3121  1.3700  0.7071
 5055TIP3   OH236655   0.543   3.353  12.224 -0.0508 -0.1030 -0.1943
 5055TIP3    H136656   0.631   3.354  12.263  0.4176 -2.4856 -1.0015
 5055TIP3    H236657   0.487   3.314  12.291 -0.5220  1.3011  0.2732
 5056TIP3   OH236658   0.755   3.776  16.173  0.4476  0.1148 -0.2920
 5056TIP3    H136659   0.717   3.752  16.258 -0.5659  1.1754 -0.4073
 5056TIP3    H236660   0.822   3.710  16.157  0.0901 -0.5898  0.9451
 5057TIP3   OH236661   3.976   3.727  13.728 -0.3109 -0.3267 -0.0560
 5057TIP3    H136662   3.995   3.681  13.810 -0.8232  0.3589  0.4613
 5057TIP3    H236663   3.880   3.728  13.723 -0.3225  0.8974  0.0890
 5058TIP3   OH236664   0.087   5.173   5.592  0.6234  0.2695 -0.2172
 5058TIP3    H136665   0.182   5.169   5.605  0.5461  0.5834  0.5286
 5058TIP3    H236666   0.074   5.237   5.522  1.0484 -1.1561 -1.6507
 5059TIP3   OH236667   2.093   3.473  17.216 -0.5358  0.5764 -0.2682
 5059TIP3    H136668   2.139   3.413  17.157 -1.1143  1.1236 -1.3075
 5059TIP3    H236669   2.032   3.417  17.264  0.4302  0.0161  0.3373
 5060TIP3   OH236670   5.977   2.257   0.931 -0.2419  0.0001  0.0158
 5060TIP3    H136671   5.890   2.242   0.896 -0.6659  1.4604  0.3800
 5060TIP3    H236672   6.036   2.231   0.860 -0.9728 -0.7739 -0.3224
 5061TIP3   OH236673   5.386   0.297   1.904  0.4707  0.2589  0.0651
 5061TIP3    H136674   5.411   0.378   1.948  0.8764  0.0720  0.1727
 5061TIP3    H236675   5.368   0.235   1.975 -2.4402  0.9924  0.1039
 5062TIP3   OH236676   4.653   6.757  11.239 -0.1057  0.5496  0.6344
 5062TIP3    H136677   4.713   6.687  11.215  0.6284  1.1094  0.8252
 5062TIP3    H236678   4.607   6.723  11.317 -0.7076 -0.2407 -0.0379
 5063TIP3   OH236679   3.231   6.253   1.744 -0.7225 -0.4078 -0.0887
 5063TIP3    H136680   3.184   6.320   1.694 -0.8294 -0.0142  0.5347
 5063TIP3    H236681   3.287   6.210   1.679  1.5206  2.1775 -0.0425
 5064TIP3   OH236682   6.117   1.392   2.209  0.0511 -0.0190  0.2524
 5064TIP3    H136683   6.074   1.319   2.254 -0.1130 -0.0434  0.0535
 5064TIP3    H236684   6.135   1.455   2.278  0.8207 -0.5455  0.5536
 5065TIP3   OH236685   1.746   3.728   5.868  0.0969  0.6807  0.1477
 5065TIP3    H136686   1.682   3.792   5.836 -0.2585  0.2130 -0.0923
 5065TIP3    H236687   1.712   3.644   5.838  0.2447  0.3201  0.9582
 5066TIP3   OH236688   2.217   0.960   2.458 -0.3708 -0.0598 -0.3590
 5066TIP3    H136689   2.298   1.000   2.425 -0.8308  0.1367 -1.2909
 5066TIP3    H236690   2.151   1.029   2.449 -0.4046  0.2103  1.6006
 5067TIP3   OH236691   1.694   3.415  15.585 -0.3804 -0.2853 -0.2559
 5067TIP3    H136692   1.640   3.478  15.537 -0.5772  1.2433  1.8361
 5067TIP3    H236693   1.784   3.444  15.571 -0.4458  0.2359  0.3705
 5068TIP3   OH236694   5.695   5.743   5.435 -0.3685  0.0073 -0.1075
 5068TIP3    H136695   5.777   5.712   5.472 -0.5168 -0.4483 -0.1470
 5068TIP3    H236696   5.628   5.715   5.498 -0.5048  0.2727 -0.1318
 5069TIP3   OH236697   4.757   4.000   3.363 -0.3335  0.5893 -0.1869
 5069TIP3    H136698   4.773   4.084   3.407 -0.3652  1.2829 -1.4348
 5069TIP3    H236699   4.667   3.977   3.387 -1.1556  2.0819 -1.5797
 5070TIP3   OH236700   5.123   1.401  12.852  0.5033  0.1982 -0.4415
 5070TIP3    H136701   5.092   1.395  12.942  1.2817  0.4401 -0.1539
 5070TIP3    H236702   5.071   1.335  12.805 -0.8646  0.9827 -0.1051
 5071TIP3   OH236703   6.294   0.538   2.928  0.1132  0.0865  0.0133
 5071TIP3    H136704   6.289   0.443   2.933 -1.7994  0.1461  0.0092
 5071TIP3    H236705   6.328   0.565   3.013 -2.6730 -0.4855  1.4355
 5072TIP3   OH236706   2.263   2.053   4.742  0.3598 -0.1143 -0.2847
 5072TIP3    H136707   2.335   2.095   4.788  0.0280 -0.0351  0.1663
 5072TIP3    H236708   2.296   1.966   4.720  1.6098  0.8416 -2.5717
 5073TIP3   OH236709   2.313   3.287  15.999  0.4319 -0.1633 -0.7970
 5073TIP3    H136710   2.369   3.215  16.027  0.0782 -0.9373 -1.9878
 5073TIP3    H236711   2.244   3.245  15.948  0.0392  0.9905 -1.2458
 5074TIP3   OH236712   2.681   5.547  15.666 -1.0090 -0.3835 -0.1678
 5074TIP3    H136713   2.646   5.460  15.646 -0.3248 -0.4437 -1.1781
 5074TIP3    H236714   2.617   5.585  15.725 -1.6373 -1.3396 -0.1992
 5075TIP3   OH236715   3.684   2.072   5.929  0.1131 -0.1637  0.3231
 5075TIP3    H136716   3.644   2.002   5.876  0.1550  0.1716 -0.1601
 5075TIP3    H236717   3.742   2.118   5.867  0.0316  0.3400  0.6222
 5076TIP3   OH236718   4.803   5.269  16.481  0.5200  0.4494  0.4737
 5076TIP3    H136719   4.746   5.339  16.511  0.1631  0.2774  0.2101
 5076TIP3    H236720   4.797   5.273  16.385  1.1055  0.5561  0.4378
 5077TIP3   OH236721   5.882   5.913  11.758  0.7615 -0.2234  0.6692
 5077TIP3    H136722   5.829   5.927  11.837  0.8927  1.0445  0.5490
 5077TIP3    H236723   5.850   5.978  11.695 -0.1582 -1.9823 -0.7737
 5078TIP3   OH236724   3.581   4.481   6.411 -0.1908 -0.4230  0.0382
 5078TIP3    H136725   3.627   4.563   6.395  0.2280 -0.5409  0.6032
 5078TIP3    H236726   3.488   4.502   6.397 -0.0696  0.0944 -0.0058
 5079TIP3   OH236727   5.709   3.667  14.380 -0.0726 -0.2929  0.1027
 5079TIP3    H136728   5.748   3.601  14.437 -2.2288 -2.7556 -1.0822
 5079TIP3    H236729   5.643   3.710  14.434  0.1973 -0.2576  0.4056
 5080TIP3   OH236730   3.087   4.024  11.102 -0.0981  0.7191  0.3760
 5080TIP3    H136731   3.073   3.929  11.107  1.3975  0.4075 -0.7510
 5080TIP3    H236732   3.009   4.057  11.058 -1.2215  0.2169  1.8710
 5081TIP3   OH236733   2.172   0.073  13.022 -0.1535 -0.2676  0.1492
 5081TIP3    H136734   2.121   0.053  12.944 -0.2235 -0.9306  0.3534
 5081TIP3    H236735   2.139   0.157  13.052 -0.9802 -0.5782  0.1472
 5082TIP3   OH236736   2.844   2.456   3.904  0.8322 -0.4617 -0.0011
 5082TIP3    H136737   2.932   2.435   3.933  1.0278  1.4774  0.9536
 5082TIP3    H236738   2.847   2.445   3.809  2.8504  1.8909 -0.2945
 5083TIP3   OH236739   2.399   4.229   6.619  0.0830  0.2852 -0.1160
 5083TIP3    H136740   2.415   4.304   6.676  0.0502  1.3754 -1.5066
 5083TIP3    H236741   2.440   4.155   6.665 -0.6343  0.9593  1.6965
 5084TIP3   OH236742   3.565   5.626   3.381 -0.1819 -0.4034 -0.0261
 5084TIP3    H136743   3.594   5.666   3.299 -1.2683  0.6301  0.0797
 5084TIP3    H236744   3.636   5.565   3.404  0.5733 -0.0035 -1.2235
 5085TIP3   OH236745   0.536   3.650   5.326  0.6737  0.3786 -0.3432
 5085TIP3    H136746   0.570   3.712   5.391  0.4661 -0.5764  0.7045
 5085TIP3    H236747   0.489   3.705   5.263 -2.1956  1.1009  2.2253
 5086TIP3   OH236748   2.439   4.685  14.334 -0.2011 -0.1864  0.4165
 5086TIP3    H136749   2.400   4.626  14.270 -0.7775 -0.1282  0.7131
 5086TIP3    H236750   2.533   4.664  14.332  0.0511  0.9258 -1.6220
 5087TIP3   OH236751   3.156   5.321  12.872 -0.3103  0.1084  0.5477
 5087TIP3    H136752   3.184   5.240  12.829  0.4775  0.5364  0.2472
 5087TIP3    H236753   3.066   5.334  12.842 -0.2194 -0.3161  0.0852
 5088TIP3   OH236754   6.057   0.150   3.813 -0.4645 -0.2153 -0.0773
 5088TIP3    H136755   6.037   0.182   3.725 -0.9354 -0.9996 -0.2606
 5088TIP3    H236756   6.074   0.057   3.802  2.3372  0.1571  0.2255
 5089TIP3   OH236757   4.256   3.346  13.995  0.3955  0.0815 -0.0020
 5089TIP3    H136758   4.252   3.401  13.917  1.5584 -0.7597 -0.6845
 5089TIP3    H236759   4.223   3.261  13.966  4.0406 -1.2898 -0.5963
 5090TIP3   OH236760   6.406   6.522  12.236 -0.2049  0.5519 -0.3748
 5090TIP3    H136761   6.417   6.617  12.247  0.5899  0.3385  0.8907
 5090TIP3    H236762   6.317   6.512  12.201 -0.4798  1.7312 -0.0660
 5091TIP3   OH236763   3.490   3.692  17.031 -0.3566  0.1807 -0.1700
 5091TIP3    H136764   3.471   3.777  16.991 -0.8685  0.5382  0.7924
 5091TIP3    H236765   3.405   3.661  17.063  0.1524  0.3797  1.5164
 5092TIP3   OH236766   2.512   2.353  15.493 -0.3681  0.1174 -0.4706
 5092TIP3    H136767   2.571   2.369  15.419  1.0348  1.8067  0.8898
 5092TIP3    H236768   2.484   2.441  15.520 -2.3642 -0.5724 -0.1341
 5093TIP3   OH236769   5.892   3.158  16.305 -0.2071 -0.0968 -0.7949
 5093TIP3    H136770   5.946   3.237  16.297  1.2756 -0.9205  0.4645
 5093TIP3    H236771   5.876   3.130  16.215  4.0659 -1.4224 -1.3625
 5094TIP3   OH236772   1.650   0.165   4.246 -0.2739 -0.0712  0.1279
 5094TIP3    H136773   1.624   0.257   4.251 -1.9282 -0.5540  1.1545
 5094TIP3    H236774   1.739   0.164   4.280  0.2584  1.3111 -1.1252
 5095TIP3   OH236775   3.628   1.680  13.960  0.0212 -0.1541 -0.4927
 5095TIP3    H136776   3.552   1.632  13.925  0.4915 -1.9049  0.7501
 5095TIP3    H236777   3.688   1.611  13.989  1.6472  1.2134 -0.5115
 5096TIP3   OH236778   2.738   3.239  15.449 -0.5173  0.0420  0.5691
 5096TIP3    H136779   2.767   3.157  15.489  0.6899 -0.1733 -0.6675
 5096TIP3    H236780   2.819   3.286  15.429 -1.1519  0.9848  0.1299
 5097TIP3   OH236781   3.861   6.288   4.072  0.6987  0.2738  0.7552
 5097TIP3    H136782   3.853   6.294   4.167  3.2327 -1.5699  1.1822
 5097TIP3    H236783   3.808   6.212   4.048 -1.2065  1.6379  0.4013
 5098TIP3   OH236784   6.523   0.502   3.470 -0.3997  0.3740 -0.2351
 5098TIP3    H136785   6.569   0.431   3.516 -0.0481 -0.5174 -1.8679
 5098TIP3    H236786   6.562   0.582   3.505  0.7190 -0.3070  0.1521
 5099TIP3   OH236787   0.147   1.674  11.097  0.7757 -0.4865  0.3885
 5099TIP3    H136788   0.092   1.705  11.025  1.2871  0.1053  0.2362
 5099TIP3    H236789   0.136   1.579  11.097  0.9569 -0.5176 -0.6336
 5100TIP3   OH236790   1.897   2.985   2.355 -0.3776 -0.2539  0.4689
 5100TIP3    H136791   1.807   3.010   2.378 -0.9100 -1.3479 -0.2910
 5100TIP3    H236792   1.921   3.043   2.283  0.1418  1.1154  1.7168
 5101TIP3   OH236793   5.697   0.717   6.598 -0.1111  0.0664  0.2929
 5101TIP3    H136794   5.640   0.644   6.621  0.1305 -0.3192 -0.2881
 5101TIP3    H236795   5.715   0.704   6.504  2.3141 -0.8145  0.7949
 5102TIP3   OH236796   5.524   1.310  15.000  0.3157 -0.6121  0.5369
 5102TIP3    H136797   5.453   1.353  14.952 -0.3131 -1.1077  1.0078
 5102TIP3    H236798   5.518   1.345  15.089  0.6902 -0.6308  0.5722
 5103TIP3   OH236799   5.170   2.196   1.482  0.6865 -0.0582 -0.2627
 5103TIP3    H136800   5.102   2.258   1.454  1.5681  1.0755  0.0075
 5103TIP3    H236801   5.137   2.162   1.565  0.0197 -0.2333 -0.5895
 5104TIP3   OH236802   1.790   0.387   0.732  0.3443  0.0565  0.6124
 5104TIP3    H136803   1.760   0.473   0.703  0.7276  0.3683  1.1445
 5104TIP3    H236804   1.872   0.372   0.685  1.3037  0.8398  1.9698
 5105TIP3   OH236805   2.065   0.835  16.649  0.3081 -0.3206  0.0150
 5105TIP3    H136806   2.031   0.775  16.583 -0.7930  1.9826 -1.6597
 5105TIP3    H236807   2.000   0.832  16.720  0.4793 -1.3772  0.1360
 5106TIP3   OH236808   2.801   0.098   1.274 -0.2290 -0.1073  0.6241
 5106TIP3    H136809   2.788   0.191   1.295 -0.8727  0.0987 -0.6302
 5106TIP3    H236810   2.780   0.053   1.356 -0.3598  0.8225  1.1206
 5107TIP3   OH236811   0.504   0.572  11.459  0.1912  0.5725 -0.1715
 5107TIP3    H136812   0.552   0.491  11.476  0.1405  0.4206 -0.7371
 5107TIP3    H236813   0.434   0.547  11.399 -0.3958  0.8585  0.3808
 5108TIP3   OH236814   4.688   6.338  12.013 -0.3344 -0.0228 -0.2221
 5108TIP3    H136815   4.666   6.309  11.924  0.4012  0.0244 -0.4266
 5108TIP3    H236816   4.643   6.421  12.023 -1.0954 -0.4262 -0.2479
 5109TIP3   OH236817   1.508   5.097  14.095 -0.0770  0.0893  0.8331
 5109TIP3    H136818   1.511   5.012  14.051 -2.1061 -0.4266  1.5585
 5109TIP3    H236819   1.571   5.089  14.167  0.4524 -0.4517  0.3191
 5110TIP3   OH236820   5.543   6.186  15.622  0.0131  0.1275 -0.5392
 5110TIP3    H136821   5.455   6.214  15.595  0.4372  1.8419 -0.2477
 5110TIP3    H236822   5.596   6.194  15.543  0.4664  1.6765 -0.1083
 5111TIP3   OH236823   0.518   5.449  16.767 -0.0437 -0.5993  0.6061
 5111TIP3    H136824   0.503   5.543  16.774 -0.5702 -0.7447  1.6879
 5111TIP3    H236825   0.437   5.414  16.730 -0.3431 -0.7561  1.3774
 5112TIP3   OH236826   3.459   5.141   3.872 -0.2132  0.0396  0.3378
 5112TIP3    H136827   3.505   5.164   3.953  1.1025  1.6605 -0.8016
 5112TIP3    H236828   3.523   5.156   3.803 -1.9303  0.7004 -1.1907
 5113TIP3   OH236829   5.706   1.308   2.908  0.6759  0.4063 -0.0018
 5113TIP3    H136830   5.662   1.380   2.862 -1.6104 -1.2869 -0.5830
 5113TIP3    H236831   5.713   1.339   2.999 -2.6013  0.4416  0.3394
 5114TIP3   OH236832   2.226   2.455  17.129 -0.7124 -0.2765  0.3226
 5114TIP3    H136833   2.312   2.416  17.116 -1.1472 -0.6937 -1.7095
 5114TIP3    H236834   2.164   2.384  17.111 -1.4881  0.3997  0.2437
 5115TIP3   OH236835   1.591   5.739   6.412  0.2336  0.1978  0.1653
 5115TIP3    H136836   1.572   5.656   6.457  1.7138 -0.2433  0.0419
 5115TIP3    H236837   1.664   5.718   6.354 -0.0450  1.3608 -0.6397
 5116TIP3   OH236838   2.486   2.000   1.975  0.0582  0.0766  0.3374
 5116TIP3    H136839   2.538   2.047   1.909 -0.1316  0.9799  0.8111
 5116TIP3    H236840   2.524   2.025   2.059 -0.2670 -0.3514  0.6189
 5117TIP3   OH236841   3.200   6.396  15.260 -0.1063 -0.9057 -0.1500
 5117TIP3    H136842   3.159   6.469  15.213  0.3640 -0.4854  0.0890
 5117TIP3    H236843   3.255   6.353  15.194 -0.1610 -0.8797 -0.2137
 5118TIP3   OH236844   6.204   5.851  15.270 -0.3842 -0.3227 -0.1022
 5118TIP3    H136845   6.122   5.856  15.220 -0.0756 -1.5879 -0.7792
 5118TIP3    H236846   6.195   5.771  15.322  0.0184  0.0740  0.5934
 5119TIP3   OH236847   4.813   1.977  15.526  0.3953  0.2354 -0.4168
 5119TIP3    H136848   4.780   1.888  15.540  0.5140  0.2874  0.2604
 5119TIP3    H236849   4.740   2.034  15.551  1.0975  0.3595  1.5533
 5120TIP3   OH236850   4.991   6.465  15.368 -0.1890 -0.3980 -0.0738
 5120TIP3    H136851   4.954   6.430  15.449 -2.3214 -1.7954 -1.5589
 5120TIP3    H236852   4.946   6.419  15.298  1.2979  1.0277 -2.1154
 5121TIP3   OH236853   2.152   1.314  14.408  0.1001  0.3181 -0.0348
 5121TIP3    H136854   2.174   1.382  14.344  0.1231  1.3975  1.0813
 5121TIP3    H236855   2.175   1.232  14.365  1.0398  1.0795 -1.0313
 5122TIP3   OH236856   3.124   4.255   5.199 -0.7059  0.1080  0.7212
 5122TIP3    H136857   3.120   4.255   5.103  0.1489  1.2948  0.6662
 5122TIP3    H236858   3.213   4.284   5.219 -0.3155 -1.7572  1.8803
 5123TIP3   OH236859   3.200   2.467   3.568 -0.6928  0.9664  0.2728
 5123TIP3    H136860   3.178   2.481   3.477  0.6194 -1.6800 -0.5650
 5123TIP3    H236861   3.168   2.379   3.588 -0.0004  1.0574  2.0289
 5124TIP3   OH236862   3.417   0.136   0.671 -0.7697  0.3602  0.1960
 5124TIP3    H136863   3.376   0.167   0.752 -0.7492 -0.0621  0.3683
 5124TIP3    H236864   3.462   0.056   0.696 -1.6820 -0.3821 -0.4726
 5125TIP3   OH236865   1.177   3.880  15.949 -0.1487 -0.6139  0.7492
 5125TIP3    H136866   1.104   3.916  16.000  0.0179  0.0651  0.5238
 5125TIP3    H236867   1.135   3.835  15.876 -0.3766 -1.3031  1.2941
 5126TIP3   OH236868   5.836   3.238   0.100  0.1679  0.4381 -0.0904
 5126TIP3    H136869   5.818   3.320   0.055 -0.7017 -0.2608 -1.0821
 5126TIP3    H236870   5.891   3.262   0.174  1.2232  1.7206 -1.2269
 5127TIP3   OH236871   0.243   5.388   4.208  0.3181  0.3459 -0.0557
 5127TIP3    H136872   0.238   5.454   4.138  0.3218  0.0601 -0.3252
 5127TIP3    H236873   0.229   5.438   4.288 -0.4404  0.5610 -0.3102
 5128TIP3   OH236874   2.043   4.881   6.180 -0.0460 -0.4065  0.3465
 5128TIP3    H136875   2.081   4.794   6.166 -1.1961 -0.9140  0.2205
 5128TIP3    H236876   1.961   4.864   6.227 -0.2163  0.6233  0.4455
 5129TIP3   OH236877   4.979   1.652  12.902 -0.7943  0.5482  0.0676
 5129TIP3    H136878   5.031   1.574  12.921 -0.0011  0.9971 -0.1966
 5129TIP3    H236879   4.893   1.634  12.941 -0.1218  0.2374  1.4687
 5130TIP3   OH236880   0.696   0.336   3.343 -0.1533 -0.3533  0.6036
 5130TIP3    H136881   0.746   0.417   3.353 -1.9764  0.7867  0.9191
 5130TIP3    H236882   0.699   0.295   3.430 -1.9855  1.1043  1.4252
 5131TIP3   OH236883   3.938   6.724  15.886  0.0031 -0.1609  0.3618
 5131TIP3    H136884   3.910   6.698  15.798 -3.2848  0.5281  1.0929
 5131TIP3    H236885   3.937   6.643  15.937 -0.6481 -0.1596  0.3576
 5132TIP3   OH236886   4.078   2.430  11.272 -0.1758 -0.2071 -0.3797
 5132TIP3    H136887   3.999   2.398  11.228 -0.7070  0.3698  0.1237
 5132TIP3    H236888   4.046   2.498  11.331  1.0580  2.0405 -2.1883
 5133TIP3   OH236889   5.992   5.097  13.395 -0.2237 -0.2089 -0.1492
 5133TIP3    H136890   6.039   5.178  13.417 -0.2739 -0.8430  2.7770
 5133TIP3    H236891   5.911   5.127  13.354 -0.2809  1.2729  0.9575
 5134TIP3   OH236892   2.293   4.776   3.489 -0.0985 -0.1030 -0.6910
 5134TIP3    H136893   2.205   4.790   3.454 -0.5572  0.6508  0.6989
 5134TIP3    H236894   2.318   4.689   3.456 -0.2034  0.8007 -3.3809
 5135TIP3   OH236895   4.943   5.356   6.066  0.5121  0.0058 -0.4847
 5135TIP3    H136896   4.961   5.434   6.118  1.4651 -1.7363  1.9891
 5135TIP3    H236897   4.848   5.356   6.054 -0.0485 -0.3969  2.9804
 5136TIP3   OH236898   4.487   6.116  13.585 -0.3276  0.7876 -0.5898
 5136TIP3    H136899   4.572   6.105  13.543 -1.3379 -0.2046 -2.5027
 5136TIP3    H236900   4.503   6.098  13.678  1.3531 -0.3402 -1.0599
 5137TIP3   OH236901   0.634   5.633   4.858  0.1023 -0.0061 -0.6391
 5137TIP3    H136902   0.633   5.646   4.953 -1.4146 -0.0945 -0.6176
 5137TIP3    H236903   0.704   5.569   4.843  0.8042  0.5072  0.3378
 5138TIP3   OH236904   3.282   6.185   3.373 -0.5521  0.2828 -0.1333
 5138TIP3    H136905   3.284   6.265   3.425  1.1929  0.7269 -0.8202
 5138TIP3    H236906   3.212   6.132   3.413 -0.5084  1.3636  1.4643
 5139TIP3   OH236907   5.567   4.402  17.077 -0.0648 -0.0266 -0.0437
 5139TIP3    H136908   5.607   4.329  17.124  1.0194  0.1532 -0.6672
 5139TIP3    H236909   5.605   4.398  16.990 -1.8408 -0.1944 -0.8628
 5140TIP3   OH236910   0.399   4.246   5.448 -0.1616  1.0517  0.4469
 5140TIP3    H136911   0.321   4.277   5.402  0.7322  1.6916 -0.7112
 5140TIP3    H236912   0.465   4.236   5.379  0.9309  1.0315  1.4612
 5141TIP3   OH236913   4.760   2.922  13.486  0.0595  0.0177 -0.1486
 5141TIP3    H136914   4.712   3.004  13.488  0.4016  0.2555 -1.1619
 5141TIP3    H236915   4.852   2.947  13.481  0.2013 -0.4287  0.1058
 5142TIP3   OH236916   4.299   2.543  15.871  0.4225 -0.2634 -0.2631
 5142TIP3    H136917   4.255   2.484  15.932  0.6054 -0.2058 -0.0739
 5142TIP3    H236918   4.369   2.490  15.833 -1.0095 -0.9867 -2.0638
 5143TIP3   OH236919   6.135   1.904  15.475  0.1822  0.5359  0.0466
 5143TIP3    H136920   6.136   1.837  15.543 -2.5640  0.0867 -0.2556
 5143TIP3    H236921   6.090   1.979  15.514 -2.1341  0.0041 -1.4005
 5144TIP3   OH236922   3.648   4.535  13.845  0.5259  0.1315 -0.1553
 5144TIP3    H136923   3.658   4.526  13.750 -1.2877 -0.6928 -0.3071
 5144TIP3    H236924   3.555   4.521  13.861  0.4868  1.8861  1.5866
 5145TIP3   OH236925   0.948   2.838   1.312  0.0447  0.5500 -0.1459
 5145TIP3    H136926   0.937   2.744   1.299  0.6127  0.6230 -1.3422
 5145TIP3    H236927   0.951   2.874   1.223  0.2795  1.6400  0.2878
 5146TIP3   OH236928   1.447   5.884   1.624  0.3652 -0.6015  0.4851
 5146TIP3    H136929   1.363   5.929   1.610 -0.2280 -1.7499  0.2370
 5146TIP3    H236930   1.483   5.873   1.536  0.3303 -0.9370  0.5129
 5147TIP3   OH236931   6.195   4.398   5.048 -0.0821  0.3521  0.3501
 5147TIP3    H136932   6.159   4.409   5.136  0.9656  0.4319  0.7864
 5147TIP3    H236933   6.122   4.363   4.997 -1.3744  2.3188  0.7136
 5148TIP3   OH236934   0.547   0.797  11.259 -0.1473  0.4724 -0.6071
 5148TIP3    H136935   0.502   0.727  11.213  2.5648 -1.0900 -1.0565
 5148TIP3    H236936   0.552   0.767  11.350  1.6943 -0.3529 -0.9459
 5149TIP3   OH236937   3.686   5.383   5.694 -0.1882 -0.0714 -0.1595
 5149TIP3    H136938   3.756   5.423   5.746  0.6186 -0.2351 -1.0815
 5149TIP3    H236939   3.660   5.306   5.743 -0.2042  0.3632  0.5334
 5150TIP3   OH236940   5.025   0.994  11.087 -0.0865  0.5328 -0.6126
 5150TIP3    H136941   4.941   0.948  11.084  1.0921 -1.7764 -0.2747
 5150TIP3    H236942   5.058   0.990  10.997  0.6688 -0.6387 -0.3070
 5151TIP3   OH236943   0.430   5.289   4.443  0.0799  0.6913  0.1376
 5151TIP3    H136944   0.394   5.327   4.362 -1.0898  0.5430  0.5667
 5151TIP3    H236945   0.361   5.303   4.508  0.5438 -0.1964  0.8373
 5152TIP3   OH236946   1.002   5.417   4.622  0.0658  0.8767 -0.0652
 5152TIP3    H136947   0.993   5.436   4.529  0.7540  1.3489 -0.0434
 5152TIP3    H236948   0.914   5.393   4.651  0.1112 -0.7875 -1.1650
 5153TIP3   OH236949   0.272   4.196  16.735  0.2627  0.2459 -0.0943
 5153TIP3    H136950   0.260   4.246  16.816 -0.8036  0.7396 -0.5370
 5153TIP3    H236951   0.186   4.158  16.718  1.0669 -1.8940  0.2910
 5154TIP3   OH236952   6.122   0.040   3.408  0.2129  0.2040  0.3051
 5154TIP3    H136953   6.174  -0.022   3.458  0.1009  0.4644  0.7448
 5154TIP3    H236954   6.160   0.125   3.427  0.5931  0.2423 -0.5787
 5155TIP3   OH236955   5.151   3.040   1.252 -0.2470 -0.0300  0.2745
 5155TIP3    H136956   5.076   3.100   1.248  0.3895  0.7747 -0.0657
 5155TIP3    H236957   5.207   3.068   1.179  0.9643  0.2005  1.2632
 5156TIP3   OH236958   1.437   3.552  13.551 -0.1682  0.4118 -0.5771
 5156TIP3    H136959   1.402   3.469  13.517 -0.3216  0.5458 -0.7446
 5156TIP3    H236960   1.478   3.528  13.635 -0.4249  0.2079 -0.5080
 5157TIP3   OH236961   2.352   6.789   0.390  0.0707 -0.0563  0.3608
 5157TIP3    H136962   2.298   6.763   0.464  1.0527  0.1929  1.1938
 5157TIP3    H236963   2.369   6.882   0.405  0.6336 -0.1069  0.0595
 5158TIP3   OH236964   1.874   3.312   5.630 -0.2383  0.9052  0.0079
 5158TIP3    H136965   1.856   3.361   5.711  0.5439  1.7480 -0.3169
 5158TIP3    H236966   1.969   3.315   5.620 -0.3788  1.5320 -1.3850
 5159TIP3   OH236967   6.320   1.917  14.132 -0.2577 -0.3130  0.5811
 5159TIP3    H136968   6.293   2.009  14.137 -0.8943 -0.5425  1.5740
 5159TIP3    H236969   6.286   1.888  14.047  0.9584  0.6573 -0.2778
 5160TIP3   OH236970   5.208   3.392   5.646 -0.5002 -0.8006 -0.4206
 5160TIP3    H136971   5.126   3.417   5.688  0.4130  1.7265  0.0182
 5160TIP3    H236972   5.276   3.429   5.702  0.8175  0.4508 -2.7128
 5161TIP3   OH236973   6.576   6.220   0.947 -0.2100  0.2597 -0.1656
 5161TIP3    H136974   6.530   6.192   1.026  0.9075  0.5970  0.6250
 5161TIP3    H236975   6.565   6.315   0.946 -1.8558  0.1072 -1.4883
 5162TIP3   OH236976   2.144   5.134  12.250  0.6055 -0.0078 -0.4430
 5162TIP3    H136977   2.215   5.157  12.310 -0.6462  1.2322  0.6300
 5162TIP3    H236978   2.068   5.120  12.306 -0.9292  2.3967 -1.7227
 5163TIP3   OH236979   4.832   2.986   2.015 -0.5532 -0.5845 -0.3112
 5163TIP3    H136980   4.884   3.014   1.940  1.4185 -0.3268  1.0708
 5163TIP3    H236981   4.832   3.061   2.074  0.4072 -1.7136  1.1984
 5164TIP3   OH236982   5.477   1.441  15.665 -0.0926  0.6652 -0.4605
 5164TIP3    H136983   5.555   1.455  15.613  0.6881  1.3041  0.8320
 5164TIP3    H236984   5.448   1.529  15.690 -0.8621  0.4066 -0.3999
 5165TIP3   OH236985   3.949   0.168  14.873  0.0616 -0.0383 -0.2296
 5165TIP3    H136986   3.868   0.124  14.897  0.7182 -1.1665  0.0259
 5165TIP3    H236987   3.964   0.232  14.943 -0.4945  0.0277 -0.1701
 5166TIP3   OH236988   4.361   4.963  12.404 -0.3766 -0.1095 -0.1749
 5166TIP3    H136989   4.363   4.871  12.379  0.0775 -0.3535  0.7164
 5166TIP3    H236990   4.453   4.985  12.421 -0.6166  0.1152  0.9390
 5167TIP3   OH236991   4.480   1.090  12.171  0.1396  0.3774  0.6094
 5167TIP3    H136992   4.492   1.163  12.231  2.3487  2.1145 -1.6979
 5167TIP3    H236993   4.390   1.100  12.140 -0.0723  1.2205  1.4344
 5168TIP3   OH236994   0.674   1.560  12.460 -0.2319 -0.0100  0.6974
 5168TIP3    H136995   0.717   1.547  12.376  0.7094  0.7949  1.0350
 5168TIP3    H236996   0.728   1.625  12.505 -1.1636  0.1580  1.6083
 5169TIP3   OH236997   3.947   6.132   6.184 -0.6642  0.4131 -0.2749
 5169TIP3    H136998   3.871   6.148   6.240 -1.1836  0.1246 -0.8799
 5169TIP3    H236999   3.987   6.053   6.221  0.6413  1.7768  1.3821
 5170TIP3   OH237000   2.900   5.541  16.635 -0.5366  0.1598 -0.5823
 5170TIP3    H137001   2.927   5.556  16.544 -0.8130 -1.6505 -1.0158
 5170TIP3    H237002   2.804   5.540  16.630 -0.5406 -1.1708 -0.5259
 5171TIP3   OH237003   1.003   6.309   1.162 -0.0317 -0.3620 -0.3509
 5171TIP3    H137004   1.065   6.330   1.091  0.1955 -1.0926 -0.3736
 5171TIP3    H237005   1.050   6.246   1.216 -0.2545  0.0975  0.3909
 5172TIP3   OH237006   3.014   0.647   1.684  0.0253 -0.1251 -0.0223
 5172TIP3    H137007   3.030   0.708   1.613 -1.0683  1.6636  1.1794
 5172TIP3    H237008   3.011   0.561   1.642 -0.3440  0.8341 -2.0927
 5173TIP3   OH237009   5.105   1.866  13.153 -0.7493  0.2127  0.0170
 5173TIP3    H137010   5.124   1.927  13.082 -1.4830 -0.2180 -0.5660
 5173TIP3    H237011   5.009   1.861  13.155 -0.7559  0.5631  1.3370
 5174TIP3   OH237012   1.280   3.642  11.034 -0.1338  0.5390  0.3804
 5174TIP3    H137013   1.349   3.578  11.020  0.4706  1.6394 -2.3030
 5174TIP3    H237014   1.199   3.597  11.008  0.0621  0.3417  0.1129
 5175TIP3   OH237015   1.049   3.943  13.122 -0.3677 -0.2132  0.1908
 5175TIP3    H137016   1.024   4.024  13.079 -1.6073  0.0468  1.3193
 5175TIP3    H237017   1.144   3.943  13.121 -0.3621  0.6942 -0.8254
 5176TIP3   OH237018   5.084   5.670  13.760  0.1482 -0.0957  0.3436
 5176TIP3    H137019   5.086   5.609  13.686 -1.4223 -1.1118  1.0941
 5176TIP3    H237020   5.064   5.755  13.720 -0.9712 -0.6810 -0.3853
 5177TIP3   OH237021   5.867   6.449  14.600 -0.0659  0.0999 -0.1137
 5177TIP3    H137022   5.931   6.404  14.545  0.3509 -0.1053  0.5273
 5177TIP3    H237023   5.918   6.514  14.648 -0.2575 -0.3508  0.7147
 5178TIP3   OH237024   0.157   4.052  11.132  0.4257 -0.2984  0.6229
 5178TIP3    H137025   0.196   3.974  11.171 -0.9662 -0.4878  1.7303
 5178TIP3    H237026   0.079   4.020  11.087 -1.1437  0.5908  2.5455
 5179TIP3   OH237027   4.388   1.135   4.215 -0.8064  0.1396  0.1130
 5179TIP3    H137028   4.344   1.121   4.131  1.0474 -0.1453 -0.8775
 5179TIP3    H237029   4.415   1.047   4.243 -0.7342  0.3227  0.6328
 5180TIP3   OH237030   1.544   0.138   5.342 -0.7526  0.0136  0.1525
 5180TIP3    H137031   1.501   0.200   5.400 -0.8171  1.0173 -0.9337
 5180TIP3    H237032   1.472   0.095   5.296 -0.7039 -0.8146  0.8163
 5181TIP3   OH237033   0.053   0.899  13.932  0.6407  0.2726 -0.3550
 5181TIP3    H137034   0.128   0.873  13.877 -0.3875 -0.5545 -1.4098
 5181TIP3    H237035  -0.017   0.917  13.870 -0.7676 -1.3300  0.6969
 5182TIP3   OH237036   0.490   0.567  16.609  0.3658  0.0051  0.3906
 5182TIP3    H137037   0.568   0.514  16.624  0.0952 -0.5843 -0.2402
 5182TIP3    H237038   0.524   0.654  16.587  0.9517 -0.7072 -1.8348
 5183TIP3   OH237039   3.025   3.183   1.079 -0.3259  0.0078  0.1948
 5183TIP3    H137040   2.989   3.110   1.027  1.8743  0.3269 -1.9501
 5183TIP3    H237041   2.981   3.260   1.045  0.3645  0.1041 -0.5002
 5184TIP3   OH237042   1.369   1.827  17.239  0.1725  0.5835  0.3092
 5184TIP3    H137043   1.359   1.861  17.150  1.1011  0.6369  0.2225
 5184TIP3    H237044   1.322   1.891  17.293 -0.9522  0.2176 -0.1853
 5185TIP3   OH237045   2.067   0.036   3.690 -0.0874  0.1946  0.2855
 5185TIP3    H137046   2.022  -0.001   3.613 -0.1072  0.4769  0.1613
 5185TIP3    H237047   2.015   0.005   3.764 -0.3933  0.3776  0.1528
 5186TIP3   OH237048   4.320   3.241   0.641 -0.3311 -0.4956 -0.1793
 5186TIP3    H137049   4.261   3.166   0.643  0.6288 -1.3040 -1.1476
 5186TIP3    H237050   4.336   3.262   0.734 -1.6240 -0.6500  0.0932
 5187TIP3   OH237051   0.582   3.529   3.426 -0.4860 -0.3721 -0.1647
 5187TIP3    H137052   0.541   3.603   3.381  1.8794  1.4037  0.4521
 5187TIP3    H237053   0.648   3.497   3.364  0.2833 -0.2567  0.5733
 5188TIP3   OH237054   2.898   4.105   3.566 -0.7356  0.0141  0.1459
 5188TIP3    H137055   2.824   4.066   3.520 -0.5236 -0.6845  0.3828
 5188TIP3    H237056   2.859   4.148   3.642 -0.9649  0.2250 -0.0870
 5189TIP3   OH237057   4.291   2.479   3.616 -0.0671 -0.1631 -0.5036
 5189TIP3    H137058   4.219   2.437   3.663  1.0819 -0.1118  1.4208
 5189TIP3    H237059   4.249   2.547   3.563 -1.3476  0.8218  1.6296
 5190TIP3   OH237060   3.311   6.692  12.418  0.6617  0.6465  0.1423
 5190TIP3    H137061   3.326   6.708  12.325  1.9539  2.6489  0.6210
 5190TIP3    H237062   3.391   6.651  12.449  1.1644  1.9896  0.7386
 5191TIP3   OH237063   6.114   0.142   5.024 -0.2839 -0.2618 -0.1810
 5191TIP3    H137064   6.100   0.120   4.932 -2.0116 -3.1263  0.6656
 5191TIP3    H237065   6.188   0.089   5.051  0.0510  0.3723  0.1781
 5192TIP3   OH237066   5.109   6.758  13.491 -0.0803 -0.4661 -0.1542
 5192TIP3    H137067   5.079   6.680  13.446 -0.9329  1.5619 -3.4674
 5192TIP3    H237068   5.041   6.824  13.473  0.9948  1.2867  1.7477
 5193TIP3   OH237069   1.968   4.484   2.293  0.3888  0.4564 -0.0331
 5193TIP3    H137070   1.996   4.551   2.355 -0.3994  1.0890 -0.3538
 5193TIP3    H237071   1.942   4.410   2.349  0.7820  0.5972  0.3408
 5194TIP3   OH237072   1.194   3.799   0.541 -0.3533  0.9289 -0.5666
 5194TIP3    H137073   1.145   3.864   0.491 -1.0856  1.4187  0.7414
 5194TIP3    H237074   1.244   3.851   0.605 -0.6447  0.2434  0.2326
 5195TIP3   OH237075   4.792   5.899  10.527 -0.0162 -0.6538 -0.0119
 5195TIP3    H137076   4.709   5.865  10.492 -1.5233  0.6595  2.0339
 5195TIP3    H237077   4.822   5.961  10.460 -0.5952 -1.2583 -0.8605
 5196TIP3   OH237078   2.791   2.902  11.920 -0.4402 -0.1953  0.5358
 5196TIP3    H137079   2.815   2.848  11.845 -4.1514 -3.1296  1.1719
 5196TIP3    H237080   2.769   2.987  11.882  2.3711  0.0198 -0.9288
 5197TIP3   OH237081   4.447   6.204  15.610  0.3293 -0.6729  0.8250
 5197TIP3    H137082   4.525   6.156  15.581  0.3433 -0.3358  0.2999
 5197TIP3    H237083   4.395   6.216  15.531  0.3993  0.3136  0.9208
 5198TIP3   OH237084   2.441   1.958  14.137 -0.2186 -0.1362  0.4194
 5198TIP3    H137085   2.439   1.953  14.233 -0.0275 -1.6499  0.3690
 5198TIP3    H237086   2.352   1.983  14.113 -0.5631 -0.8084  0.9608
 5199TIP3   OH237087   4.745   5.363  13.063  0.2346 -0.4919 -0.7110
 5199TIP3    H137088   4.653   5.386  13.061  0.0573 -0.9729  0.9428
 5199TIP3    H237089   4.790   5.444  13.090  0.1331 -0.6750  0.0160
 5200TIP3   OH237090   5.913   1.957  15.138 -0.2533 -0.3169 -0.0318
 5200TIP3    H137091   5.982   1.968  15.072 -0.7313  1.7520 -0.2543
 5200TIP3    H237092   5.835   1.933  15.088 -0.0542 -1.2339  0.0744
 5201TIP3   OH237093   5.369   0.903   5.325  0.3080 -0.7047 -0.2479
 5201TIP3    H137094   5.450   0.869   5.287  0.2009 -0.2312 -0.9086
 5201TIP3    H237095   5.397   0.946   5.406  0.7251 -0.5361 -0.4792
 5202TIP3   OH237096   1.870   2.048  13.597  0.0495 -0.2225  0.0413
 5202TIP3    H137097   1.814   2.038  13.520  1.2748  0.0787 -0.9286
 5202TIP3    H237098   1.872   2.142  13.613 -0.0102 -0.2638  0.3024
 5203TIP3   OH237099   5.103   1.761  15.542 -0.3174  0.1020  0.2687
 5203TIP3    H137100   5.098   1.670  15.572  2.0461 -0.4423 -0.7586
 5203TIP3    H237101   5.029   1.771  15.483  0.2802 -1.7029 -0.8789
 5204TIP3   OH237102   4.757   2.812   4.802  0.6260  0.2458 -0.0752
 5204TIP3    H137103   4.801   2.728   4.792 -4.7054 -3.0190  0.5556
 5204TIP3    H237104   4.706   2.822   4.721 -2.9791 -0.0671  1.9842
 5205TIP3   OH237105   6.812   1.273  15.141  0.7981 -0.5612  0.1812
 5205TIP3    H137106   6.802   1.321  15.223 -0.9085 -1.2345  0.4000
 5205TIP3    H237107   6.734   1.219  15.134 -0.4068  1.2888 -3.0908
 5206TIP3   OH237108   4.540   4.754   2.632 -0.6136 -0.2609 -0.3282
 5206TIP3    H137109   4.576   4.799   2.708  0.4747  0.0286 -0.9917
 5206TIP3    H237110   4.617   4.721   2.585 -1.0467  1.8441 -2.7245
 5207TIP3   OH237111   2.663   0.582  10.649 -0.4371 -0.1149  0.3728
 5207TIP3    H137112   2.709   0.600  10.731  0.1151  0.6513 -0.0875
 5207TIP3    H237113   2.666   0.487  10.640 -0.3174 -0.1944  1.1308
 5208TIP3   OH237114   0.761   1.551   5.083  0.3182  0.0659 -0.2022
 5208TIP3    H137115   0.795   1.563   4.994 -1.0936  3.9040 -0.4187
 5208TIP3    H237116   0.837   1.565   5.140  0.8300 -0.3102 -0.7857
 5209TIP3   OH237117   1.876   5.393  12.567  0.2681 -0.7551 -0.1920
 5209TIP3    H137118   1.785   5.398  12.540  0.3195  1.5034 -0.0963
 5209TIP3    H237119   1.925   5.437  12.498  1.1183 -0.5901  0.4900
 5210TIP3   OH237120   4.648   1.526  14.669 -0.3949 -0.2760 -0.2911
 5210TIP3    H137121   4.668   1.444  14.714  1.2144 -0.4405 -1.2427
 5210TIP3    H237122   4.716   1.586  14.697 -1.2128  0.5816 -0.0809
 5211TIP3   OH237123   1.178   6.346   3.405  0.3178 -0.0437  0.5070
 5211TIP3    H137124   1.147   6.292   3.333 -0.2934  0.6646  0.2248
 5211TIP3    H237125   1.112   6.415   3.414 -0.5104 -1.0546  2.8494
 5212TIP3   OH237126   5.934   0.335  11.669 -0.1712  0.0992  0.2990
 5212TIP3    H137127   6.011   0.385  11.642 -0.8778  0.6246 -0.8224
 5212TIP3    H237128   5.896   0.304  11.586 -3.2905  3.0352  0.4491
 5213TIP3   OH237129   5.594   4.281  13.188  0.2402  0.5362 -0.2843
 5213TIP3    H137130   5.534   4.262  13.261  0.0825 -1.8350 -0.9245
 5213TIP3    H237131   5.544   4.338  13.130 -0.7394  0.0639  0.0685
 5214TIP3   OH237132   5.819   4.937  15.489 -0.7652  0.7686 -0.6164
 5214TIP3    H137133   5.771   5.001  15.437 -1.5027  1.1660  0.5008
 5214TIP3    H237134   5.763   4.859  15.488 -1.2529  1.0904  0.3340
 5215TIP3   OH237135   1.946   2.709   4.255  0.4440 -0.0476 -0.0834
 5215TIP3    H137136   1.873   2.679   4.201 -0.5248  1.8868  0.0695
 5215TIP3    H237137   2.012   2.737   4.192 -0.3274  1.3656 -0.3010
 5216TIP3   OH237138   1.756   0.099  14.909 -0.7764 -0.4801 -0.2311
 5216TIP3    H137139   1.699   0.173  14.888  0.6212  0.8655  0.5156
 5216TIP3    H237140   1.797   0.122  14.992  0.5176 -1.5958 -0.5051
 5217TIP3   OH237141   4.362   3.775  12.654  0.6868 -0.3826 -0.2682
 5217TIP3    H137142   4.388   3.792  12.564 -0.2580  0.6482 -0.3732
 5217TIP3    H237143   4.444   3.757  12.700  1.2408 -0.2642 -1.1927
 5218TIP3   OH237144   6.225   5.810  13.136  0.3348  0.1758 -0.0920
 5218TIP3    H137145   6.159   5.776  13.196  2.0935 -0.3122  1.6764
 5218TIP3    H237146   6.298   5.749  13.145  2.2346  2.3898  0.4571
 5219TIP3   OH237147   0.183   3.457  16.439  0.0520 -0.4471  0.0506
 5219TIP3    H137148   0.142   3.524  16.494  0.4255  0.5557 -0.8579
 5219TIP3    H237149   0.133   3.378  16.457 -1.0349  0.3003  0.4284
 5220TIP3   OH237150   1.712   5.898  14.420 -0.1100 -0.0633 -0.1853
 5220TIP3    H137151   1.735   5.906  14.512 -1.0164  1.2402 -0.0483
 5220TIP3    H237152   1.707   5.988  14.388 -2.3903 -0.3625 -0.8353
 5221TIP3   OH237153   3.472   6.313   1.215 -0.1078 -0.2755  0.1305
 5221TIP3    H137154   3.394   6.359   1.185  0.7715  1.3357  0.1878
 5221TIP3    H237155   3.545   6.362   1.177  0.9436 -0.1420  2.1643
 5222TIP3   OH237156   4.548   3.352  14.152 -0.0177 -0.0746 -0.4977
 5222TIP3    H137157   4.605   3.390  14.219 -1.5637 -0.4839  1.0890
 5222TIP3    H237158   4.585   3.265  14.135 -1.0334 -0.9968  1.7182
 5223TIP3   OH237159   3.094   4.111  13.302 -0.0927  0.0403 -0.2083
 5223TIP3    H137160   3.051   4.147  13.380 -2.3381 -0.0851 -1.3051
 5223TIP3    H237161   3.152   4.043  13.336 -0.7252  0.2507  1.3809
 5224TIP3   OH237162   0.799   0.142   5.288 -0.0646  0.5025  0.7563
 5224TIP3    H137163   0.733   0.101   5.345 -0.6107  1.0880  0.5508
 5224TIP3    H237164   0.748   0.183   5.218  0.6049 -0.3038 -0.2304
 5225TIP3   OH237165   2.937   3.546   2.269 -0.3925 -0.2059  0.0379
 5225TIP3    H137166   2.889   3.475   2.227 -0.6672 -0.2936  0.4952
 5225TIP3    H237167   2.974   3.596   2.196 -1.8985  0.3657 -0.3650
 5226TIP3   OH237168   0.854   0.696  13.790 -0.3745 -0.0824  0.0007
 5226TIP3    H137169   0.916   0.629  13.759  0.3881  1.3527 -1.7658
 5226TIP3    H237170   0.900   0.740  13.861 -0.1557 -0.2812 -0.0142
 5227TIP3   OH237171   2.696   5.395   3.094  0.4157 -0.1299 -0.2889
 5227TIP3    H137172   2.714   5.357   3.181  2.5682 -1.0408 -1.0649
 5227TIP3    H237173   2.733   5.483   3.099  1.5353 -0.5664 -0.5933
 5228TIP3   OH237174   4.656   3.945   5.300 -0.4510  0.2587  0.3580
 5228TIP3    H137175   4.684   3.882   5.366 -1.0016 -0.9455 -0.5200
 5228TIP3    H237176   4.732   3.957   5.244 -0.6319 -0.3899 -0.0374
 5229TIP3   OH237177   2.249   4.666  15.964 -0.0416 -0.4127 -0.5139
 5229TIP3    H137178   2.193   4.654  15.887 -1.7698 -4.4500  1.0772
 5229TIP3    H237179   2.195   4.714  16.027 -0.2600 -0.8654 -0.3517
 5230TIP3   OH237180   2.603   2.586   1.811  0.4708 -0.0207  0.2423
 5230TIP3    H137181   2.527   2.643   1.814  1.2816  1.2481 -1.4763
 5230TIP3    H237182   2.626   2.571   1.902 -1.8094 -0.4524  0.8004
 5231TIP3   OH237183   3.598   3.794  13.102 -0.1588 -0.3393  0.2555
 5231TIP3    H137184   3.597   3.722  13.039 -0.6847 -0.5359  0.4797
 5231TIP3    H237185   3.685   3.790  13.142  0.0784 -0.3882 -0.2547
 5232TIP3   OH237186   5.181   2.264   5.631  0.3285 -0.2025 -0.1697
 5232TIP3    H137187   5.109   2.254   5.693  0.7239 -1.2256  0.1516
 5232TIP3    H237188   5.148   2.324   5.564 -0.7186 -0.4465  0.1149
 5233TIP3   OH237189   3.043   6.118  14.076 -0.1978 -0.1839 -0.0658
 5233TIP3    H137190   3.081   6.126  14.163 -0.1560  1.8776 -0.2256
 5233TIP3    H237191   3.051   6.025  14.054  0.5536 -0.5852  1.7671
 5234TIP3   OH237192   2.959   2.009  13.316  0.7261 -0.0726  0.2205
 5234TIP3    H137193   2.888   2.054  13.270  1.5488 -0.1697 -1.2180
 5234TIP3    H237194   2.972   2.060  13.396  0.0462  0.8392 -0.2264
 5235TIP3   OH237195   5.154   2.013  17.102 -0.3342  0.2623  0.4210
 5235TIP3    H137196   5.175   1.924  17.132 -1.2623 -0.7721 -1.7758
 5235TIP3    H237197   5.060   2.021  17.116 -0.5615  0.2193 -0.9042
 5236TIP3   OH237198   2.582   6.295   0.631  0.4690 -0.7401 -0.2737
 5236TIP3    H137199   2.501   6.257   0.598 -0.9326  1.5713  0.2227
 5236TIP3    H237200   2.631   6.221   0.666 -0.9103 -2.3607 -1.5906
 5237TIP3   OH237201   0.985   3.314   0.835  0.3977  0.1492  0.4595
 5237TIP3    H137202   0.956   3.279   0.751  0.2691 -1.5534  1.1730
 5237TIP3    H237203   1.076   3.340   0.819  1.1249 -2.2431  0.3130
 5238TIP3   OH237204   3.967   2.409  12.966  0.1431  0.0973 -0.3912
 5238TIP3    H137205   3.950   2.490  13.015 -0.3476  0.1171 -0.5900
 5238TIP3    H237206   3.987   2.345  13.034 -0.4698  0.1427 -0.1576
 5239TIP3   OH237207   3.337   6.495   5.629 -0.1593  0.2337  0.1405
 5239TIP3    H137208   3.308   6.461   5.714 -1.5591  0.5785 -0.1768
 5239TIP3    H237209   3.258   6.532   5.590  0.5112  0.2585 -1.2355
 5240TIP3   OH237210   4.606   6.332   1.357 -0.1076  0.2414  0.0072
 5240TIP3    H137211   4.538   6.356   1.420 -1.1101 -1.3806 -0.3810
 5240TIP3    H237212   4.648   6.414   1.333 -1.5386  1.2106  0.7247
 5241TIP3   OH237213   1.867   1.149   6.098 -0.2462  0.0103  0.6916
 5241TIP3    H137214   1.784   1.155   6.145 -0.8188  0.2890 -0.3287
 5241TIP3    H237215   1.934   1.155   6.166 -1.0234  2.2574  1.3171
 5242TIP3   OH237216   4.775   4.475  14.377 -0.0028  0.5207 -0.4728
 5242TIP3    H137217   4.769   4.391  14.332  0.9281 -0.0348  0.3920
 5242TIP3    H237218   4.752   4.456  14.468  0.0676  1.2333 -0.2963
 5243TIP3   OH237219   1.523   2.218   2.720 -0.0494  0.4622 -0.3302
 5243TIP3    H137220   1.566   2.297   2.685  0.0118  0.3158 -0.5815
 5243TIP3    H237221   1.570   2.145   2.680  0.3499  0.2846  0.4350
 5244TIP3   OH237222   3.888   5.759  11.440  0.2515  0.2929 -0.5164
 5244TIP3    H137223   3.824   5.748  11.370 -1.3779  0.7526  0.8382
 5244TIP3    H237224   3.935   5.839  11.418 -0.6011  0.7163 -0.8187
 5245TIP3   OH237225   0.955   2.466   0.625  0.2863 -0.6997 -0.2492
 5245TIP3    H137226   0.887   2.459   0.692 -0.3950  0.3128 -0.7863
 5245TIP3    H237227   0.910   2.508   0.551  0.8889 -2.1917 -1.5161
 5246TIP3   OH237228   4.452   4.614  11.064 -0.6878 -0.0313 -0.2251
 5246TIP3    H137229   4.361   4.624  11.034 -1.5395 -1.6371  1.5882
 5246TIP3    H237230   4.473   4.697  11.105 -1.8127 -0.0506  0.4261
 5247TIP3   OH237231   2.390   3.039   0.768  0.2895  0.1259  0.1829
 5247TIP3    H137232   2.397   3.132   0.747 -0.7547 -0.0015 -0.7480
 5247TIP3    H237233   2.413   2.994   0.687 -0.0316 -0.4247  0.3960
 5248TIP3   OH237234   5.058   5.981  13.710 -0.4516 -0.2714 -0.1272
 5248TIP3    H137235   5.018   6.035  13.778 -1.3816 -3.5877  2.1519
 5248TIP3    H237236   5.150   5.973  13.736  0.3222  1.9545 -1.7898
 5249TIP3   OH237237   6.406   6.353   2.141  0.4973 -0.6502 -0.3591
 5249TIP3    H137238   6.466   6.341   2.067  2.6985  0.3751  1.1521
 5249TIP3    H237239   6.375   6.443   2.132 -0.6204 -1.0717 -0.9458
 5250TIP3   OH237240   6.064   3.227  10.717 -0.9798  0.4704  0.4583
 5250TIP3    H137241   6.072   3.322  10.708 -1.0817  0.3867 -0.6921
 5250TIP3    H237242   5.976   3.207  10.687 -1.7676  0.2217  2.7934
 5251TIP3   OH237243   2.349   1.185   3.149 -0.2521 -0.0256  0.4890
 5251TIP3    H137244   2.282   1.117   3.158  0.4983 -0.6756  1.3810
 5251TIP3    H237245   2.402   1.177   3.228  0.1410  1.2959  0.3786
 5252TIP3   OH237246   4.972   0.107   0.403  0.6599 -0.2309  0.3841
 5252TIP3    H137247   5.012   0.031   0.446  0.2819  0.1370  1.4258
 5252TIP3    H237248   4.881   0.106   0.433  0.0063 -0.7166 -1.4799
 5253TIP3   OH237249   0.700   5.452  11.676  0.2001 -0.1500  0.3901
 5253TIP3    H137250   0.667   5.453  11.766  0.2869  0.1796  0.4192
 5253TIP3    H237251   0.652   5.382  11.634  0.5758 -0.6925  0.8514
 5254TIP3   OH237252   1.709   3.484  12.064  1.1948 -0.0376 -0.2678
 5254TIP3    H137253   1.682   3.435  11.987  2.7158 -0.2069 -0.7101
 5254TIP3    H237254   1.785   3.437  12.098  0.7035  0.1725  1.2055
 5255TIP3   OH237255   5.579   3.957  11.442 -0.6084 -0.1275 -0.1429
 5255TIP3    H137256   5.635   3.959  11.520 -0.8786 -0.9475  0.0891
 5255TIP3    H237257   5.601   3.874  11.400 -0.1372  0.5183 -1.1997
 5256TIP3   OH237258   3.282   0.194   0.947 -0.2191 -0.5157  0.5109
 5256TIP3    H137259   3.202   0.142   0.948 -0.3141 -0.5548  3.7979
 5256TIP3    H237260   3.352   0.129   0.961  0.2180 -0.2675 -0.4301
 5257TIP3   OH237261   4.204   2.263   4.564 -0.3222  0.4025  0.6801
 5257TIP3    H137262   4.249   2.340   4.599 -2.0330  2.2364 -0.8844
 5257TIP3    H237263   4.141   2.299   4.502 -2.0904 -2.2130  0.8207
 5258TIP3   OH237264   2.135   4.429  10.369 -0.1581  0.2806  0.1331
 5258TIP3    H137265   2.070   4.401  10.434 -0.5789 -0.7506 -0.6937
 5258TIP3    H237266   2.086   4.486  10.310 -0.9342 -2.0467 -1.6514
 5259TIP3   OH237267   4.020   3.880   2.860  0.5308  0.0877 -0.0405
 5259TIP3    H137268   4.081   3.927   2.803  1.4356  0.0706  0.8905
 5259TIP3    H237269   3.977   3.817   2.801  0.1786  1.2306 -1.0512
 5260TIP3   OH237270   0.227   0.713  16.668  0.3989 -0.9451  0.9885
 5260TIP3    H137271   0.221   0.733  16.762  2.1249 -1.4498  1.2376
 5260TIP3    H237272   0.226   0.617  16.665 -0.7811 -0.9260  0.3796
 5261TIP3   OH237273   4.264   5.468  15.640  0.2484 -0.1138  0.0199
 5261TIP3    H137274   4.284   5.411  15.566  1.7857 -0.9503  1.0125
 5261TIP3    H237275   4.170   5.460  15.652  0.2018 -1.1924 -0.8831
 5262TIP3   OH237276   1.346   5.160   2.357  1.2196 -0.2488  0.4793
 5262TIP3    H137277   1.382   5.228   2.300 -0.7905 -0.6589 -1.3927
 5262TIP3    H237278   1.397   5.082   2.337  1.2861 -0.1090  0.1033
 5263TIP3   OH237279   3.059   3.603  16.548  0.2756  0.0904  0.1532
 5263TIP3    H137280   3.033   3.689  16.516 -2.4428 -1.1629 -1.3194
 5263TIP3    H237281   3.009   3.591  16.629 -0.8298 -0.8121 -0.6443
 5264TIP3   OH237282   3.962   5.650   0.854 -0.2088  0.7986 -0.3226
 5264TIP3    H137283   4.048   5.643   0.895 -1.0729  1.8898  1.8513
 5264TIP3    H237284   3.903   5.608   0.916 -1.4533  1.6063 -0.9246
 5265TIP3   OH237285   0.187   0.118  12.371  0.6510  0.4370 -0.1273
 5265TIP3    H137286   0.187   0.178  12.297  0.6711 -0.9544 -1.3196
 5265TIP3    H237287   0.202   0.173  12.447  1.1615  1.8635 -1.2094
 5266TIP3   OH237288   3.393   4.034  11.123  0.3222 -0.2479 -0.2449
 5266TIP3    H137289   3.301   4.014  11.109  0.1164  0.2352  0.3539
 5266TIP3    H237290   3.430   3.954  11.161  0.0116 -0.2531  0.0554
 5267TIP3   OH237291   1.500   1.377   2.414  0.1079 -0.1030  0.4440
 5267TIP3    H137292   1.587   1.339   2.406 -0.2269 -1.1154  1.2571
 5267TIP3    H237293   1.467   1.343   2.498 -0.1276  2.2197  1.3663
 5268TIP3   OH237294   2.136   3.669  16.937  0.2937  0.1582  0.0791
 5268TIP3    H137295   2.160   3.673  16.844  1.0981 -0.2976  0.2639
 5268TIP3    H237296   2.118   3.576  16.953 -1.0341  0.3982  0.0965
 5269TIP3   OH237297   1.633   3.095   0.016 -0.4269 -0.5468 -0.2271
 5269TIP3    H137298   1.721   3.057   0.016 -0.8252 -1.5031 -0.4038
 5269TIP3    H237299   1.642   3.178   0.063  0.1896 -1.5631  1.5532
 5270TIP3   OH237300   4.617   5.362   0.060 -0.4719 -0.3180  0.4903
 5270TIP3    H137301   4.709   5.367   0.035 -0.6714  0.7919 -0.0760
 5270TIP3    H237302   4.570   5.409  -0.010 -1.3422  0.1493  1.3564
 5271TIP3   OH237303   5.816   3.115  15.332  0.5534  0.1290  0.0521
 5271TIP3    H137304   5.729   3.079  15.314  0.9162 -0.3107 -0.8892
 5271TIP3    H237305   5.839   3.081  15.418 -0.3494  0.5418  0.4746
 5272TIP3   OH237306   3.221   3.625  11.641  0.1449 -0.4065  0.2432
 5272TIP3    H137307   3.287   3.559  11.661 -0.3630 -0.8929  0.3294
 5272TIP3    H237308   3.165   3.584  11.576 -0.1523 -0.0383  0.2619
 5273TIP3   OH237309   4.028   3.551  10.774 -0.5136  0.1008  0.2565
 5273TIP3    H137310   4.036   3.610  10.849  0.7373  0.9759 -0.5333
 5273TIP3    H237311   4.100   3.575  10.716  0.7772 -2.9747  0.3921
 5274TIP3   OH237312   4.994   4.145  16.156  0.9919 -0.0664 -0.4691
 5274TIP3    H137313   5.026   4.143  16.246 -1.6888 -0.8768  0.5853
 5274TIP3    H237314   5.066   4.110  16.103  2.3411 -0.3505  1.4560
 5275TIP3   OH237315   3.699   3.443  12.236  0.3966 -0.7372  0.0565
 5275TIP3    H137316   3.683   3.536  12.253 -1.5454 -1.1176  0.4817
 5275TIP3    H237317   3.638   3.396  12.293 -0.2730 -2.2191 -1.7665
 5276TIP3   OH237318   5.105   5.038  11.161 -0.0974  0.2743  0.0601
 5276TIP3    H137319   5.034   5.059  11.101 -0.2548 -1.3336 -0.3562
 5276TIP3    H237320   5.153   4.968  11.117  0.5744 -0.0060  1.2167
 5277TIP3   OH237321   2.423   0.340  15.938  0.2822  0.7115  0.1463
 5277TIP3    H137322   2.472   0.259  15.952 -1.0559  0.1191  1.6265
 5277TIP3    H237323   2.335   0.321  15.969 -0.7966  1.9274 -1.9216
 5278TIP3   OH237324   0.879   1.116   0.120  0.2905  0.2493 -0.3546
 5278TIP3    H137325   0.972   1.139   0.127  0.4415 -0.7198  1.1439
 5278TIP3    H237326   0.834   1.184   0.170  0.1979  0.6009 -0.9066
 5279TIP3   OH237327   2.726   6.100   0.787  0.1596 -1.1013 -0.1991
 5279TIP3    H137328   2.751   6.033   0.850  1.9535 -1.3584 -1.1109
 5279TIP3    H237329   2.803   6.110   0.731 -0.9322 -0.0049 -1.5816
 5280TIP3   OH237330   2.629   2.328   0.024  0.0744 -0.6490  0.2331
 5280TIP3    H137331   2.724   2.318   0.015  0.0303 -0.9742  0.1229
 5280TIP3    H237332   2.593   2.242   0.002 -0.1392 -1.0185  1.8752
 5281TIP3   OH237333   4.580   2.978   2.054 -0.2530  0.0907 -0.8295
 5281TIP3    H137334   4.667   2.957   2.019  1.5314  2.0910  1.9671
 5281TIP3    H237335   4.557   3.062   2.013 -0.4524  0.0012 -0.9017
 5282TIP3   OH237336   3.277   0.205  11.684 -0.8969 -0.5901  0.0857
 5282TIP3    H137337   3.236   0.278  11.637  1.1881  0.2926 -0.4619
 5282TIP3    H237338   3.288   0.137  11.618  0.4986  0.0204 -0.3481
 5283TIP3   OH237339   2.788   1.809  15.703  0.0488 -0.4510 -0.2558
 5283TIP3    H137340   2.880   1.784  15.706  0.5245  1.2718  1.2629
 5283TIP3    H237341   2.789   1.903  15.685 -1.1107  0.6016  3.9810
 5284TIP3   OH237342   2.216   2.582   6.067 -0.2843  0.0948 -0.3993
 5284TIP3    H137343   2.261   2.628   6.138  0.4665 -0.7812 -0.2756
 5284TIP3    H237344   2.185   2.501   6.108 -1.2830  0.3206 -0.6901
 5285TIP3   OH237345   3.265   3.990  14.182 -0.1305 -0.0851  0.1273
 5285TIP3    H137346   3.324   4.007  14.109  0.4686 -1.9197  0.1217
 5285TIP3    H237347   3.180   4.022  14.154  0.3877  0.5254 -0.7812
 5286TIP3   OH237348   6.463   6.349   2.406  0.2517  0.5770  0.0322
 5286TIP3    H137349   6.495   6.260   2.407  0.6981  0.7263 -0.8435
 5286TIP3    H237350   6.452   6.371   2.314  0.9651  1.7165  0.1936
 5287TIP3   OH237351   3.797   1.204   4.544  0.2232 -0.3434 -0.4218
 5287TIP3    H137352   3.723   1.159   4.503  0.4418 -0.6950 -0.4362
 5287TIP3    H237353   3.768   1.223   4.633  0.7676 -2.1273  0.1696
 5288TIP3   OH237354   0.263   4.518  13.277 -0.3769  0.0599 -0.1114
 5288TIP3    H137355   0.313   4.511  13.358 -0.8888 -0.7485  0.1523
 5288TIP3    H237356   0.276   4.434  13.233 -1.1573 -0.0097 -0.2304
 5289TIP3   OH237357   5.742   1.005   6.490 -0.6366 -0.3720 -0.0061
 5289TIP3    H137358   5.833   0.998   6.460 -1.3159 -0.9833 -2.1426
 5289TIP3    H237359   5.731   0.933   6.552  0.1761 -0.6651 -0.1887
 5290TIP3   OH237360   2.899   4.924  10.750 -0.3961 -0.2960  0.0499
 5290TIP3    H137361   2.984   4.879  10.751 -0.4295 -0.4982 -1.9657
 5290TIP3    H237362   2.921   5.016  10.762 -0.0831 -0.5482  1.5188
 5291TIP3   OH237363   5.161   1.720   4.688  0.1758 -0.5301 -0.3041
 5291TIP3    H137364   5.144   1.792   4.748 -1.7435 -1.4384  0.3107
 5291TIP3    H237365   5.209   1.656   4.741  1.6213  0.1252 -0.7696
 5292TIP3   OH237366   0.736   5.651   5.131  0.5371 -0.0006 -0.0536
 5292TIP3    H137367   0.731   5.621   5.221  2.2683  1.3950  0.5635
 5292TIP3    H237368   0.796   5.589   5.088  0.5238 -0.0667  0.0236
 5293TIP3   OH237369   1.431   2.418  16.236 -0.2000 -0.4526 -1.0769
 5293TIP3    H137370   1.437   2.323  16.222 -0.6462 -0.6697  0.0314
 5293TIP3    H237371   1.444   2.428  16.331  1.1961  0.7279 -1.3522
 5294TIP3   OH237372   0.399   0.797  15.654  0.2093 -0.3536  0.0008
 5294TIP3    H137373   0.320   0.848  15.672  0.7223 -0.2926  2.3933
 5294TIP3    H237374   0.466   0.863  15.635  0.1568 -0.2860  0.0467
 5295TIP3   OH237375   5.908   0.369   1.547  0.0832  0.2627  0.1260
 5295TIP3    H137376   5.975   0.372   1.615  0.6178 -1.6795 -0.2459
 5295TIP3    H237377   5.850   0.443   1.566  1.1400  0.7146  1.7103
 5296TIP3   OH237378   1.162   5.464  12.564 -0.5398 -0.3267  0.3586
 5296TIP3    H137379   1.238   5.460  12.507  0.3506  0.2085  1.4802
 5296TIP3    H237380   1.108   5.389  12.537  0.0396 -0.3209 -0.8876
 5297TIP3   OH237381   0.684   6.634  11.267  0.4818  0.2247 -0.6602
 5297TIP3    H137382   0.647   6.720  11.250  1.8168  1.6049  2.6289
 5297TIP3    H237383   0.769   6.651  11.306 -0.3176 -2.4078  2.6943
 5298TIP3   OH237384   0.068   3.887   1.219  0.1371 -0.2645 -0.1726
 5298TIP3    H137385   0.014   3.831   1.163  0.4032 -1.1448  0.4195
 5298TIP3    H237386   0.069   3.971   1.175  0.1399 -0.8633 -1.3648
 5299TIP3   OH237387   0.882   3.524   5.493 -0.1894 -0.0220 -0.1196
 5299TIP3    H137388   0.938   3.514   5.416 -0.6420  0.8138 -0.5752
 5299TIP3    H237389   0.846   3.436   5.509 -0.1241 -0.1895 -0.8869
 5300TIP3   OH237390   6.307   6.243   2.924  1.2929 -0.4047 -0.2329
 5300TIP3    H137391   6.300   6.203   2.838 -0.9510 -0.0213 -0.2851
 5300TIP3    H237392   6.288   6.172   2.985  1.2014 -0.2960 -0.1341
 5301TIP3   OH237393   2.375   1.790  16.279  0.0920  0.0852  0.6373
 5301TIP3    H137394   2.410   1.879  16.278  1.3817 -0.4104  0.6224
 5301TIP3    H237395   2.313   1.790  16.352 -0.8481  1.3203 -0.1137
 5302TIP3   OH237396   6.568   4.006  12.379 -0.4578  0.1547 -0.4714
 5302TIP3    H137397   6.551   3.948  12.305  0.3748 -0.6039 -0.0828
 5302TIP3    H237398   6.621   4.076  12.344 -1.0937  0.4557 -0.8498
 5303TIP3   OH237399   5.983   5.504  13.434 -0.0449  0.4055 -0.2190
 5303TIP3    H137400   6.053   5.491  13.371 -0.1443  0.1748 -0.2857
 5303TIP3    H237401   6.019   5.472  13.517 -0.0436  0.3644 -0.2359
 5304TIP3   OH237402   5.625   1.245  13.099  0.0023  0.3537 -0.4719
 5304TIP3    H137403   5.535   1.278  13.094 -0.7474 -1.5415 -0.2244
 5304TIP3    H237404   5.676   1.306  13.045 -1.5804  0.9335 -1.3726
 5305TIP3   OH237405   0.645   2.429   2.420  0.3833  0.2561  0.8277
 5305TIP3    H137406   0.623   2.520   2.402 -0.9924  0.5197  3.4140
 5305TIP3    H237407   0.612   2.413   2.508 -0.0048 -2.9620  0.2224
 5306TIP3   OH237408   2.897   6.580  14.304  0.1969 -0.3849 -0.0984
 5306TIP3    H137409   2.889   6.621  14.217 -2.4700  2.2019  1.1823
 5306TIP3    H237410   2.928   6.650  14.361 -2.0996 -0.7455  1.7455
 5307TIP3   OH237411   0.486   0.811   5.420  0.8418 -0.1499 -0.3451
 5307TIP3    H137412   0.466   0.741   5.357  1.7959 -0.2706 -0.5196
 5307TIP3    H237413   0.578   0.833   5.404  0.7319  0.7151  0.1361
 5308TIP3   OH237414   5.499   3.582   0.328 -0.4348  0.2574 -0.0928
 5308TIP3    H137415   5.407   3.554   0.331 -0.2735 -0.5227 -1.4769
 5308TIP3    H237416   5.548   3.504   0.354 -0.0996  0.0268 -1.3302
 5309TIP3   OH237417   6.344   6.225   5.740  0.1597  0.2480  0.0288
 5309TIP3    H137418   6.282   6.192   5.805 -0.0295  0.8588  0.1642
 5309TIP3    H237419   6.402   6.150   5.723 -1.4863 -0.8172 -1.2023
 5310TIP3   OH237420   6.638   0.041   4.491 -0.2207  0.5421  0.4026
 5310TIP3    H137421   6.681   0.126   4.484 -0.6378  0.6435 -1.3734
 5310TIP3    H237422   6.615   0.018   4.401 -3.6586  0.3661  1.1898
 5311TIP3   OH237423   1.158   0.514   1.870 -0.0908 -0.1490 -0.0481
 5311TIP3    H137424   1.170   0.543   1.961 -1.7142  1.7956 -0.4063
 5311TIP3    H237425   1.112   0.586   1.827  1.0013 -0.8339 -2.5589
 5312TIP3   OH237426   3.487   6.055  16.111 -0.3030  0.1882 -0.1457
 5312TIP3    H137427   3.418   6.119  16.133 -0.2124  0.0074  0.7012
 5312TIP3    H237428   3.439   5.981  16.074 -0.5848  0.0173  0.5424
 5313TIP3   OH237429   0.139   6.815  12.075  0.3286 -0.6708 -0.8929
 5313TIP3    H137430   0.169   6.869  12.003  1.0467 -0.7694 -0.6793
 5313TIP3    H237431   0.100   6.876  12.137 -0.0723 -0.5599 -1.2511
 5314TIP3   OH237432   0.734   3.954  14.421 -0.0399 -0.0199  0.0597
 5314TIP3    H137433   0.797   3.994  14.481 -1.3512  3.1381 -0.4631
 5314TIP3    H237434   0.653   3.950  14.472 -0.2362 -0.9006 -0.3158
 5315TIP3   OH237435   1.908   3.323   0.108 -0.4358 -0.4663 -0.0893
 5315TIP3    H137436   1.817   3.312   0.135 -0.6594 -1.9780 -1.3198
 5315TIP3    H237437   1.958   3.305   0.188 -1.1836 -0.4543  0.4009
 5316TIP3   OH237438   2.950   1.805  12.295 -0.5780  0.2748 -0.1617
 5316TIP3    H137439   2.975   1.895  12.316  0.3837 -0.1153  0.4561
 5316TIP3    H237440   3.030   1.754  12.310 -0.9281 -0.5935 -1.1113
 5317TIP3   OH237441   5.026   3.267  11.959 -0.2064  0.2686 -0.1634
 5317TIP3    H137442   4.962   3.264  12.030  0.2477  1.3445  0.3157
 5317TIP3    H237443   5.078   3.346  11.977  0.0555  0.4379 -1.5637
 5318TIP3   OH237444   1.841   5.693   0.252  0.2582 -0.2901 -0.2875
 5318TIP3    H137445   1.777   5.685   0.322  0.1578  1.3273 -0.1601
 5318TIP3    H237446   1.795   5.741   0.183  0.3956 -1.7309 -1.4346
 5319TIP3   OH237447   2.667   6.376   6.116  0.2252 -0.7349 -0.1157
 5319TIP3    H137448   2.747   6.345   6.160  0.0182  0.2437  0.9684
 5319TIP3    H237449   2.695   6.454   6.068 -0.0456 -0.5055  0.1017
 5320TIP3   OH237450   1.387   0.679  11.510 -0.4644 -0.4106  0.6230
 5320TIP3    H137451   1.463   0.726  11.476 -0.5841 -0.3494  0.4352
 5320TIP3    H237452   1.328   0.747  11.543 -0.8384 -0.3863 -0.0612
 5321TIP3   OH237453   2.920   2.430  14.696 -0.2824  0.0380  0.4057
 5321TIP3    H137454   2.965   2.400  14.617 -0.5233  0.5574  0.0644
 5321TIP3    H237455   2.901   2.523  14.679 -0.0744  0.2307  1.1997
 5322TIP3   OH237456   2.923   0.487  13.040 -0.3870  0.0958 -0.3021
 5322TIP3    H137457   2.977   0.557  13.003 -1.0019  1.1268  0.6788
 5322TIP3    H237458   2.931   0.499  13.134 -2.3005  0.2697 -0.1359
 5323TIP3   OH237459   0.132   5.409  16.006 -0.5723  0.1014  0.2313
 5323TIP3    H137460   0.068   5.424  16.075 -0.2246 -0.1898  0.6267
 5323TIP3    H237461   0.212   5.385  16.053 -0.4323 -0.4680 -0.2878
 5324TIP3   OH237462   0.928   1.596  15.348 -0.3833  0.1322  0.1046
 5324TIP3    H137463   0.842   1.558  15.329 -0.7872  0.8581  0.4265
 5324TIP3    H237464   0.976   1.526  15.392 -0.3503 -0.7090 -1.2070
 5325TIP3   OH237465   1.734   6.658  17.248 -0.1198  0.0684  0.2111
 5325TIP3    H137466   1.700   6.593  17.187  1.8291  0.1529 -1.0558
 5325TIP3    H237467   1.828   6.643  17.250  0.0553  1.0794  2.0436
 5326TIP3   OH237468   4.741   4.776   3.336  0.6409  0.1822  1.4845
 5326TIP3    H137469   4.728   4.686   3.307  0.1895  0.6722  0.0806
 5326TIP3    H237470   4.653   4.808   3.356  0.8164  0.2652  2.1409
 5327TIP3   OH237471   6.152   2.658   0.011 -0.1939  0.1049 -0.3972
 5327TIP3    H137472   6.185   2.616   0.090 -1.5477 -0.9956 -0.3753
 5327TIP3    H237473   6.061   2.628   0.005  0.2677 -1.0221 -3.1450
 5328TIP3   OH237474   2.925   0.483  14.941  0.1622 -0.3866 -0.0218
 5328TIP3    H137475   2.878   0.495  14.858 -0.8542 -1.2261  0.4014
 5328TIP3    H237476   3.013   0.516  14.925 -0.0138 -0.5698 -1.4454
 5329TIP3   OH237477   5.947   0.404   4.606 -0.3360 -0.5237 -0.0788
 5329TIP3    H137478   5.888   0.403   4.681 -0.2939  0.1996 -0.0326
 5329TIP3    H237479   5.894   0.439   4.534 -0.8552 -2.6420 -0.8087
 5330TIP3   OH237480   4.365   4.893  16.028 -0.5769  0.0046 -0.4047
 5330TIP3    H137481   4.346   4.914  16.120 -0.9998 -1.6550 -0.0787
 5330TIP3    H237482   4.282   4.858  15.994 -0.2184 -0.0800 -1.2145
 5331TIP3   OH237483   1.259   0.619   5.956  0.2721  0.6634  0.0018
 5331TIP3    H137484   1.331   0.570   5.994  0.9967  2.0429  0.4936
 5331TIP3    H237485   1.195   0.553   5.929  1.6306 -0.5752 -0.2700
 5332TIP3   OH237486   5.865   0.529  12.484  0.0843 -0.4592 -0.2870
 5332TIP3    H137487   5.811   0.606  12.503 -1.7205 -0.9383 -2.9043
 5332TIP3    H237488   5.952   0.551  12.520 -1.0533  1.6023  1.4358
 5333TIP3   OH237489   6.805   5.276   1.421 -0.2430  0.6594  0.2896
 5333TIP3    H137490   6.837   5.328   1.347 -0.4773 -0.6450 -0.7657
 5333TIP3    H237491   6.751   5.337   1.471 -1.3130  1.2075 -1.4438
 5334TIP3   OH237492   5.433   5.379  15.443  0.1214 -0.1123 -0.5292
 5334TIP3    H137493   5.366   5.318  15.413 -1.0747  0.6915  0.3828
 5334TIP3    H237494   5.443   5.358  15.536 -0.5853  1.3031 -0.1157
 5335TIP3   OH237495   5.869   1.007  11.180 -0.0312  0.7574 -0.0901
 5335TIP3    H137496   5.890   0.937  11.242  1.2369  0.5149 -0.7464
 5335TIP3    H237497   5.785   0.982  11.143 -0.0174  0.0465  0.3367
 5336TIP3   OH237498   1.305   1.059  16.046 -0.2084  0.0184 -0.0806
 5336TIP3    H137499   1.233   0.997  16.035  0.7796 -0.9917 -1.0445
 5336TIP3    H237500   1.379   1.020  15.999  0.5894  1.6898 -0.3148
 5337TIP3   OH237501   1.584   2.345  14.967 -0.1270 -0.0598  0.0377
 5337TIP3    H137502   1.613   2.258  14.993  2.3833  1.2651  2.1953
 5337TIP3    H237503   1.585   2.396  15.049  0.1168  2.3966 -1.3795
 5338TIP3   OH237504   2.713   4.958  13.768 -0.3509 -0.5800  0.2119
 5338TIP3    H137505   2.631   5.006  13.782  0.6309  1.7894 -1.5748
 5338TIP3    H237506   2.698   4.908  13.688 -0.0208 -0.0493 -0.1837
 5339TIP3   OH237507   4.642   4.458   2.688 -0.0950  0.1516  0.3505
 5339TIP3    H137508   4.714   4.464   2.751  2.3621 -1.1664 -2.1243
 5339TIP3    H237509   4.602   4.373   2.705 -1.7986  1.2310  2.2929
 5340TIP3   OH237510   2.989   2.535   5.468  0.0259 -0.2844 -0.3549
 5340TIP3    H137511   2.976   2.612   5.523  1.3039 -0.4942  0.2716
 5340TIP3    H237512   2.922   2.543   5.400 -1.0127  0.4314  0.7256
 5341TIP3   OH237513   5.849   2.139  11.054  0.1899 -0.2641  0.0633
 5341TIP3    H137514   5.789   2.186  10.996  0.6208 -0.0751 -0.2262
 5341TIP3    H237515   5.934   2.181  11.041  0.3675 -0.4683  0.5489
 5342TIP3   OH237516   2.611   3.980  16.371  1.1376  0.0105  0.4237
 5342TIP3    H137517   2.574   4.061  16.335 -0.3150 -2.0268 -3.2366
 5342TIP3    H237518   2.537   3.937  16.414  2.1198  0.9279  3.1968
 5343TIP3   OH237519   0.421   5.367  15.970 -0.3603 -0.5957 -0.1405
 5343TIP3    H137520   0.491   5.328  16.023 -1.6036 -1.0191  1.2540
 5343TIP3    H237521   0.430   5.325  15.884 -0.2970 -2.3505  0.6766
 5344TIP3   OH237522   0.778   3.674  13.151 -0.0427 -0.9810 -0.2273
 5344TIP3    H137523   0.683   3.667  13.160 -0.0754  0.9833  2.0926
 5344TIP3    H237524   0.795   3.768  13.144  1.6557 -1.3610 -2.9836
 5345TIP3   OH237525   6.322   5.360   2.107  0.1149 -0.1565  0.6701
 5345TIP3    H137526   6.356   5.289   2.054 -1.4212 -1.2017  1.0086
 5345TIP3    H237527   6.300   5.429   2.044  0.1387 -0.6063  0.1635
 5346TIP3   OH237528   0.403   6.747   5.374 -0.0384 -0.3795 -0.0537
 5346TIP3    H137529   0.405   6.712   5.285  2.5787 -0.5029 -0.0172
 5346TIP3    H237530   0.317   6.721   5.408 -0.8362 -0.8986 -2.2890
 5347TIP3   OH237531   4.031   2.476  15.682  0.5466 -0.3705  0.4082
 5347TIP3    H137532   4.099   2.533  15.718  0.4422  2.3266 -3.0935
 5347TIP3    H237533   4.080   2.410  15.632  0.7701  1.2640 -1.6860
 5348TIP3   OH237534   0.024   5.625  12.804  0.4214 -0.2315  0.5523
 5348TIP3    H137535   0.068   5.545  12.774  0.4302  0.3534 -1.0743
 5348TIP3    H237536  -0.069   5.602  12.804  0.5053 -0.6264  1.3690
 5349TIP3   OH237537   4.791   1.140   5.247 -0.0618 -0.4080  0.4125
 5349TIP3    H137538   4.838   1.066   5.288  1.5265  1.2764  1.8175
 5349TIP3    H237539   4.701   1.128   5.275  0.0370 -2.0911  0.1617
 5350TIP3   OH237540   5.494   6.277   2.105 -0.2279  0.1306 -0.4262
 5350TIP3    H137541   5.481   6.275   2.200 -0.1311 -1.0988 -0.4184
 5350TIP3    H237542   5.472   6.188   2.076 -0.6463  0.6048 -1.6127
 5351TIP3   OH237543   2.035   0.093  15.803  0.8079 -0.4295  0.8485
 5351TIP3    H137544   2.100   0.141  15.753  1.0720  0.4751  2.0267
 5351TIP3    H237545   2.065   0.002  15.800  1.5814 -0.1740  0.5558
 5352TIP3   OH237546   2.569   4.800   0.056  0.3954  0.6188  0.0538
 5352TIP3    H137547   2.499   4.739   0.079 -0.2074  1.5807  0.8654
 5352TIP3    H237548   2.647   4.745   0.048 -0.4416 -0.4928 -0.9554
 5353TIP3   OH237549   0.836   4.474  16.077 -0.3508 -0.0824 -0.5161
 5353TIP3    H137550   0.761   4.415  16.086  0.7272 -1.5967 -1.0356
 5353TIP3    H237551   0.902   4.438  16.136 -0.3739  1.8451  0.7312
 5354TIP3   OH237552   3.585   5.004  12.175 -0.5981 -0.5221 -0.1111
 5354TIP3    H137553   3.552   4.915  12.181 -0.5332 -0.5457 -0.1107
 5354TIP3    H237554   3.515   5.053  12.132 -1.7673 -0.0128  2.1694
 5355TIP3   OH237555   4.995   2.425   1.018 -0.0823  0.2511 -0.2348
 5355TIP3    H137556   4.921   2.470   1.060  0.2406  0.8695 -0.3284
 5355TIP3    H237557   5.057   2.495   0.997  0.8203 -0.3416  0.4237
 5356TIP3   OH237558   4.760   1.219   2.813  0.3751  0.3469 -0.2129
 5356TIP3    H137559   4.816   1.292   2.788 -0.4840  1.5972  1.3317
 5356TIP3    H237560   4.744   1.172   2.731  2.1073  1.0218 -1.0026
 5357TIP3   OH237561   0.901   2.486  16.279 -0.0535 -0.6156  0.3534
 5357TIP3    H137562   0.939   2.523  16.199 -1.5209 -2.0139 -1.0475
 5357TIP3    H237563   0.928   2.395  16.279 -0.3271 -0.7086  1.3050
 5358TIP3   OH237564   5.890   3.744   0.241 -0.0251  0.2695  0.0747
 5358TIP3    H137565   5.934   3.677   0.189 -0.1994 -0.2308  0.5664
 5358TIP3    H237566   5.914   3.827   0.199  0.1064 -0.1068 -0.5994
 5359TIP3   OH237567   1.411   6.222  14.947  0.2069  0.0224 -0.0390
 5359TIP3    H137568   1.398   6.134  14.983  0.9814 -0.1768 -0.2256
 5359TIP3    H237569   1.469   6.266  15.009  1.0405 -0.1122 -0.6970
 5360TIP3   OH237570   3.167   3.611   4.900  0.0172 -0.2860  0.4993
 5360TIP3    H137571   3.139   3.523   4.875  0.1463 -0.4100  0.7933
 5360TIP3    H237572   3.261   3.604   4.916 -0.2444 -0.4832  2.1571
 5361TIP3   OH237573   3.838   4.706   2.708 -0.0404  0.2416 -0.1591
 5361TIP3    H137574   3.888   4.701   2.626  0.0385 -0.6358 -0.0674
 5361TIP3    H237575   3.812   4.798   2.714 -0.1287  0.3046 -1.2183
 5362TIP3   OH237576   1.952   3.948  16.166 -0.1663 -0.3436 -0.1109
 5362TIP3    H137577   1.907   3.919  16.086 -1.6682 -1.5563  1.1029
 5362TIP3    H237578   2.019   3.881  16.181  1.5757  0.9953 -1.4329
 5363TIP3   OH237579   0.364   5.212   3.961  0.3803 -0.4281  0.4408
 5363TIP3    H137580   0.351   5.142   4.025  1.0947 -0.0347  1.0397
 5363TIP3    H237581   0.275   5.241   3.939  0.1147 -0.5289  1.3170
 5364TIP3   OH237582   2.105   5.583  15.242 -0.2393 -0.5377  0.6720
 5364TIP3    H137583   2.039   5.514  15.238  0.5019 -1.2101 -0.4556
 5364TIP3    H237584   2.188   5.536  15.251  0.2147  0.2416  0.6615
 5365TIP3   OH237585   1.683   3.191  12.216  0.4870  0.0379  0.0364
 5365TIP3    H137586   1.647   3.238  12.141  0.6128 -0.4114 -0.3104
 5365TIP3    H237587   1.772   3.224  12.225 -0.1551  1.5914  1.2640
 5366TIP3   OH237588   2.881   2.059   2.048  0.2719 -0.4618 -0.1968
 5366TIP3    H137589   2.831   2.032   2.126  0.2376 -1.6431 -0.6092
 5366TIP3    H237590   2.817   2.101   1.991  0.1844 -0.1017  0.1601
 5367TIP3   OH237591   1.303   2.029   1.883  0.6009 -0.3956 -0.1032
 5367TIP3    H137592   1.385   1.991   1.915  0.8910 -0.4238 -0.8701
 5367TIP3    H237593   1.278   2.092   1.951  2.0066  0.6606 -0.5053
 5368TIP3   OH237594   2.709   6.764   1.044  0.2474  0.4848  0.0379
 5368TIP3    H137595   2.631   6.812   1.016  0.5861  0.6282 -0.6869
 5368TIP3    H237596   2.749   6.820   1.111  1.0613  1.6253 -1.3492
 5369TIP3   OH237597   1.625   4.074   3.012  0.3086 -0.0678  0.3935
 5369TIP3    H137598   1.672   4.087   3.094  1.4686 -2.5990  0.2000
 5369TIP3    H237599   1.681   4.114   2.945  0.2327  0.3933  0.5980
 5370TIP3   OH237600   6.051   5.266  12.298 -0.1275 -0.0551  0.7693
 5370TIP3    H137601   6.049   5.280  12.203 -1.5521 -2.6039  0.3173
 5370TIP3    H237602   6.135   5.224  12.314 -0.1003 -0.0883  0.5450
 5371TIP3   OH237603   3.705   5.206   3.307 -0.0469 -0.1371  0.1605
 5371TIP3    H137604   3.779   5.177   3.360  1.7643  1.0514 -1.5887
 5371TIP3    H237605   3.668   5.125   3.272  0.8674 -0.7197  0.4927
 5372TIP3   OH237606   4.441   4.990  14.780  0.0764 -0.3499 -0.9239
 5372TIP3    H137607   4.516   5.049  14.775 -0.8351  1.1187  1.2627
 5372TIP3    H237608   4.377   5.028  14.719  0.3145 -0.3937 -1.2043
 5373TIP3   OH237609   6.074   0.782  12.599 -0.5383  0.6612  0.1131
 5373TIP3    H137610   6.112   0.868  12.578 -2.6089  2.1732  2.0493
 5373TIP3    H237611   6.008   0.801  12.666 -0.3776 -2.6108  1.3660
 5374TIP3   OH237612   5.379   4.574  11.099  0.7734  0.0885 -0.3029
 5374TIP3    H137613   5.321   4.541  11.030  0.7048 -0.5450  0.0482
 5374TIP3    H237614   5.409   4.495  11.144  0.6559  0.5007  0.5165
 5375TIP3   OH237615   3.955   6.438  15.981 -0.5104 -0.6356  0.2291
 5375TIP3    H137616   3.916   6.452  16.067  1.3097 -1.1749  1.1963
 5375TIP3    H237617   4.045   6.472  15.989 -0.2494 -0.8192 -1.4214
 5376TIP3   OH237618   2.072   4.570  13.064  0.0825 -0.4322 -0.2533
 5376TIP3    H137619   2.164   4.593  13.053  0.8212 -2.1640  1.5720
 5376TIP3    H237620   2.025   4.651  13.046  2.0924  0.9891  0.4598
 5377TIP3   OH237621   2.197   5.013   4.391 -0.0410  0.2159  0.4438
 5377TIP3    H137622   2.177   4.927   4.429  0.0235  0.1655  0.3648
 5377TIP3    H237623   2.248   4.993   4.313 -0.5262  0.3000  0.0992
 5378TIP3   OH237624   2.712   3.021  11.193 -0.1962  0.3450 -0.3612
 5378TIP3    H137625   2.672   3.039  11.108 -0.3858 -0.9644 -0.5694
 5378TIP3    H237626   2.675   2.937  11.219  1.7562 -0.4969 -0.1709
 5379TIP3   OH237627   5.033   3.474  16.801 -0.2450  0.1552  0.3280
 5379TIP3    H137628   5.021   3.484  16.895  0.4081  1.3897  0.3053
 5379TIP3    H237629   5.001   3.557  16.764 -2.2170 -0.9959 -0.7317
 5380TIP3   OH237630   3.229   3.520   3.696  0.0334 -0.3318 -0.1584
 5380TIP3    H137631   3.257   3.611   3.697 -1.5680  0.1938  0.2657
 5380TIP3    H237632   3.281   3.480   3.626 -0.5712  1.3697 -1.6692
 5381TIP3   OH237633   0.344   1.259  16.155 -0.0348  0.2429 -0.0801
 5381TIP3    H137634   0.305   1.270  16.069 -1.6371 -0.5492  0.4988
 5381TIP3    H237635   0.363   1.165  16.161  1.9397  0.5887 -0.3061
 5382TIP3   OH237636   6.322   5.136  13.119 -0.0097 -0.2130 -0.3763
 5382TIP3    H137637   6.403   5.113  13.165  0.5256  1.0299 -0.6652
 5382TIP3    H237638   6.257   5.073  13.152  0.8333 -0.6025  0.5899
 5383TIP3   OH237639   2.584   1.024   1.989  0.1618  0.0761  0.9330
 5383TIP3    H137640   2.570   0.953   2.052  0.9294 -1.1655 -0.2304
 5383TIP3    H237641   2.653   0.991   1.931 -2.4263 -0.1695 -2.3547
 5384TIP3   OH237642   5.005   6.401  14.866 -0.3186 -0.2983  0.0424
 5384TIP3    H137643   4.929   6.448  14.834 -0.7533 -0.0393  1.3762
 5384TIP3    H237644   5.078   6.461  14.855 -0.9126  0.8554  1.9917
 5385TIP3   OH237645   1.418   3.401   5.049 -0.0515  0.6878  0.0655
 5385TIP3    H137646   1.406   3.352   4.968 -0.9006 -0.1687  0.6937
 5385TIP3    H237647   1.336   3.390   5.097  0.9959 -0.1993  1.7735
 5386TIP3   OH237648   3.401   5.693  14.897  0.3885  0.1928 -0.0650
 5386TIP3    H137649   3.327   5.724  14.846 -0.4699  0.6425  1.3998
 5386TIP3    H237650   3.458   5.649  14.834 -1.3436 -0.5766 -1.1333
 5387TIP3   OH237651   4.470   5.761  16.773  0.1864  0.1055  0.1839
 5387TIP3    H137652   4.530   5.821  16.729 -0.5685 -0.8683 -2.3684
 5387TIP3    H237653   4.488   5.676  16.733 -1.8212 -0.4832  0.4377
 5388TIP3   OH237654   4.153   6.743  16.692 -0.1857  0.5810 -0.0088
 5388TIP3    H137655   4.122   6.806  16.757 -0.7231  0.4043 -0.0962
 5388TIP3    H237656   4.235   6.709  16.729 -1.7480 -1.4070  1.8109
 5389TIP3   OH237657   4.648   1.983   4.255  0.1166 -0.1341 -0.0799
 5389TIP3    H137658   4.700   1.913   4.216  0.6743 -0.4340  1.1559
 5389TIP3    H237659   4.693   2.004   4.336 -0.8377  0.6930  0.2575
 5390TIP3   OH237660   6.669   2.282   0.598 -0.6832 -0.4795 -0.0661
 5390TIP3    H137661   6.586   2.253   0.637 -0.8059  1.2816  1.0930
 5390TIP3    H237662   6.651   2.371   0.567  0.6047 -0.3141 -0.3928
 5391TIP3   OH237663   2.845   5.010   4.790 -0.2211 -0.1343  0.9397
 5391TIP3    H137664   2.843   5.097   4.749 -1.0255 -0.5094  0.1577
 5391TIP3    H237665   2.854   4.949   4.717 -2.2183 -0.8467  1.2262
 5392TIP3   OH237666   4.324   1.318   5.843  0.3832  0.7408  0.5305
 5392TIP3    H137667   4.384   1.342   5.772 -0.5495  2.7303  0.3460
 5392TIP3    H237668   4.251   1.380   5.835 -0.5668 -0.0843  2.2042
 5393TIP3   OH237669   5.218   5.959  12.589  0.0510  0.0879 -0.1529
 5393TIP3    H137670   5.255   5.991  12.672 -1.3244 -2.2615  1.4974
 5393TIP3    H237671   5.278   5.890  12.561 -0.4691 -0.4078 -0.0722
 5394TIP3   OH237672   6.010   5.292   2.739  0.2442  0.9382  0.3303
 5394TIP3    H137673   6.087   5.348   2.748  1.0733 -0.3181  1.3920
 5394TIP3    H237674   5.969   5.294   2.825  0.7661 -0.7198  0.6532
 5395TIP3   OH237675   1.072   3.258   1.145 -0.3937  0.2137 -0.1643
 5395TIP3    H137676   1.119   3.315   1.206  0.9541 -0.9023 -0.0894
 5395TIP3    H237677   1.113   3.274   1.060  0.9165 -1.5080  0.0832
 5396TIP3   OH237678   6.159   5.271   4.591  0.0344  0.1531 -0.4930
 5396TIP3    H137679   6.148   5.366   4.580  0.0872 -0.0088 -2.2866
 5396TIP3    H237680   6.105   5.250   4.667 -0.0663  1.5989 -0.1206
 5397TIP3   OH237681   5.743   3.537  12.184 -0.0424  0.1141 -0.0986
 5397TIP3    H137682   5.816   3.552  12.244 -0.1571 -2.1801  0.7057
 5397TIP3    H237683   5.680   3.486  12.235 -0.9901 -0.2566 -1.5849
 5398TIP3   OH237684   0.191   0.033   3.890  0.5491  0.1990  0.7512
 5398TIP3    H137685   0.265   0.091   3.904  0.2716  0.8046 -0.2233
 5398TIP3    H237686   0.174  -0.004   3.977  0.8380  1.4474  1.3713
 5399TIP3   OH237687   1.284   2.978   2.588  0.2403  0.5326 -0.1756
 5399TIP3    H137688   1.306   3.071   2.581  1.7357  0.1728 -0.6065
 5399TIP3    H237689   1.367   2.933   2.575 -0.2470 -0.8359  1.1695
 5400TIP3   OH237690   1.084   5.986  14.790  0.3981  0.1331 -0.3852
 5400TIP3    H137691   1.072   6.057  14.853 -0.0136 -1.4424  1.4345
 5400TIP3    H237692   1.177   5.964  14.795  0.0733 -1.1265  1.0794
 5401TIP3   OH237693   2.854   0.768   0.923 -0.3792 -0.2446 -0.3599
 5401TIP3    H137694   2.867   0.838   0.860  0.4019 -0.9829 -1.0503
 5401TIP3    H237695   2.942   0.733   0.937 -0.5058  0.0189  1.2854
 5402TIP3   OH237696   0.830   4.007   1.022 -0.5174 -0.0739 -0.2857
 5402TIP3    H137697   0.837   4.030   0.929  0.2666  0.1666 -0.1774
 5402TIP3    H237698   0.816   4.090   1.067 -0.0317 -0.0801 -0.1131
 5403TIP3   OH237699   3.274   0.523   2.669  0.2330  0.5749  0.4336
 5403TIP3    H137700   3.252   0.572   2.589  1.4664 -1.0621 -1.0084
 5403TIP3    H237701   3.190   0.507   2.712 -0.5900  0.6902 -1.0519
 5404TIP3   OH237702   3.402   1.652  14.742 -0.1414  0.0846  0.4615
 5404TIP3    H137703   3.345   1.584  14.706  2.2494 -0.9356 -1.6427
 5404TIP3    H237704   3.352   1.734  14.730 -0.8235 -0.6372 -2.1688
 5405TIP3   OH237705   0.065   2.531  14.989  0.4785 -0.7099  0.1434
 5405TIP3    H137706   0.152   2.560  15.017 -0.1046 -0.3224  1.6450
 5405TIP3    H237707   0.077   2.504  14.898  2.5295 -2.1886  0.7761
 5406TIP3   OH237708   4.406   2.756   0.370  0.7264  0.3483  0.4174
 5406TIP3    H137709   4.336   2.779   0.431 -0.5554  0.9373 -1.2008
 5406TIP3    H237710   4.379   2.671   0.333  1.1977  0.2682  0.2454
 5407TIP3   OH237711   5.031   2.924   4.818  0.1332  0.3469  0.3093
 5407TIP3    H137712   5.056   2.895   4.906 -1.0392 -0.9971  0.2372
 5407TIP3    H237713   4.939   2.900   4.810 -0.1413  1.6488 -0.8274
 5408TIP3   OH237714   4.978   3.369   1.031 -0.8534  0.2253 -0.7276
 5408TIP3    H137715   4.930   3.398   0.953  1.5351 -0.0689 -2.4140
 5408TIP3    H237716   5.070   3.384   1.009  0.0796 -2.3316  0.9885
 5409TIP3   OH237717   4.705   0.931   5.023  0.1095  0.2650 -0.1272
 5409TIP3    H137718   4.696   0.948   4.929 -0.0551 -0.4287 -0.2448
 5409TIP3    H237719   4.797   0.948   5.042 -0.2571  2.3696  0.0088
 5410TIP3   OH237720   5.627   2.579  17.188 -0.1780 -0.1452  0.3291
 5410TIP3    H137721   5.539   2.607  17.163 -0.1849  0.4322  0.9676
 5410TIP3    H237722   5.685   2.645  17.149  0.0535 -1.0111 -0.8392
 5411TIP3   OH237723   4.959   5.886  16.757 -0.0779  0.0618  0.1695
 5411TIP3    H137724   4.935   5.973  16.726  1.8510  0.6260  0.0956
 5411TIP3    H237725   4.876   5.845  16.782 -1.2631  1.1008 -1.8283
 5412TIP3   OH237726   4.540   1.675   0.156 -0.1388  0.0154  0.1377
 5412TIP3    H137727   4.606   1.709   0.217  0.5533 -0.9303 -0.0623
 5412TIP3    H237728   4.458   1.713   0.187  0.3172  0.2059  1.1805
 5413TIP3   OH237729   2.056   5.836   4.351  0.3249 -0.3472  0.0933
 5413TIP3    H137730   2.127   5.889   4.315 -0.4841 -0.1356 -1.2297
 5413TIP3    H237731   2.054   5.758   4.295 -2.1175  0.7929 -1.5480
 5414TIP3   OH237732   0.948   5.066  11.553  0.5777 -0.0023  0.5404
 5414TIP3    H137733   1.031   5.062  11.506  0.1277  1.1277 -0.3762
 5414TIP3    H237734   0.890   5.008  11.504  0.6096 -0.2312  0.7681
 5415TIP3   OH237735   4.969   2.692  15.906  0.0047  0.1603  0.3446
 5415TIP3    H137736   4.952   2.723  15.817 -0.4819 -0.6340  0.1455
 5415TIP3    H237737   4.920   2.752  15.962 -1.4564 -0.5955 -0.0760
 5416TIP3   OH237738   5.368   5.257   0.139  0.1175 -0.1469  0.2507
 5416TIP3    H137739   5.382   5.335   0.086  1.2761  0.9377  2.0288
 5416TIP3    H237740   5.438   5.197   0.114  0.2009  0.0390  0.0421
 5417TIP3   OH237741   5.472   5.559  13.243 -0.0326  0.2286 -0.2677
 5417TIP3    H137742   5.387   5.599  13.225  0.8113  1.2451 -2.3498
 5417TIP3    H237743   5.466   5.530  13.334 -0.9575  4.6778  1.3445
 5418TIP3   OH237744   3.024   0.183  12.392  0.4867 -0.4733 -0.1533
 5418TIP3    H137745   2.942   0.159  12.347  0.0904 -0.7279  0.6845
 5418TIP3    H237746   3.086   0.200  12.321 -0.6845  1.1472 -0.8489
 5419TIP3   OH237747   0.043   3.079  12.994  0.5272  0.3735 -0.1572
 5419TIP3    H137748   0.012   3.034  13.072 -0.6323  0.8630 -0.3101
 5419TIP3    H237749   0.019   3.021  12.922 -0.8479  1.1265 -0.3431
 5420TIP3   OH237750   4.092   6.530  14.359 -0.2268 -0.1151  0.2220
 5420TIP3    H137751   4.088   6.443  14.399 -0.1985  0.6470  1.9839
 5420TIP3    H237752   4.061   6.517  14.270 -0.0947 -1.9484  0.4040
 5421TIP3   OH237753   3.027   1.589   0.857 -0.0560  0.0635  0.2165
 5421TIP3    H137754   3.120   1.578   0.834 -0.0755  0.5740 -0.1141
 5421TIP3    H237755   3.021   1.553   0.946  0.4522 -0.0072  0.2276
 5422TIP3   OH237756   3.269   1.411   3.901  0.0579  0.3839  0.2495
 5422TIP3    H137757   3.337   1.397   3.835 -0.9389 -0.2342 -0.6937
 5422TIP3    H237758   3.204   1.343   3.882 -0.3552  0.3311  1.7513
 5423TIP3   OH237759   1.927   2.412   5.390 -0.3048  0.0067  0.0717
 5423TIP3    H137760   2.000   2.432   5.447  0.2090  2.7984 -1.3938
 5423TIP3    H237761   1.966   2.363   5.318  0.2205  1.5147 -0.7227
 5424TIP3   OH237762   1.238   0.363   3.848 -0.4700  0.0684 -0.0022
 5424TIP3    H137763   1.282   0.380   3.931 -3.2585  0.5677  1.5089
 5424TIP3    H237764   1.259   0.439   3.793  0.8155  0.0882  0.4785
 5425TIP3   OH237765   4.434   1.302  15.312 -0.5747  0.0227  0.4189
 5425TIP3    H137766   4.520   1.312  15.271 -0.1418 -2.0486  0.7529
 5425TIP3    H237767   4.432   1.371  15.379 -0.2472  1.7528 -1.2585
 5426TIP3   OH237768   5.587   0.053   4.509 -0.1692 -0.3935  0.2723
 5426TIP3    H137769   5.673   0.066   4.470  0.0227  1.9451  1.2896
 5426TIP3    H237770   5.531   0.118   4.465 -0.3207  1.1729  2.6014
 5427TIP3   OH237771   2.809   5.194   2.167 -0.1223  0.6352  0.2098
 5427TIP3    H137772   2.869   5.255   2.209 -1.8762  1.5199  1.5751
 5427TIP3    H237773   2.723   5.235   2.175 -0.6905  0.8093 -4.2090
 5428TIP3   OH237774   3.346   1.228   2.124 -0.1273  0.3283  0.1850
 5428TIP3    H137775   3.265   1.268   2.091 -0.8273 -0.8209  0.4513
 5428TIP3    H237776   3.412   1.252   2.059 -0.8536  0.5906 -0.4861
 5429TIP3   OH237777   4.128   2.652   0.639  0.3209  0.1012  0.3795
 5429TIP3    H137778   4.064   2.701   0.690  0.6900 -0.7697  1.7299
 5429TIP3    H237779   4.132   2.698   0.555 -0.4935  1.4240  1.0328
 5430TIP3   OH237780   5.859   0.922   3.082  0.4745  0.1648 -0.5529
 5430TIP3    H137781   5.913   0.979   3.028 -0.0040  1.9734  0.7931
 5430TIP3    H237782   5.903   0.837   3.080  3.1670  1.4653  0.2242
 5431TIP3   OH237783   1.823   2.275  16.100  0.4468 -0.0409  0.0198
 5431TIP3    H137784   1.768   2.218  16.045  1.7870  0.6975 -2.2499
 5431TIP3    H237785   1.825   2.358  16.052  3.0955  0.1092  0.2375
 5432TIP3   OH237786   3.489   4.633  13.351 -0.2424  0.5485  0.0106
 5432TIP3    H137787   3.452   4.574  13.286  0.1844  1.0932 -0.7315
 5432TIP3    H237788   3.518   4.709  13.302  1.3439  0.3872  0.6369
 5433TIP3   OH237789   2.988   2.130  16.624  0.5890 -0.0872 -0.4670
 5433TIP3    H137790   3.068   2.170  16.659 -0.0768  0.1920  0.8040
 5433TIP3    H237791   2.943   2.096  16.701 -0.2076 -0.8270 -1.2383
 5434TIP3   OH237792   2.419   1.579  14.229 -0.0384  0.1039  0.5179
 5434TIP3    H137793   2.426   1.620  14.143 -0.3366 -0.1198  0.3841
 5434TIP3    H237794   2.489   1.619  14.281 -0.8866  1.4702  0.6745
 5435TIP3   OH237795   5.842   6.476  13.316 -0.0236  0.0176 -0.0932
 5435TIP3    H137796   5.937   6.472  13.326 -0.1468  0.7106  1.6024
 5435TIP3    H237797   5.819   6.396  13.269  1.3421 -0.4069 -0.0626
 5436TIP3   OH237798   3.090   2.240  14.811 -0.2724 -0.1551 -0.3010
 5436TIP3    H137799   3.100   2.249  14.906 -0.3501 -0.6550 -0.2418
 5436TIP3    H237800   3.029   2.310  14.786  0.2745  0.4048 -0.0826
 5437TIP3   OH237801   4.488   1.800   4.597 -0.3775 -0.2692 -0.1423
 5437TIP3    H137802   4.584   1.795   4.602 -0.1825  1.8140 -0.7005
 5437TIP3    H237803   4.470   1.892   4.577 -2.3515 -1.1885 -3.3554
 5438TIP3   OH237804   3.886   6.261   0.403  0.2807  0.1167 -0.2286
 5438TIP3    H137805   3.838   6.179   0.410  1.3061 -0.5566 -0.8541
 5438TIP3    H237806   3.850   6.316   0.473 -2.8199  0.4291 -1.8599
 5439TIP3   OH237807   0.867   3.215  16.528 -0.3231 -0.0718 -0.0846
 5439TIP3    H137808   0.916   3.154  16.584  1.8486  1.5651 -0.0699
 5439TIP3    H237809   0.913   3.212  16.444  0.3387  2.0868  0.1565
 5440TIP3   OH237810   3.856   6.534   1.536  0.6474  0.4574  0.2577
 5440TIP3    H137811   3.771   6.537   1.491  0.4225 -2.1095  0.3483
 5440TIP3    H237812   3.912   6.593   1.485 -1.0175  1.7961 -0.1281
 5441TIP3   OH237813   6.115   0.718   3.238 -0.1848  0.7069 -0.1092
 5441TIP3    H137814   6.149   0.634   3.270 -0.2383  0.6222 -0.2697
 5441TIP3    H237815   6.054   0.693   3.168  0.6316  0.9224 -0.9129
 5442TIP3   OH237816   0.172   6.132  16.777  0.0936  0.0391 -0.2471
 5442TIP3    H137817   0.187   6.219  16.740  1.9242  0.1761  0.6841
 5442TIP3    H237818   0.171   6.146  16.872 -0.5998 -0.8308 -0.1078
 5443TIP3   OH237819   5.215   0.047  16.842  0.0282  0.0787  0.1805
 5443TIP3    H137820   5.164   0.127  16.854  2.0912  1.0835  3.6491
 5443TIP3    H237821   5.176  -0.016  16.904  2.0488  0.4569  1.9324
 5444TIP3   OH237822   1.643   4.645  12.891 -0.6124 -0.5446 -0.2062
 5444TIP3    H137823   1.696   4.575  12.929  1.2336  0.2629 -1.1539
 5444TIP3    H237824   1.584   4.672  12.962  1.3119 -0.4398  1.4483
 5445TIP3   OH237825   4.754   1.551  15.752  0.3114 -0.2488  0.3109
 5445TIP3    H137826   4.740   1.457  15.754 -2.9406  0.1278  1.7451
 5445TIP3    H237827   4.807   1.569  15.830  0.7242 -0.8703  0.1751
 5446TIP3   OH237828   0.654   4.792   2.427 -0.6457 -0.1753  0.0603
 5446TIP3    H137829   0.741   4.763   2.454  0.1054  2.0482  0.2836
 5446TIP3    H237830   0.666   4.884   2.401 -2.8722  0.1249 -0.1707
 5447TIP3   OH237831   0.772   5.334  12.314  0.4395  0.5603 -0.2566
 5447TIP3    H137832   0.762   5.259  12.255 -0.8040  0.8907 -0.4902
 5447TIP3    H237833   0.850   5.313  12.365  0.7243 -0.3966 -1.0454
 5448TIP3   OH237834   6.532   2.236   5.630  0.0349 -0.3558  0.0785
 5448TIP3    H137835   6.609   2.278   5.667 -0.2132 -0.5682  0.8486
 5448TIP3    H237836   6.562   2.200   5.547  1.0001 -1.2337  0.7931
 5449TIP3   OH237837   4.971   1.095   6.245  0.0005 -0.3529 -0.1895
 5449TIP3    H137838   4.945   1.100   6.153  0.2950  1.6179 -0.2130
 5449TIP3    H237839   4.898   1.137   6.292 -0.2968 -1.6261  0.5339
 5450TIP3   OH237840   2.048   1.328  12.729 -0.5191 -0.1532  0.0288
 5450TIP3    H137841   2.066   1.421  12.742  0.1887 -0.3466  0.4614
 5450TIP3    H237842   1.995   1.325  12.649 -1.6679  0.7267  0.7202
 5451TIP3   OH237843   0.367   5.372   2.450  0.6293 -0.3438 -0.3943
 5451TIP3    H137844   0.356   5.281   2.423 -2.3060  0.0744 -1.0167
 5451TIP3    H237845   0.296   5.386   2.513 -2.2282  2.6744 -3.8230
 5452TIP3   OH237846   6.690   3.121  13.959  0.0014  0.4451  0.4149
 5452TIP3    H137847   6.597   3.135  13.943 -0.0097 -0.2587 -0.1902
 5452TIP3    H237848   6.697   3.029  13.983  0.9528 -0.6385 -3.3186
 5453TIP3   OH237849   2.391   1.622  14.672 -0.1272 -0.3023  0.0017
 5453TIP3    H137850   2.381   1.562  14.746  0.7478 -1.6299 -0.9134
 5453TIP3    H237851   2.315   1.605  14.616  0.7307 -1.4594 -0.8492
 5454TIP3   OH237852   1.108   1.989   2.533  0.3880 -0.4397  0.2949
 5454TIP3    H137853   1.116   2.080   2.559  1.0339 -0.2200 -0.6031
 5454TIP3    H237854   1.043   1.952   2.592  1.8801 -0.0440  2.3026
 5455TIP3   OH237855   0.435   4.492  16.678 -0.6035  0.3769 -0.1282
 5455TIP3    H137856   0.470   4.578  16.703 -1.6439  0.4767  1.1534
 5455TIP3    H237857   0.360   4.479  16.737 -0.4139 -1.4570 -0.2265
 5456TIP3   OH237858   0.025   4.928  14.514  0.1834 -0.1600 -0.3113
 5456TIP3    H137859   0.067   4.998  14.564 -0.6189  1.2962 -1.6001
 5456TIP3    H237860   0.045   4.949  14.423 -1.3981 -0.7115 -0.8047
 5457TIP3   OH237861   0.154   4.764   0.746  0.6974  0.3674  0.2394
 5457TIP3    H137862   0.087   4.702   0.776  1.3646 -0.7512 -0.4771
 5457TIP3    H237863   0.192   4.722   0.669  1.5632  1.4283  0.0648
 5458TIP3   OH237864   0.785   2.728   6.150 -0.0321  0.0880  0.5448
 5458TIP3    H137865   0.842   2.750   6.224 -1.2339 -1.6706  2.1010
 5458TIP3    H237866   0.784   2.632   6.150 -0.6103  0.0696 -1.3619
 5459TIP3   OH237867   4.918   4.720   5.918  0.0215 -0.2793  0.2992
 5459TIP3    H137868   4.891   4.714   6.009 -1.0782 -0.7718 -0.0414
 5459TIP3    H237869   4.890   4.807   5.889 -0.1333 -0.3362  0.2770
 5460TIP3   OH237870   0.120   5.475  14.650  0.3041  0.0045 -0.9182
 5460TIP3    H137871   0.122   5.408  14.718 -2.3101 -0.1145 -0.8314
 5460TIP3    H237872   0.188   5.450  14.589  1.4022 -0.9994  0.6466
 5461TIP3   OH237873   0.605   0.851   0.469 -0.1262 -0.0590 -0.5708
 5461TIP3    H137874   0.520   0.849   0.426 -0.5286  0.9385  0.1552
 5461TIP3    H237875   0.585   0.840   0.562  0.5354  0.2292 -0.3889
 5462TIP3   OH237876   5.800   6.537  12.849  0.1191  0.4264  0.6963
 5462TIP3    H137877   5.806   6.442  12.854 -0.7696  0.0403 -2.9724
 5462TIP3    H237878   5.887   6.567  12.875  1.2420 -1.5809 -0.4767
 5463TIP3   OH237879   1.776   0.684   3.451 -0.8331 -0.4387 -0.2475
 5463TIP3    H137880   1.708   0.672   3.517 -0.9228 -0.9855 -0.4357
 5463TIP3    H237881   1.826   0.760   3.482 -0.9979 -0.5629  0.3427
 5464TIP3   OH237882   3.213   1.075   5.746  0.3823 -0.1954  0.8935
 5464TIP3    H137883   3.117   1.069   5.744  0.2226  1.7284 -0.7734
 5464TIP3    H237884   3.231   1.129   5.823 -0.1214  1.6424 -0.2106
 5465TIP3   OH237885   0.296   5.821  13.644  0.5337 -0.3944 -0.2845
 5465TIP3    H137886   0.338   5.858  13.567  0.1653 -0.5072 -0.5442
 5465TIP3    H237887   0.221   5.772  13.610  0.2918 -0.3417  0.1544
 5466TIP3   OH237888   2.093   4.665  11.215 -0.1937 -0.4324  0.3619
 5466TIP3    H137889   2.026   4.733  11.218  0.4362  0.2226 -0.0528
 5466TIP3    H237890   2.106   4.640  11.306 -1.9472 -1.5498  0.3629
 5467TIP3   OH237891   6.463   2.047  16.741 -0.1673 -0.4357  0.3786
 5467TIP3    H137892   6.523   1.995  16.795 -0.1035 -1.6786 -0.8546
 5467TIP3    H237893   6.382   1.997  16.739  0.2367 -1.1173 -1.7102
 5468TIP3   OH237894   6.013   4.230  16.827  0.4780 -0.0390  0.2684
 5468TIP3    H137895   6.031   4.151  16.878 -1.8589 -0.4577  0.5554
 5468TIP3    H237896   6.030   4.204  16.736 -0.9556 -1.1179  0.2891
 5469TIP3   OH237897   5.299   2.671   3.430  0.1606  0.1360  0.0872
 5469TIP3    H137898   5.267   2.587   3.463 -1.7552  0.9786  0.5635
 5469TIP3    H237899   5.381   2.651   3.386 -0.0354 -1.9038  0.5672
 5470TIP3   OH237900   2.417   1.059   3.404 -0.4836 -0.1313  0.1010
 5470TIP3    H137901   2.421   1.029   3.495 -0.6099 -0.5872 -0.0427
 5470TIP3    H237902   2.396   0.980   3.353  0.3268 -0.0272 -0.4092
 5471TIP3   OH237903   3.772   0.416  15.765 -0.3511  0.2973 -0.1608
 5471TIP3    H137904   3.679   0.423  15.743 -0.0768  1.0769 -1.1880
 5471TIP3    H237905   3.814   0.484  15.712  0.8571 -0.3133 -0.0239
 5472TIP3   OH237906   5.685   3.197   3.752 -0.4335  0.3392 -0.6440
 5472TIP3    H137907   5.591   3.212   3.747 -0.5790 -0.0938  0.4566
 5472TIP3    H237908   5.695   3.102   3.744 -0.1115  0.3702 -0.6107
 5473TIP3   OH237909   3.570   2.194  12.972  0.3407 -0.9363 -0.3978
 5473TIP3    H137910   3.591   2.105  13.003 -0.4085 -1.2170 -0.6756
 5473TIP3    H237911   3.618   2.252  13.031  2.1621 -1.5432 -1.2033
 5474TIP3   OH237912   6.053   0.978   0.136 -0.0692 -0.3876  0.7671
 5474TIP3    H137913   6.122   1.010   0.077 -1.9921  2.2600 -0.2247
 5474TIP3    H237914   6.101   0.936   0.208  2.5739  1.0065 -0.0350
 5475TIP3   OH237915   4.278   3.680   0.620  0.2432  0.3225 -0.1862
 5475TIP3    H137916   4.261   3.713   0.707 -0.8806  0.6927 -0.5318
 5475TIP3    H237917   4.193   3.647   0.589  0.4178  1.0145 -1.4785
 5476TIP3   OH237918   0.543   6.472  13.885  0.2445  0.0534  0.2656
 5476TIP3    H137919   0.546   6.506  13.974  1.6070  0.5429  0.0515
 5476TIP3    H237920   0.464   6.417  13.883  0.2488 -0.0507  1.7912
 5477TIP3   OH237921   4.676   1.717   2.137  0.5590 -0.0804 -0.1842
 5477TIP3    H137922   4.659   1.809   2.113  1.2935  0.3460  0.8749
 5477TIP3    H237923   4.768   1.703   2.113  0.0153 -1.0850 -1.9163
 5478TIP3   OH237924   4.616   4.206   0.995  0.1150  0.7670  0.0469
 5478TIP3    H137925   4.662   4.225   0.914  1.3898 -1.2260  0.2286
 5478TIP3    H237926   4.524   4.195   0.970  0.5878 -0.4362 -1.2513
 5479TIP3   OH237927   5.424   4.174   2.376  0.8446 -0.1839  0.0551
 5479TIP3    H137928   5.449   4.264   2.357  0.6799 -0.1891 -0.1955
 5479TIP3    H237929   5.447   4.161   2.468  0.4118  0.2742  0.2317
 5480TIP3   OH237930   0.916   2.514  11.426  0.1056 -0.4736  0.0479
 5480TIP3    H137931   0.928   2.483  11.336 -0.8275  0.5606 -0.4517
 5480TIP3    H237932   0.911   2.609  11.419 -2.3282 -0.4656  0.8623
 5481TIP3   OH237933   6.770   1.059   1.873 -0.1715  0.2876  0.0037
 5481TIP3    H137934   6.806   1.054   1.962 -1.1955  1.2733  0.4954
 5481TIP3    H237935   6.846   1.052   1.816  0.5694  0.2675  0.9660
 5482TIP3   OH237936   1.192   3.404   4.570  0.2375 -0.3467 -0.6606
 5482TIP3    H137937   1.209   3.383   4.478 -0.3369  0.2231 -0.9037
 5482TIP3    H237938   1.098   3.420   4.574  0.5978  2.2477 -0.5245
 5483TIP3   OH237939   3.738   2.900  14.279 -0.0918 -0.4404  0.1348
 5483TIP3    H137940   3.734   2.984  14.324 -0.8440 -1.3601  1.8804
 5483TIP3    H237941   3.695   2.839  14.339  0.2575 -2.0352 -1.1774
 5484TIP3   OH237942   1.593   6.385  11.816  0.4813 -0.1929 -0.4835
 5484TIP3    H137943   1.627   6.418  11.900  1.8200 -2.0830 -0.2215
 5484TIP3    H237944   1.654   6.315  11.792 -0.1826 -0.0344 -2.7982
 5485TIP3   OH237945   1.814   6.222  13.470 -0.2014  0.4069  0.2112
 5485TIP3    H137946   1.865   6.244  13.548 -1.5271 -0.9507  1.5153
 5485TIP3    H237947   1.830   6.128  13.457 -0.6704  0.4373 -0.6562
 5486TIP3   OH237948   6.025   2.942  13.109 -0.1759 -0.1751 -0.0565
 5486TIP3    H137949   6.013   2.991  13.028  1.0595  0.2204 -0.0150
 5486TIP3    H237950   5.947   2.963  13.162 -0.0177  1.1593 -0.3269
 5487TIP3   OH237951   5.164   2.591  11.225  0.4280 -0.9040 -0.3965
 5487TIP3    H137952   5.171   2.566  11.133 -1.9976  1.4950 -1.3415
 5487TIP3    H237953   5.248   2.632  11.245  0.2705  0.3753 -2.1902
 5488TIP3   OH237954   2.416   1.973  15.981  0.4708  0.4066  0.3641
 5488TIP3    H137955   2.427   1.957  15.887  1.0387 -0.6122  0.5898
 5488TIP3    H237956   2.467   1.905  16.023  2.2063  2.2552  1.4256
 5489TIP3   OH237957   5.973   5.144   4.810 -0.1286  0.5872  0.1540
 5489TIP3    H137958   6.001   5.062   4.770  0.1788  0.7597  0.0114
 5489TIP3    H237959   5.879   5.147   4.795 -0.2285  0.0029  0.6360
 5490TIP3   OH237960   0.454   4.648  11.695 -0.5441  0.1967  0.3140
 5490TIP3    H137961   0.398   4.573  11.674 -0.5851  0.7752 -1.8051
 5490TIP3    H237962   0.425   4.717  11.637  1.9302  0.7168 -0.4134
 5491TIP3   OH237963   5.451   1.951  16.191 -0.6183 -0.2192  0.0651
 5491TIP3    H137964   5.449   2.028  16.247 -1.3895  0.3227 -0.6851
 5491TIP3    H237965   5.373   1.959  16.136  0.1596 -0.6821 -1.1563
 5492TIP3   OH237966   5.238   1.473  13.556  0.5235  0.2221 -0.2788
 5492TIP3    H137967   5.226   1.401  13.618 -1.1653  1.3033  0.7427
 5492TIP3    H237968   5.154   1.478  13.509  0.8159  1.1687 -0.7210
 5493TIP3   OH237969   4.733   5.317  15.103  0.1699 -0.0719 -0.2133
 5493TIP3    H137970   4.780   5.398  15.120 -0.4596 -0.1487  2.2186
 5493TIP3    H237971   4.800   5.249  15.111  0.1240 -0.0041  1.0246
 5494TIP3   OH237972   4.138   2.564  12.093  0.6691  0.2226  0.5065
 5494TIP3    H137973   4.117   2.471  12.087  1.2450  0.1040  0.1452
 5494TIP3    H237974   4.218   2.567  12.146  0.3349  0.5623  0.9965
 5495TIP3   OH237975   2.065   2.458  10.605 -0.8734 -0.2601  0.1347
 5495TIP3    H137976   2.030   2.409  10.680  3.0326  0.7772  2.9634
 5495TIP3    H237977   2.121   2.395  10.559 -0.8908 -0.1165 -0.0839
 5496TIP3   OH237978   5.261   3.793  13.316 -0.0426  0.1592 -0.0450
 5496TIP3    H137979   5.349   3.757  13.305  0.6316  1.7393 -0.0240
 5496TIP3    H237980   5.216   3.773  13.234 -0.4191 -2.5358  0.7068
 5497TIP3   OH237981   0.619   0.331   4.604 -0.6366  0.1334 -0.1457
 5497TIP3    H137982   0.657   0.323   4.691  0.7013 -1.7032 -0.8390
 5497TIP3    H237983   0.627   0.424   4.583  1.9590  0.1323  0.4730
 5498TIP3   OH237984   3.360   5.141  12.116  0.0305 -0.7700  0.0939
 5498TIP3    H137985   3.405   5.175  12.038  1.1507 -0.9987  0.6276
 5498TIP3    H237986   3.269   5.133  12.088  0.2881 -0.2265 -0.9945
 5499TIP3   OH237987   2.549   1.011  13.850 -0.1873  0.1819 -0.4081
 5499TIP3    H137988   2.488   1.052  13.789 -2.2847  1.7540  2.4959
 5499TIP3    H237989   2.509   0.926  13.869  0.6862 -0.4865 -1.4798
 5500TIP3   OH237990   3.701   2.657  14.109  0.4263  0.1441 -0.3464
 5500TIP3    H137991   3.760   2.585  14.129 -0.2068  0.0792  1.4876
 5500TIP3    H237992   3.740   2.733  14.153  0.2507  0.5782 -0.9253
 5501TIP3   OH237993   0.519   2.625   4.047  0.2654 -0.2170  0.4275
 5501TIP3    H137994   0.563   2.665   4.121  0.7933 -0.4205  0.2328
 5501TIP3    H237995   0.472   2.697   4.005  0.2622 -0.0319  0.7459
 5502TIP3   OH237996   4.692   3.124   1.324 -0.4222  0.3645 -0.1372
 5502TIP3    H137997   4.701   3.030   1.335  0.2971  0.4731  0.2176
 5502TIP3    H237998   4.619   3.148   1.382  0.4495  0.2643  1.0156
 5503TIP3   OH237999   6.612   3.029  15.515 -0.5969 -0.1809 -0.3706
 5503TIP3    H138000   6.559   3.101  15.550 -0.4083 -0.7040  1.0152
 5503TIP3    H238001   6.595   3.032  15.421 -1.3866  1.0333 -0.2199
 5504TIP3   OH238002   1.764   3.316   0.730  0.1786  0.6714 -0.1865
 5504TIP3    H138003   1.806   3.249   0.676 -0.7154 -0.0998  0.0626
 5504TIP3    H238004   1.699   3.269   0.782 -0.5803  1.7576 -0.1201
 5505TIP3   OH238005   4.973   4.251   0.408 -0.2554 -0.1304  0.1743
 5505TIP3    H138006   4.973   4.319   0.475 -1.2119  0.6714 -0.6161
 5505TIP3    H238007   5.053   4.265   0.358 -0.4362  0.4063  0.0321
 5506TIP3   OH238008   1.854   0.993  13.318  0.3762  0.1980 -0.3419
 5506TIP3    H138009   1.872   1.005  13.411  1.3719  0.1597 -0.5192
 5506TIP3    H238010   1.766   1.029  13.305  0.6698  1.2163  0.3957
 5507TIP3   OH238011   6.798   1.040  15.895  0.1414 -0.4135 -0.2256
 5507TIP3    H138012   6.855   0.970  15.926 -0.7928 -1.9379 -1.7520
 5507TIP3    H238013   6.710   1.002  15.899 -0.3523  0.5638 -1.3599
 5508TIP3   OH238014   1.838   4.352  11.603  0.2991  0.2628 -0.0742
 5508TIP3    H138015   1.830   4.321  11.694 -0.2241  0.6561  0.0232
 5508TIP3    H238016   1.755   4.398  11.587  0.0872 -0.4182 -0.9975
 5509TIP3   OH238017   0.081   0.701   2.439  0.0044 -0.0078  0.6859
 5509TIP3    H138018   0.130   0.700   2.521  0.8639  0.1112  0.1890
 5509TIP3    H238019   0.024   0.777   2.445  0.2850  0.1737  1.0432
 5510TIP3   OH238020   3.266   2.352   5.282  0.0480 -0.0920  0.0574
 5510TIP3    H138021   3.181   2.308   5.293 -0.1374 -0.3194 -1.9301
 5510TIP3    H238022   3.255   2.436   5.328 -0.3057 -1.1896  2.0930
 5511TIP3   OH238023   6.181   0.547  15.742 -0.2646 -0.1259  0.3733
 5511TIP3    H138024   6.205   0.471  15.689  2.0260 -0.2996  1.5345
 5511TIP3    H238025   6.182   0.620  15.680 -0.2767 -0.7043 -0.3237
 5512TIP3   OH238026   5.624   4.855   2.214 -0.1986  0.2450 -0.6445
 5512TIP3    H138027   5.649   4.778   2.265  0.9068  0.7156 -0.4325
 5512TIP3    H238028   5.552   4.825   2.159 -0.1267 -0.8023 -0.1948
 5513TIP3   OH238029   2.391   2.293   1.466 -0.3344  0.4659  1.1419
 5513TIP3    H138030   2.378   2.333   1.380 -2.7091  0.3061  1.3501
 5513TIP3    H238031   2.456   2.348   1.509  0.4069  0.9412 -0.4876
 5514TIP3   OH238032   6.653   5.181  12.968  0.1939  0.2131  0.4504
 5514TIP3    H138033   6.586   5.247  12.950  0.1891  0.7913  2.3633
 5514TIP3    H238034   6.604   5.100  12.981  0.0745  0.1533 -0.2937
 5515TIP3   OH238035   2.820   3.928   1.123 -0.0444  0.1035 -0.0235
 5515TIP3    H138036   2.887   3.991   1.148 -0.7716  0.3820  1.2718
 5515TIP3    H238037   2.738   3.965   1.156 -0.6347 -0.9798 -0.2306
 5516TIP3   OH238038   4.456   2.424   4.682 -0.1716 -0.0323 -0.2441
 5516TIP3    H138039   4.521   2.397   4.747 -0.0200  1.9790  0.5358
 5516TIP3    H238040   4.502   2.489   4.628 -1.1948  0.5975 -0.3849
 5517TIP3   OH238041   0.654   5.086   1.702 -0.3879 -0.2795 -0.2106
 5517TIP3    H138042   0.685   5.084   1.793 -1.6520  1.1633  0.2975
 5517TIP3    H238043   0.679   5.173   1.670 -0.6314 -0.4869 -0.9870
 5518TIP3   OH238044   4.040   2.566  16.090 -0.2604  0.3648 -0.2447
 5518TIP3    H138045   4.116   2.604  16.134  0.5608 -1.5757  0.0873
 5518TIP3    H238046   4.046   2.472  16.107 -2.8773  0.1656 -0.0212
 5519TIP3   OH238047   3.236   2.485  12.674 -0.1958 -0.6593  0.3813
 5519TIP3    H138048   3.248   2.420  12.604 -1.7723 -2.0740  1.3352
 5519TIP3    H238049   3.205   2.563  12.629 -2.8848 -2.0718 -0.4562
 5520TIP3   OH238050   3.783   5.415  16.525 -0.0149  0.7428  0.1217
 5520TIP3    H138051   3.726   5.342  16.548 -0.3260  1.7204  2.7898
 5520TIP3    H238052   3.871   5.385  16.545  0.0755  0.4100 -0.7490
 5521TIP3   OH238053   5.359   3.508   3.557  0.0092  0.7519 -0.3888
 5521TIP3    H138054   5.268   3.482   3.541  0.2575 -0.2718 -0.1657
 5521TIP3    H238055   5.405   3.489   3.475  0.3791 -0.4133  0.0709
 5522TIP3   OH238056   0.875   1.057  13.273  0.6553  0.4680  0.3767
 5522TIP3    H138057   0.939   1.107  13.323 -1.5382  3.7835  0.1383
 5522TIP3    H238058   0.833   1.001  13.338  0.8758  1.4285  1.3726
 5523TIP3   OH238059   1.553   4.074  16.172  0.0213  0.4511 -0.2655
 5523TIP3    H138060   1.524   4.113  16.255 -2.6115 -0.2903 -0.7243
 5523TIP3    H238061   1.488   4.105  16.109  2.1952  1.3394 -2.2076
 5524TIP3   OH238062   2.711   2.926  16.032 -0.8989  0.6114 -0.5092
 5524TIP3    H138063   2.624   2.892  16.013 -0.6339  0.2364 -1.0596
 5524TIP3    H238064   2.771   2.867  15.988 -0.4473  2.0460 -1.9180
 5525TIP3   OH238065   6.288   4.054   6.233 -0.1243 -0.5524  0.4160
 5525TIP3    H138066   6.382   4.063   6.219 -0.0907 -1.3283  0.0713
 5525TIP3    H238067   6.261   4.137   6.272  0.5620 -0.0193 -0.2159
 5526TIP3   OH238068   6.751   6.240  14.198 -0.1697 -0.0667  0.8176
 5526TIP3    H138069   6.754   6.218  14.105 -1.5057  1.1383  0.4484
 5526TIP3    H238070   6.658   6.237  14.220  0.2086 -1.4119  2.4184
 5527TIP3   OH238071   3.246   2.225   2.285 -0.0240 -0.1192 -0.0592
 5527TIP3    H138072   3.339   2.238   2.304 -0.0449 -2.0108  1.7740
 5527TIP3    H238073   3.240   2.133   2.260 -1.3368  0.1287 -0.7252
 5528TIP3   OH238074   0.499   3.402  14.288 -0.3160 -0.0422 -0.1792
 5528TIP3    H138075   0.559   3.476  14.278  0.3493 -0.4681  0.5463
 5528TIP3    H238076   0.439   3.410  14.214  0.5050  0.5243 -0.8043
 5529TIP3   OH238077   2.986   6.606  16.861  0.2945 -0.2354 -0.1656
 5529TIP3    H138078   2.949   6.589  16.948 -1.3581  0.9030 -0.6072
 5529TIP3    H238079   3.007   6.699  16.862  1.0336 -0.3866 -0.7329
 5530TIP3   OH238080   3.734   4.621   5.374  0.1478 -0.2941  0.3042
 5530TIP3    H138081   3.690   4.575   5.303  0.9703 -1.3059  0.4167
 5530TIP3    H238082   3.793   4.555   5.412  0.1704  0.3973  1.5258
 5531TIP3   OH238083   3.854   5.140  16.774  0.1496 -0.4265  0.1046
 5531TIP3    H138084   3.885   5.227  16.797  1.2730 -0.7286 -0.1773
 5531TIP3    H238085   3.886   5.126  16.685 -0.2200 -1.0379  0.0608
 5532TIP3   OH238086   5.057   2.100  12.023  0.0806  0.0558 -0.0280
 5532TIP3    H138087   4.997   2.167  12.055  0.6634  0.6921 -0.2465
 5532TIP3    H238088   5.104   2.142  11.951  0.1590 -0.7252 -0.4463
 5533TIP3   OH238089   5.304   0.268  11.022  0.3555 -0.8766  0.0173
 5533TIP3    H138090   5.306   0.355  10.982  2.9589 -1.2220 -0.7599
 5533TIP3    H238091   5.219   0.232  10.995 -0.4871  1.1185 -0.2054
 5534TIP3   OH238092   5.316   2.359  16.791  0.0884 -0.1392 -0.8424
 5534TIP3    H138093   5.349   2.293  16.852  0.4877  0.4120 -0.4558
 5534TIP3    H238094   5.353   2.442  16.823  2.3595 -0.1030 -3.1990
 5535TIP3   OH238095   6.129   0.714   2.171 -0.5673 -0.2809 -0.1166
 5535TIP3    H138096   6.042   0.718   2.212  0.4486 -1.5830  2.3567
 5535TIP3    H238097   6.166   0.802   2.185 -0.8651 -0.2155  0.2924
 5536TIP3   OH238098   4.983   6.494   2.812  0.8621  0.4968 -0.1094
 5536TIP3    H138099   5.032   6.478   2.731 -0.0577 -0.0610 -0.5766
 5536TIP3    H238100   4.976   6.408   2.853 -0.8307  0.3145 -0.7172
 5537TIP3   OH238101   2.422   1.073   0.423 -0.0874 -0.0720 -0.0368
 5537TIP3    H138102   2.502   1.106   0.464 -1.4314  0.5346  2.2646
 5537TIP3    H238103   2.433   0.978   0.423  1.7016  0.0594 -2.1916
 5538TIP3   OH238104   2.625   4.670  12.237  0.2190 -0.5094  0.8187
 5538TIP3    H138105   2.610   4.620  12.317  2.0226 -1.6292  0.5251
 5538TIP3    H238106   2.581   4.620  12.168 -0.4811 -0.0815  0.9443
 5539TIP3   OH238107   4.347   1.119   6.460  0.0641 -0.6393  0.2517
 5539TIP3    H138108   4.369   1.140   6.369 -1.7919 -0.6786 -0.2524
 5539TIP3    H238109   4.334   1.203   6.502 -0.9745 -0.6377 -0.0487
 5540TIP3   OH238110   6.006   3.845  16.639  0.6884 -1.0246 -0.1951
 5540TIP3    H138111   5.951   3.861  16.716 -0.3042 -1.4876 -0.7784
 5540TIP3    H238112   6.032   3.932  16.609  0.5386 -0.8122  0.2827
 5541TIP3   OH238113   3.318   6.765   4.858 -0.3536 -0.1080 -0.4064
 5541TIP3    H138114   3.288   6.809   4.778  0.2376 -0.0182 -0.5854
 5541TIP3    H238115   3.386   6.704   4.827 -0.4779 -0.4378 -0.0349
 5542TIP3   OH238116   4.968   3.488   1.839  0.3102 -0.1305 -0.1448
 5542TIP3    H138117   4.953   3.397   1.814 -0.4416  0.0991 -0.5785
 5542TIP3    H238118   5.031   3.521   1.776  0.7338 -0.4041  0.1342
 5543TIP3   OH238119   4.322   0.633   2.538  0.2180  0.2428 -0.4096
 5543TIP3    H138120   4.387   0.570   2.570 -0.0282  0.3776  0.3868
 5543TIP3    H238121   4.241   0.582   2.531 -0.6793  0.9479  2.8006
 5544TIP3   OH238122   3.969   0.318  12.845 -0.0264  0.5536 -0.0857
 5544TIP3    H138123   3.920   0.331  12.764 -3.0468 -0.3056  1.4536
 5544TIP3    H238124   4.009   0.232  12.836 -0.1381  0.5683 -0.7689
 5545TIP3   OH238125   6.525   0.196  13.354  0.1010 -0.3920  0.2498
 5545TIP3    H138126   6.474   0.238  13.284  0.4081  1.1352  0.8910
 5545TIP3    H238127   6.615   0.225  13.338  0.1004  0.4045  1.5505
 5546TIP3   OH238128   3.255   3.143   5.968  0.0125  0.0518  0.3735
 5546TIP3    H138129   3.328   3.109   6.020  2.0965 -0.3645 -2.5780
 5546TIP3    H238130   3.296   3.188   5.895 -2.7416  1.5287 -0.4117
 5547TIP3   OH238131   1.318   1.910   4.162 -0.2326  0.2520  0.0012
 5547TIP3    H138132   1.401   1.917   4.210 -0.3231 -1.0253  0.3702
 5547TIP3    H238133   1.251   1.928   4.228 -0.3047 -0.0844  0.0167
 5548TIP3   OH238134   3.294   4.200  13.161 -0.7013  0.3581  0.2333
 5548TIP3    H138135   3.214   4.179  13.210 -1.1268  0.4962 -0.3917
 5548TIP3    H238136   3.318   4.118  13.119 -1.0911  0.5620 -0.3951
 5549TIP3   OH238137   5.881   4.590  16.407 -0.2695 -0.3917  0.3755
 5549TIP3    H138138   5.865   4.512  16.354  1.5821  0.1801 -1.1625
 5549TIP3    H238139   5.968   4.575  16.445  0.9156  1.5832 -1.3554
 5550TIP3   OH238140   2.093   5.454   4.565 -0.1262  0.4232  0.1750
 5550TIP3    H138141   2.177   5.412   4.549  0.0706  0.7668  0.2889
 5550TIP3    H238142   2.107   5.507   4.643 -0.7496 -0.3554  0.8424
 5551TIP3   OH238143   6.696   6.007  16.093 -0.0900  0.5572  0.1782
 5551TIP3    H138144   6.740   6.088  16.121  1.1398 -0.3204  0.8583
 5551TIP3    H238145   6.762   5.939  16.104 -1.7309 -0.8804  1.5485
 5552TIP3   OH238146   1.068   4.509   6.741 -0.7777  0.0627 -0.0199
 5552TIP3    H138147   1.103   4.500   6.653  0.1362 -0.3039  0.3730
 5552TIP3    H238148   0.998   4.574   6.732  1.1482  2.1938 -0.5135
 5553TIP3   OH238149   3.982   1.506  12.806 -0.1852 -0.0785  0.3319
 5553TIP3    H138150   4.021   1.471  12.887 -0.4611 -0.0604  0.4723
 5553TIP3    H238151   3.927   1.578  12.835  0.9960  1.0151 -0.0273
 5554TIP3   OH238152   2.222   2.671   4.171 -0.0146  0.4261  0.2203
 5554TIP3    H138153   2.280   2.710   4.236  1.3531 -1.6524  0.3418
 5554TIP3    H238154   2.226   2.731   4.097 -0.3199  1.9960  1.4184
 5555TIP3   OH238155   3.372   4.287  15.286  0.0811  0.4288  0.0937
 5555TIP3    H138156   3.442   4.349  15.267  0.5687 -0.1174  0.0765
 5555TIP3    H238157   3.307   4.302  15.217  0.5044  0.4527 -0.3009
 5556TIP3   OH238158   0.117   1.462   4.758  0.0014 -0.6481  0.6644
 5556TIP3    H138159   0.134   1.501   4.844  1.9339 -0.5854  0.2861
 5556TIP3    H238160   0.022   1.466   4.749 -0.0674  2.0459  1.5662
 5557TIP3   OH238161   3.293   5.462   5.235 -0.3460  0.5750  0.1405
 5557TIP3    H138162   3.242   5.469   5.316  1.2734  1.6939  1.1184
 5557TIP3    H238163   3.365   5.404   5.257 -1.0706 -0.9005 -1.1942
 5558TIP3   OH238164   0.985   0.326  14.269  0.9752 -0.0050  0.0582
 5558TIP3    H138165   1.055   0.274  14.228  1.0859 -0.5932  0.9555
 5558TIP3    H238166   0.941   0.264  14.327  0.0783  0.5153 -0.0531
 5559TIP3   OH238167   2.699   1.472   4.916  0.3757  0.3844 -0.3180
 5559TIP3    H138168   2.613   1.513   4.927  0.5794  1.1034 -1.3129
 5559TIP3    H238169   2.727   1.499   4.829  0.2619 -2.3792 -1.2866
 5560TIP3   OH238170   6.282   1.985  13.393 -0.1351  0.4897 -0.3100
 5560TIP3    H138171   6.213   2.024  13.447 -1.4094 -1.3660 -0.5257
 5560TIP3    H238172   6.363   2.005  13.440 -0.8855  1.7773  0.5235
 5561TIP3   OH238173   5.989   2.858   6.052 -0.4443  0.2330 -0.4920
 5561TIP3    H138174   5.961   2.937   6.005  0.1460  0.0773 -1.1180
 5561TIP3    H238175   5.990   2.885   6.144 -1.1836  0.6725 -0.6009
 5562TIP3   OH238176   1.118   1.492  13.623  0.4833 -0.3007  0.0446
 5562TIP3    H138177   1.099   1.573  13.576 -1.0379  0.3898  1.7559
 5562TIP3    H238178   1.139   1.429  13.554 -1.2039  0.7811 -1.5461
 5563TIP3   OH238179   5.345   1.580   5.182  0.1166  0.4951  0.1916
 5563TIP3    H138180   5.388   1.572   5.267  1.4794  0.4550 -0.4603
 5563TIP3    H238181   5.267   1.632   5.199  0.7496  1.1181  1.3473
 5564TIP3   OH238182   0.550   2.315  14.446  0.4933  0.4823 -0.1294
 5564TIP3    H138183   0.633   2.269  14.454  0.2293 -0.4385 -2.0548
 5564TIP3    H238184   0.574   2.401  14.410  0.6706  0.5256  0.0871
 5565TIP3   OH238185   3.413   2.010  12.563  0.0778 -0.0577  0.2159
 5565TIP3    H138186   3.483   2.042  12.620  2.6218 -0.4774 -2.3884
 5565TIP3    H238187   3.392   1.923  12.596  1.3618 -0.2214  0.6394
 5566TIP3   OH238188   3.887   2.126   2.573 -0.0645  0.1898  0.1387
 5566TIP3    H138189   3.824   2.151   2.640  0.0058  0.2958  0.1648
 5566TIP3    H238190   3.914   2.037   2.597 -0.9278 -0.2290 -0.4126
 5567TIP3   OH238191   3.233   3.011   4.053 -0.0520 -0.0422  0.3071
 5567TIP3    H138192   3.224   3.061   3.972  1.3115 -1.0558 -0.5001
 5567TIP3    H238193   3.143   3.001   4.085 -0.5860  0.6131 -0.9144
 5568TIP3   OH238194   5.783   0.682  13.406 -0.5526 -0.1564  0.4683
 5568TIP3    H138195   5.810   0.591  13.416 -2.3326 -0.6849  0.8363
 5568TIP3    H238196   5.754   0.708  13.494 -0.0110  0.7881  0.3765
 5569TIP3   OH238197   3.605   2.412   1.390 -0.0026 -0.0530  0.2780
 5569TIP3    H138198   3.569   2.324   1.379  0.5773 -0.1265 -1.3691
 5569TIP3    H238199   3.645   2.412   1.477  0.5213 -1.6116  0.0540
 5570TIP3   OH238200   0.571   3.431  15.118 -0.3089  0.3485  0.0512
 5570TIP3    H138201   0.514   3.393  15.052 -1.3843 -0.3189  1.3313
 5570TIP3    H238202   0.652   3.381  15.111 -1.1559 -1.1596  0.6430
 5571TIP3   OH238203   3.888   4.078  15.843  0.1929 -0.2325  0.6069
 5571TIP3    H138204   3.797   4.049  15.839  0.1274 -0.3475  2.2067
 5571TIP3    H238205   3.883   4.173  15.849  0.3198  0.0141 -2.1781
 5572TIP3   OH238206   0.360   2.422   4.141 -0.0690  0.2775 -0.3530
 5572TIP3    H138207   0.271   2.455   4.144 -0.1361  0.0176  1.7847
 5572TIP3    H238208   0.413   2.498   4.115 -0.6383  1.1065  0.8269
 5573TIP3   OH238209   4.472   1.084  16.361 -0.2849  0.3225  0.1526
 5573TIP3    H138210   4.389   1.071  16.407 -1.1582  2.5732 -0.6178
 5573TIP3    H238211   4.528   1.127  16.425  0.3844 -1.3150  0.7147
 5574TIP3   OH238212   6.488   0.274  17.004 -0.2452 -0.2297 -0.4937
 5574TIP3    H138213   6.430   0.349  16.997  1.1149  0.7455 -2.1692
 5574TIP3    H238214   6.565   0.308  17.050 -0.9798 -1.5422  1.8609
 5575TIP3   OH238215   5.689   0.081   4.920  0.2098 -0.1127 -0.1126
 5575TIP3    H138216   5.667  -0.003   4.961 -0.2192  0.4291  0.8077
 5575TIP3    H238217   5.775   0.067   4.881 -0.4844 -1.4101 -1.2541
 5576TIP3   OH238218   2.846   3.331   6.213 -1.0698 -0.1427  0.1046
 5576TIP3    H138219   2.832   3.246   6.254 -0.9538  0.1174  0.6877
 5576TIP3    H238220   2.925   3.319   6.159 -1.9549 -0.8431 -1.0735
 5577TIP3   OH238221   3.828   5.565   3.242  0.2657  0.5476  0.1683
 5577TIP3    H138222   3.751   5.611   3.209  0.5001  0.1743 -0.9398
 5577TIP3    H238223   3.869   5.526   3.164  0.7979 -0.4374  0.9075
 5578TIP3   OH238224   6.821   3.245   1.951 -0.1663  0.0656 -0.6621
 5578TIP3    H138225   6.814   3.153   1.927  0.0192  0.0339 -0.5921
 5578TIP3    H238226   6.879   3.283   1.885  0.2242  0.0097 -0.3551
 5579TIP3   OH238227   4.053   3.558  15.736 -0.1256 -0.0487  0.0680
 5579TIP3    H138228   4.007   3.633  15.698  0.8577  0.3696 -0.3289
 5579TIP3    H238229   4.064   3.581  15.828  2.6879  1.6553 -0.5824
 5580TIP3   OH238230   4.526   5.868   5.733 -0.1097  0.3621  0.3511
 5580TIP3    H138231   4.501   5.887   5.642  2.6324  0.6621 -0.4407
 5580TIP3    H238232   4.541   5.954   5.772 -1.1554  0.2278  1.0655
 5581TIP3   OH238233   2.666   2.631   0.291 -0.5011  0.1370 -0.1518
 5581TIP3    H138234   2.745   2.639   0.237 -0.3096  0.7708  0.2071
 5581TIP3    H238235   2.685   2.682   0.370 -0.2775 -1.8559  1.1313
 5582TIP3   OH238236   4.433   1.501  11.654 -0.6601  0.1696  0.4349
 5582TIP3    H138237   4.477   1.447  11.720 -0.9156  1.6367  1.8631
 5582TIP3    H238238   4.453   1.591  11.680 -1.9975  0.8118 -0.6499
 5583TIP3   OH238239   1.815   1.997  12.793  0.0247  0.1504 -0.4829
 5583TIP3    H138240   1.801   2.055  12.718  0.1737  0.0101 -0.6193
 5583TIP3    H238241   1.742   2.015  12.851  0.6503  1.2887 -0.0161
 5584TIP3   OH238242   0.171   5.273   6.130 -0.2403 -0.0022  0.0215
 5584TIP3    H138243   0.140   5.262   6.040 -3.1698 -0.1938  0.9738
 5584TIP3    H238244   0.112   5.220   6.183  0.8111  0.8653  2.1853
 5585TIP3   OH238245   2.211   4.406  15.361  0.7093  0.0934  0.2042
 5585TIP3    H138246   2.222   4.311  15.368  1.1013  0.2100  1.4192
 5585TIP3    H238247   2.255   4.441  15.438  2.5508  1.4316 -1.3677
 5586TIP3   OH238248   6.417   4.119  16.425  0.2635  0.2900  0.5938
 5586TIP3    H138249   6.511   4.134  16.423  0.3448 -0.2872 -0.5731
 5586TIP3    H238250   6.380   4.201  16.459  0.9942  1.4942 -1.3919
 5587TIP3   OH238251   5.083   2.854  15.655  0.3283 -0.5231 -0.5281
 5587TIP3    H138252   5.136   2.774  15.655  0.7859 -0.2291 -1.2174
 5587TIP3    H238253   5.145   2.924  15.675 -0.2244 -0.4184  0.9410
 5588TIP3   OH238254   2.555   3.534   4.441 -0.3967  0.3330 -0.5061
 5588TIP3    H138255   2.469   3.575   4.456  0.4068  2.2177 -0.7598
 5588TIP3    H238256   2.592   3.583   4.367  2.1362  1.6534  1.4755
 5589TIP3   OH238257   0.981   5.787   5.278  0.3038 -0.7280  0.1730
 5589TIP3    H138258   0.938   5.773   5.363  1.5598 -0.0737  0.9466
 5589TIP3    H238259   1.051   5.849   5.297  2.2482 -2.5059 -0.8424
 5590TIP3   OH238260   5.718   6.433   0.054  0.3482  0.2465  0.0732
 5590TIP3    H138261   5.770   6.510   0.031  0.6946 -0.5795 -2.0677
 5590TIP3    H238262   5.649   6.429  -0.012 -0.5116 -0.5185  0.9746
 5591TIP3   OH238263   0.701   2.606  11.190  0.0383  0.1513  0.0453
 5591TIP3    H138264   0.761   2.553  11.138  1.3949 -0.7788  2.4067
 5591TIP3    H238265   0.752   2.684  11.212  0.9196 -1.1133  2.9467
 5592TIP3   OH238266   4.596   2.734  11.864  0.7640  0.1091 -1.3732
 5592TIP3    H138267   4.502   2.726  11.881  1.1072  0.4715  0.9250
 5592TIP3    H238268   4.618   2.824  11.889  2.0004 -0.4746 -0.2259
 5593TIP3   OH238269   3.427   0.956   3.335  0.4014  0.1321  0.0675
 5593TIP3    H138270   3.504   1.004   3.306 -0.4650  1.7752  0.3852
 5593TIP3    H238271   3.364   0.965   3.264 -0.7415  1.8351  1.2255
 5594TIP3   OH238272   2.192   2.844   3.638 -0.4075  0.8730  0.5640
 5594TIP3    H138273   2.209   2.925   3.589 -0.7344  1.4127  1.3230
 5594TIP3    H238274   2.276   2.823   3.679  0.1904 -0.2062 -1.0721
 5595TIP3   OH238275   1.660   3.713  16.603 -0.2858  0.4487 -0.1073
 5595TIP3    H138276   1.618   3.773  16.664 -2.3168  1.2308 -2.1519
 5595TIP3    H238277   1.732   3.763  16.565 -1.6224  1.4863 -1.3867
 5596TIP3   OH238278   0.791   5.587  15.659  0.1458  0.2875 -0.2910
 5596TIP3    H138279   0.851   5.624  15.724 -0.2228  1.3405 -0.5316
 5596TIP3    H238280   0.841   5.589  15.577  0.1198  0.2630 -0.3073
 5597TIP3   OH238281   1.836   0.052  14.194 -0.1675 -0.3726  0.5481
 5597TIP3    H138282   1.750   0.011  14.193 -0.8491  0.9809  0.5834
 5597TIP3    H238283   1.898  -0.020  14.205 -1.2150 -1.4849 -0.6143
 5598TIP3   OH238284   5.654   2.382   6.066 -0.0150  0.2961  0.5323
 5598TIP3    H138285   5.585   2.355   6.128 -0.4390 -0.5775 -0.2987
 5598TIP3    H238286   5.720   2.424   6.121 -0.6773  0.1138  1.4979
 5599TIP3   OH238287   0.498   5.897   5.694  0.2270 -0.8511  0.3226
 5599TIP3    H138288   0.550   5.889   5.614  0.5988  1.4772  0.2409
 5599TIP3    H238289   0.415   5.855   5.674  1.6004 -3.6426  0.0501
 5600TIP3   OH238290   3.457   1.272   0.175  0.0117  0.9909  0.7656
 5600TIP3    H138291   3.436   1.357   0.136  0.3851  0.9427  0.4429
 5600TIP3    H238292   3.511   1.228   0.108 -0.5604  0.3168  0.7377
 5601TIP3   OH238293   2.999   5.916  12.019 -0.2410 -0.5772 -0.3104
 5601TIP3    H138294   3.060   5.988  12.003 -0.0095 -0.2898  1.6137
 5601TIP3    H238295   3.054   5.845  12.054 -0.9727 -0.3012  1.4868
 5602TIP3   OH238296   4.714   3.913  16.142 -0.2384  0.0518 -0.0059
 5602TIP3    H138297   4.634   3.933  16.092 -0.7499 -1.3995  0.1772
 5602TIP3    H238298   4.751   3.836  16.098 -0.1545 -0.6415  1.2302
 5603TIP3   OH238299   0.632   6.658  14.785  0.6388 -0.5526 -0.5969
 5603TIP3    H138300   0.604   6.574  14.822  2.0882 -0.8091 -0.0065
 5603TIP3    H238301   0.598   6.658  14.695 -0.4224 -1.2191 -0.2049
 5604TIP3   OH238302   1.000   5.630  17.208  0.4315 -0.3240 -0.0048
 5604TIP3    H138303   1.044   5.617  17.292  1.8403 -1.0084 -0.8129
 5604TIP3    H238304   1.071   5.632  17.144 -0.5691  0.7570 -1.1293
 5605TIP3   OH238305   1.580   6.665   5.368  0.1446  0.2089 -0.3683
 5605TIP3    H138306   1.567   6.711   5.451 -2.7374 -1.2068  0.0898
 5605TIP3    H238307   1.546   6.724   5.301  1.2192  0.7931 -0.4194
 5606TIP3   OH238308   1.923   2.455  15.115 -0.8126  0.1396  0.0441
 5606TIP3    H138309   1.842   2.507  15.113 -0.0384  1.3810  0.0109
 5606TIP3    H238310   1.898   2.370  15.077 -2.4358 -0.0155  1.3184
 5607TIP3   OH238311   1.978   3.224  11.777  0.2397  0.2323  0.3332
 5607TIP3    H138312   2.036   3.189  11.709  0.3139 -0.3608  0.6863
 5607TIP3    H238313   1.971   3.317  11.758 -1.6472 -0.2875 -1.9189
 5608TIP3   OH238314   6.609   5.871  10.398 -0.0749 -0.6622 -0.2303
 5608TIP3    H138315   6.584   5.961  10.377 -0.6345 -1.1348 -1.7264
 5608TIP3    H238316   6.703   5.875  10.417  0.0353  0.1267 -0.9246
 5609TIP3   OH238317   0.170   0.363  12.238 -0.3809 -0.3268 -0.2026
 5609TIP3    H138318   0.177   0.427  12.167  0.7261 -0.5289 -0.2903
 5609TIP3    H238319   0.105   0.400  12.297  1.2041  1.5879  0.4514
 5610TIP3   OH238320   4.577   6.056   3.620  0.1715 -0.3389  0.5413
 5610TIP3    H138321   4.574   5.965   3.647  2.7376 -0.2489  1.4542
 5610TIP3    H238322   4.502   6.097   3.663  0.3110 -1.5751  2.0450
 5611TIP3   OH238323   0.453   5.297  12.362  0.2455  0.2698  0.1939
 5611TIP3    H138324   0.454   5.262  12.451  1.1002  1.4602  0.6710
 5611TIP3    H238325   0.388   5.367  12.364 -0.1699 -0.0906 -0.2891
 5612TIP3   OH238326   0.873   0.164   0.533  0.3429 -0.4954  0.2186
 5612TIP3    H138327   0.786   0.166   0.493 -0.0010 -0.8835  0.9252
 5612TIP3    H238328   0.889   0.072   0.551  1.8998 -0.7378 -1.9787
 5613TIP3   OH238329   3.336   1.703   5.516 -0.6641 -0.0957  0.2032
 5613TIP3    H138330   3.294   1.757   5.582 -1.5932 -1.1446  0.5088
 5613TIP3    H238331   3.278   1.628   5.506 -0.1261 -0.3512 -1.2259
 5614TIP3   OH238332   0.038   5.408  12.360  0.0354  0.4770 -0.1386
 5614TIP3    H138333  -0.009   5.344  12.414  2.4600  0.1382  1.7638
 5614TIP3    H238334  -0.013   5.488  12.368  0.3065  0.4625  2.8567
 5615TIP3   OH238335   4.416   2.090   1.265 -0.2007 -0.3546 -0.4013
 5615TIP3    H138336   4.360   2.108   1.189  0.3076  1.1251 -0.4457
 5615TIP3    H238337   4.374   2.137   1.337  0.7129  0.3593 -0.3298
 5616TIP3   OH238338   2.046   0.133   0.021  0.7780 -0.2380 -0.5895
 5616TIP3    H138339   2.004   0.207   0.065  3.4939  0.9623  0.2023
 5616TIP3    H238340   1.996   0.120  -0.059  0.3060  2.5845 -0.8373
 5617TIP3   OH238341   1.491   5.445  13.867  0.0368 -0.0372  0.2471
 5617TIP3    H138342   1.415   5.464  13.921 -0.9189 -0.1074 -1.0275
 5617TIP3    H238343   1.456   5.392  13.794  1.3367 -0.2680 -0.2380
 5618TIP3   OH238344   1.839   4.748   0.235 -0.4198  0.2122 -0.1919
 5618TIP3    H138345   1.861   4.789   0.151 -2.7563 -1.5849 -1.8491
 5618TIP3    H238346   1.863   4.656   0.224 -2.3543 -0.4118  0.3862
 5619TIP3   OH238347   6.193   6.469  14.039  0.2346 -0.3052  0.6272
 5619TIP3    H138348   6.188   6.404  14.108  0.1408 -1.5149 -0.4940
 5619TIP3    H238349   6.131   6.439  13.973  0.0751  1.0066  0.1533
 5620TIP3   OH238350   2.019   2.567  15.331  0.3930  0.0887  0.1916
 5620TIP3    H138351   1.967   2.514  15.391  0.2515 -0.0439 -0.0500
 5620TIP3    H238352   1.997   2.535  15.244  1.5373 -0.5894  0.1263
 5621TIP3   OH238353   3.306   1.201  16.931  0.2038  0.2595  0.0075
 5621TIP3    H138354   3.240   1.214  16.862 -0.5766  0.0374  0.6927
 5621TIP3    H238355   3.384   1.244  16.897 -0.2748  0.4916 -0.8504
 5622TIP3   OH238356   3.553   0.498  13.421 -0.4731 -0.3483  0.5501
 5622TIP3    H138357   3.610   0.493  13.344 -0.6260 -2.0151  0.5075
 5622TIP3    H238358   3.574   0.583  13.461 -0.1200  0.3785 -1.0997
 5623TIP3   OH238359   0.506   6.374   4.759 -0.4190  0.3022 -0.2879
 5623TIP3    H138360   0.553   6.329   4.830  0.3879 -0.4881 -1.2910
 5623TIP3    H238361   0.448   6.308   4.723  3.4373 -1.3948 -4.2665
 5624TIP3   OH238362   2.516   3.700   6.385  0.2053 -0.2914 -0.1335
 5624TIP3    H138363   2.545   3.738   6.303 -2.1149 -0.1369 -0.9747
 5624TIP3    H238364   2.487   3.775   6.437  0.4917 -0.4871  0.3083
 5625TIP3   OH238365   4.883   1.563   2.439  0.2829  0.8489 -0.3516
 5625TIP3    H138366   4.848   1.548   2.351  1.5623 -1.3045 -0.5718
 5625TIP3    H238367   4.975   1.585   2.425  0.7737 -0.5245  0.4247
 5626TIP3   OH238368   5.942   5.061   2.329 -0.1981  0.2902 -0.1758
 5626TIP3    H138369   5.898   5.064   2.414  0.0765 -2.4038  0.1322
 5626TIP3    H238370   6.014   5.124   2.337 -2.2035  2.7012  0.2774
 5627TIP3   OH238371   3.619   5.723   3.128 -0.4840 -0.1722 -0.3276
 5627TIP3    H138372   3.593   5.659   3.062 -0.0437 -1.0549  0.3368
 5627TIP3    H238373   3.636   5.804   3.078 -1.4816 -0.4339 -1.1180
 5628TIP3   OH238374   5.986   5.721  11.923 -0.5293  0.0194  0.0641
 5628TIP3    H138375   6.071   5.686  11.897 -1.2373 -1.3861 -0.4305
 5628TIP3    H238376   5.953   5.764  11.844 -1.2691 -1.4451 -0.4457
 5629TIP3   OH238377   6.273   1.103   5.342  0.4866 -0.1609  0.2398
 5629TIP3    H138378   6.187   1.110   5.383  0.4099 -0.6520  0.1764
 5629TIP3    H238379   6.271   1.166   5.270  0.0708 -0.3819  0.0549
 5630TIP3   OH238380   1.109   1.385   4.173  0.4172 -0.2331 -0.2187
 5630TIP3    H138381   1.182   1.330   4.203  0.2122  0.4540  1.6720
 5630TIP3    H238382   1.096   1.448   4.243 -0.2070  1.4442 -1.7583
 5631TIP3   OH238383   1.386   5.825  12.475  0.3460  0.0786 -0.2255
 5631TIP3    H138384   1.375   5.801  12.567  0.7439  1.0238  0.0751
 5631TIP3    H238385   1.336   5.759  12.427 -0.8180  0.2324  0.7287
 5632TIP3   OH238386   3.732   6.248  13.964 -0.7350  0.1467  0.6172
 5632TIP3    H138387   3.825   6.261  13.980 -0.8386 -0.5406  1.8450
 5632TIP3    H238388   3.728   6.207  13.878  0.2352 -1.6034  1.3698
 5633TIP3   OH238389   0.526   0.583  13.374 -0.2713 -0.1906  0.2037
 5633TIP3    H138390   0.526   0.633  13.292  0.1270  0.3325  0.5120
 5633TIP3    H238391   0.468   0.632  13.432  0.2074 -0.0114  0.5435
 5634TIP3   OH238392   4.714   5.160   6.171 -0.3814 -0.0884  0.1374
 5634TIP3    H138393   4.806   5.146   6.194 -0.2813 -0.4339 -0.4627
 5634TIP3    H238394   4.666   5.111   6.238 -0.1284 -0.0922  0.3217
 5635TIP3   OH238395   5.220   2.594   2.547 -0.0316  0.2022  0.6252
 5635TIP3    H138396   5.251   2.524   2.604 -1.1398  0.2930  1.3676
 5635TIP3    H238397   5.161   2.550   2.486  1.3686  0.0537 -0.6929
 5636TIP3   OH238398   1.073   2.611   2.513  0.2221  0.4866  0.6508
 5636TIP3    H138399   1.147   2.614   2.452 -1.1250  0.7935 -1.0364
 5636TIP3    H238400   1.113   2.620   2.599  2.0118  2.5441 -0.3095
 5637TIP3   OH238401   4.510   5.511  13.051 -0.6553  0.4329 -0.4992
 5637TIP3    H138402   4.429   5.506  13.000 -0.8116  1.5495 -0.3710
 5637TIP3    H238403   4.523   5.604  13.068 -0.3000  0.1442  1.0047
 5638TIP3   OH238404   4.720   0.069   1.027  0.5961  0.8272 -0.2068
 5638TIP3    H138405   4.638   0.084   0.981 -0.4758  0.6614  1.5665
 5638TIP3    H238406   4.713  -0.021   1.059  1.3462  0.9189  0.2348
 5639TIP3   OH238407   3.778   1.455   3.414  0.5461 -0.0386 -0.2469
 5639TIP3    H138408   3.818   1.407   3.487  0.7492 -0.4230 -0.6061
 5639TIP3    H238409   3.849   1.465   3.351 -0.1278 -1.5248 -1.2979
 5640TIP3   OH238410   4.054   5.613  12.727 -0.0574 -0.2971 -0.2475
 5640TIP3    H138411   4.030   5.520  12.731 -0.8862 -0.0562  2.0347
 5640TIP3    H238412   4.000   5.654  12.795  2.4922  1.3285  0.9271
 5641TIP3   OH238413   0.877   3.585  16.871  0.3412 -0.2946  0.2074
 5641TIP3    H138414   0.781   3.584  16.873  0.2729  1.9449  0.0021
 5641TIP3    H238415   0.900   3.548  16.786 -0.4024  0.5213 -0.3563
 5642TIP3   OH238416   5.644   3.842   5.381  0.1744 -0.1754  0.3435
 5642TIP3    H138417   5.578   3.866   5.316  0.4620 -0.2611  0.0214
 5642TIP3    H238418   5.684   3.925   5.407 -0.6282 -0.0208  1.1601
 5643TIP3   OH238419   2.321   1.515  10.900  0.0885  0.3780 -0.1796
 5643TIP3    H138420   2.316   1.529  10.806 -0.5874  0.2694 -0.1704
 5643TIP3    H238421   2.230   1.499  10.926  0.3385 -0.1344  0.4028
 5644TIP3   OH238422   5.313   6.048   4.543 -0.2101  0.1688  0.2003
 5644TIP3    H138423   5.338   6.106   4.472  0.8332 -1.3861 -0.7613
 5644TIP3    H238424   5.258   6.101   4.600 -1.6868  1.2615 -2.1392
 5645TIP3   OH238425   2.349   4.442   1.315 -0.2891  0.1660 -0.2938
 5645TIP3    H138426   2.407   4.453   1.390 -0.5479 -1.0997  0.1029
 5645TIP3    H238427   2.409   4.432   1.240 -0.0219  0.2764 -0.0990
 5646TIP3   OH238428   3.645   2.458   6.548  0.0104  0.0688 -0.0315
 5646TIP3    H138429   3.731   2.443   6.510 -0.1316 -0.9444  0.0305
 5646TIP3    H238430   3.626   2.550   6.528 -0.0820 -0.4071 -2.5051
 5647TIP3   OH238431   4.548   3.924   5.658  0.0372 -0.1916 -0.3855
 5647TIP3    H138432   4.608   3.996   5.676 -0.9306  0.6449 -0.3751
 5647TIP3    H238433   4.465   3.952   5.696 -1.2838  0.2626 -3.2707
 5648TIP3   OH238434   2.493   3.902  12.274 -0.6731  0.2236  0.9513
 5648TIP3    H138435   2.428   3.898  12.344 -1.3652  0.7734  0.3582
 5648TIP3    H238436   2.442   3.907  12.194  0.1066  0.1900  0.4403
 5649TIP3   OH238437   3.113   6.047   2.999  0.1925  0.4212 -0.1182
 5649TIP3    H138438   3.164   6.128   3.005  1.2775 -0.1235 -1.4857
 5649TIP3    H238439   3.154   5.997   2.928 -0.6454 -1.1991  0.4700
 5650TIP3   OH238440   4.083   1.622   0.450  0.2476 -0.0432  0.2559
 5650TIP3    H138441   4.126   1.572   0.381 -1.5054 -0.6642 -0.4436
 5650TIP3    H238442   4.030   1.686   0.404  0.3455  0.6618  1.0915
 5651TIP3   OH238443   4.672   6.042   1.041  0.0738  0.2155 -0.1858
 5651TIP3    H138444   4.598   6.068   1.095  0.0604 -0.4986  0.1512
 5651TIP3    H238445   4.637   5.973   0.984  0.8896 -1.4727  1.2421
 5652TIP3   OH238446   5.015   4.459   0.602  0.2021  0.0811 -0.0072
 5652TIP3    H138447   5.012   4.461   0.698  0.5608  1.8738 -0.0010
 5652TIP3    H238448   5.107   4.475   0.581  0.5753 -2.5296 -0.6733
 5653TIP3   OH238449   4.825   2.904  16.015  0.6100 -0.1477  0.2040
 5653TIP3    H138450   4.807   2.997  16.006  0.2559 -0.3827 -1.9289
 5653TIP3    H238451   4.739   2.863  16.021  0.6306 -0.5671 -1.8721
 5654TIP3   OH238452   5.686   4.694  15.536 -0.3590  0.0750 -0.3103
 5654TIP3    H138453   5.624   4.620  15.532  1.2436 -1.5827  2.3255
 5654TIP3    H238454   5.711   4.699  15.628  2.2899  1.6584 -1.0104
 5655TIP3   OH238455   5.488   6.538  12.376 -0.4353  0.3775 -0.1527
 5655TIP3    H138456   5.466   6.445  12.387  0.0257  0.2418 -0.3813
 5655TIP3    H238457   5.404   6.581  12.361 -0.6681  0.0191  0.1152
 5656TIP3   OH238458   6.661   0.669  11.564  0.1704 -0.1984 -0.2855
 5656TIP3    H138459   6.702   0.698  11.483  1.2143 -0.1730  0.2283
 5656TIP3    H238460   6.605   0.596  11.538  1.8240 -1.3365 -0.8109
 5657TIP3   OH238461   0.465   6.643  15.569 -0.1864  0.3344  0.3809
 5657TIP3    H138462   0.419   6.589  15.506 -0.0849  0.0198  0.5740
 5657TIP3    H238463   0.396   6.680  15.624 -0.2811  0.6956  0.0172
 5658TIP3   OH238464   3.421   6.159   1.567 -0.5105  0.0065 -0.0226
 5658TIP3    H138465   3.508   6.187   1.537 -1.2495  0.1549 -2.2502
 5658TIP3    H238466   3.429   6.065   1.581  0.1974  0.1477  0.5712
 5659TIP3   OH238467   3.255   0.225  15.845 -0.1826  0.4478  1.0479
 5659TIP3    H138468   3.269   0.143  15.891 -1.0881  0.2365  0.9578
 5659TIP3    H238469   3.176   0.211  15.793 -0.0472  1.1966  0.6182
 5660TIP3   OH238470   4.794   4.326   6.431 -0.0587 -0.1655 -0.0086
 5660TIP3    H138471   4.813   4.338   6.525  0.2990 -0.6012 -0.0257
 5660TIP3    H238472   4.791   4.415   6.396 -1.0282  0.0497  0.5752
 5661TIP3   OH238473   4.074   1.694  14.417 -0.0211  0.1636  0.0423
 5661TIP3    H138474   4.115   1.780  14.408  1.1839 -0.3130  0.7408
 5661TIP3    H238475   4.046   1.690  14.508 -3.0417  1.0429 -0.7360
 5662TIP3   OH238476   0.251   0.495  16.517  0.1167  0.6085 -0.1414
 5662TIP3    H138477   0.332   0.529  16.553 -0.3250  2.8447 -1.0932
 5662TIP3    H238478   0.264   0.495  16.422 -1.6275  3.0254 -0.4816
 5663TIP3   OH238479   3.886   2.280  11.164  0.0763 -0.4935 -0.2449
 5663TIP3    H138480   3.796   2.262  11.138  0.2050  0.9140 -1.8243
 5663TIP3    H238481   3.939   2.224  11.108  0.2843  1.2803 -1.9104
 5664TIP3   OH238482   4.067   6.289  14.986 -0.3716 -0.0254  0.1403
 5664TIP3    H138483   3.978   6.284  14.950 -0.0795  2.2882 -1.1226
 5664TIP3    H238484   4.074   6.379  15.018  1.2824 -0.4012  0.8793
 5665TIP3   OH238485   4.174   5.432  13.146  0.4021  0.1740 -0.3550
 5665TIP3    H138486   4.207   5.435  13.056  1.6192 -0.1058  0.0670
 5665TIP3    H238487   4.146   5.342  13.159  0.8986  0.0400 -0.2195
 5666TIP3   OH238488   3.854   1.544   0.820 -0.5005  0.6232  0.4039
 5666TIP3    H138489   3.831   1.501   0.903 -0.5575  0.7961  0.4789
 5666TIP3    H238490   3.781   1.603   0.803 -0.4836  0.5956  0.2337
 5667TIP3   OH238491   0.463   4.200  17.217 -0.0059  0.0571 -0.3200
 5667TIP3    H138492   0.494   4.278  17.263  0.8371 -0.7787  0.6012
 5667TIP3    H238493   0.531   4.182  17.152 -0.0800 -0.0312 -0.3723
 5668TIP3   OH238494   4.140   1.667  16.944 -0.2044 -0.1428  0.4943
 5668TIP3    H138495   4.184   1.644  17.026 -1.1699 -0.6208  0.9073
 5668TIP3    H238496   4.105   1.755  16.959 -1.8133 -0.8572  1.2666
 5669TIP3   OH238497   1.456   5.991   1.326 -0.7588  0.4779 -0.0657
 5669TIP3    H138498   1.540   5.960   1.293 -0.7263  0.3364  0.1472
 5669TIP3    H238499   1.392   5.933   1.286 -0.7349  0.4380 -0.0470
 5670TIP3   OH238500   3.319   3.307   3.118  0.0933  0.1917  0.0422
 5670TIP3    H138501   3.268   3.227   3.104 -2.1882  1.2906  1.5191
 5670TIP3    H238502   3.370   3.317   3.037 -1.7957 -1.1774 -1.4291
 5671TIP3   OH238503   4.637   1.980  11.247 -0.1769 -0.4214 -0.0884
 5671TIP3    H138504   4.630   1.996  11.153 -0.5195  0.2691  0.0489
 5671TIP3    H238505   4.688   2.054  11.280 -0.0321 -0.6763  0.2669
 5672TIP3   OH238506   6.822   6.671   4.519 -0.3548 -0.4960  0.3662
 5672TIP3    H138507   6.860   6.650   4.604 -0.7253 -1.5742  0.2713
 5672TIP3    H238508   6.775   6.753   4.533 -0.1307 -0.4941  1.1086
 5673TIP3   OH238509   4.326   0.529  15.156 -0.5355  0.5057  0.2454
 5673TIP3    H138510   4.372   0.481  15.225 -0.8189  2.2037  1.7138
 5673TIP3    H238511   4.366   0.616  15.158 -1.8444  1.1450 -0.4360
 5674TIP3   OH238512   3.889   1.545  13.267 -0.6105 -0.6639  0.1689
 5674TIP3    H138513   3.890   1.453  13.295 -1.1096 -0.6512  0.2197
 5674TIP3    H238514   3.797   1.569  13.264 -0.4561  0.0165  0.7273
 5675TIP3   OH238515   1.527   3.315  16.071 -0.4382 -0.1860  0.9707
 5675TIP3    H138516   1.593   3.332  16.139 -0.9871  0.2052  1.4172
 5675TIP3    H238517   1.520   3.219  16.068 -0.3925 -0.2075  1.4553
 5676TIP3   OH238518   1.892   1.030   5.029 -0.3715  0.4168 -0.3948
 5676TIP3    H138519   1.898   0.985   4.944 -2.8101 -1.9077  0.5136
 5676TIP3    H238520   1.979   1.024   5.066  0.3398  0.0329 -2.0430
 5677TIP3   OH238521   4.288   2.794   2.314 -0.2274  0.1937 -0.3582
 5677TIP3    H138522   4.235   2.752   2.382  0.1041 -1.2518 -0.9585
 5677TIP3    H238523   4.243   2.775   2.232  0.7620 -0.3572 -0.7914
 5678TIP3   OH238524   4.758   3.419  14.300  0.5978  0.3512  0.3609
 5678TIP3    H138525   4.818   3.362  14.348 -0.1443  0.5208  1.5169
 5678TIP3    H238526   4.798   3.506  14.305  2.0427 -0.0778 -1.9137
 5679TIP3   OH238527   5.037   6.109  13.993  0.0664 -0.0732 -0.1070
 5679TIP3    H138528   4.943   6.105  14.009 -0.0686  1.5465 -0.3482
 5679TIP3    H238529   5.068   6.021  14.013 -1.3709 -0.4193  0.7636
 5680TIP3   OH238530   2.166   2.783  13.031 -0.2943  0.0572  0.5254
 5680TIP3    H138531   2.175   2.837  12.953 -0.3636  0.5862  0.8824
 5680TIP3    H238532   2.073   2.787  13.053 -0.5338 -1.1831 -0.1328
 5681TIP3   OH238533   5.936   0.701   5.920  0.2158  0.0798 -0.5426
 5681TIP3    H138534   5.883   0.770   5.960 -3.0578 -1.6860 -1.4573
 5681TIP3    H238535   5.999   0.677   5.988  0.8722  3.2106  0.1400
 5682TIP3   OH238536   1.344   1.949  13.322  0.1038 -0.6781 -0.0093
 5682TIP3    H138537   1.259   1.953  13.278  0.9479  0.9750 -1.6448
 5682TIP3    H238538   1.329   1.989  13.407 -0.9250 -1.1895  0.0664
 5683TIP3   OH238539   0.632   5.574  12.969 -0.1699 -0.1966  0.1106
 5683TIP3    H138540   0.571   5.635  12.926 -0.1171  0.7386  1.3046
 5683TIP3    H238541   0.576   5.504  13.003 -0.6178  0.6860  1.2535
 5684TIP3   OH238542   4.881   0.876  16.206 -0.2401  0.2427 -0.0880
 5684TIP3    H138543   4.843   0.865  16.119 -0.2471 -2.6480  0.1672
 5684TIP3    H238544   4.807   0.864  16.266 -0.0509  1.1659  0.3373
 5685TIP3   OH238545   5.765   0.823  12.647  0.6436 -0.1055  0.3042
 5685TIP3    H138546   5.759   0.858  12.736  0.5776  0.6826  0.0047
 5685TIP3    H238547   5.812   0.891  12.598 -0.2688 -0.0229 -0.5045
 5686TIP3   OH238548   0.689   4.895   1.473  0.1900  0.2703 -0.2405
 5686TIP3    H138549   0.703   4.979   1.517 -0.3142  1.0050 -1.4292
 5686TIP3    H238550   0.636   4.845   1.534  2.7841 -0.2883  1.7189
 5687TIP3   OH238551   3.282   3.911   6.019  0.0507  0.0958 -0.0186
 5687TIP3    H138552   3.337   3.934   6.094 -1.4617  2.5900  0.4394
 5687TIP3    H238553   3.338   3.926   5.943  0.7335  0.2955  0.5109
 5688TIP3   OH238554   4.538   5.530   2.687  0.0966  0.1294 -0.0301
 5688TIP3    H138555   4.552   5.597   2.621 -0.7388  2.0120  1.5997
 5688TIP3    H238556   4.568   5.570   2.769  1.2134 -2.1518  0.7839
 5689TIP3   OH238557   6.804   3.305  13.316 -0.4483 -0.0503  0.0461
 5689TIP3    H138558   6.765   3.291  13.230  0.2913 -1.5328 -0.0852
 5689TIP3    H238559   6.739   3.357  13.364 -1.3600 -0.1561 -1.0351
 5690TIP3   OH238560   1.793   3.330  17.126  0.2833 -0.4072  0.0896
 5690TIP3    H138561   1.835   3.397  17.071  1.6823 -1.4291 -0.1590
 5690TIP3    H238562   1.835   3.340  17.211  0.2929 -0.7786  0.1287
 5691TIP3   OH238563   0.675   0.102   2.390  0.4003 -0.4081  0.6173
 5691TIP3    H138564   0.647   0.011   2.396 -2.5309  0.3696  0.0565
 5691TIP3    H238565   0.628   0.137   2.315  2.7680  1.1815 -0.2331
 5692TIP3   OH238566   0.754   0.551  16.231  0.1660  0.3220 -0.2595
 5692TIP3    H138567   0.684   0.488  16.215  0.3200  0.5452 -2.1315
 5692TIP3    H238568   0.819   0.502  16.282 -0.3631 -0.5886 -0.4400
 5693TIP3   OH238569   2.358   1.488   1.667 -0.2765 -0.1128 -0.8829
 5693TIP3    H138570   2.315   1.427   1.608 -0.3073  0.3058 -1.3002
 5693TIP3    H238571   2.451   1.464   1.663 -0.2310  0.1375 -1.3752
 5694TIP3   OH238572   5.723   2.949  16.366 -0.4906 -0.0746 -0.0354
 5694TIP3    H138573   5.776   3.029  16.359 -0.8258  0.2445  0.8743
 5694TIP3    H238574   5.638   2.975  16.331 -0.4996 -0.1341 -0.0565
 5695TIP3   OH238575   5.740   4.357   2.206 -0.2708 -0.3285 -0.0549
 5695TIP3    H138576   5.831   4.341   2.231 -0.0012  1.3366  0.1877
 5695TIP3    H238577   5.732   4.323   2.118  0.4855 -0.8177  0.0651
 5696TIP3   OH238578   6.050   5.697   2.083 -0.5516 -0.0514  0.4531
 5696TIP3    H138579   6.026   5.751   2.007 -0.6708  0.1840  0.6562
 5696TIP3    H238580   6.032   5.608   2.056  0.5628 -0.0903 -0.2500
 5697TIP3   OH238581   5.496   5.122   1.069  0.0286 -0.2072  0.2418
 5697TIP3    H138582   5.442   5.065   1.124  0.8328 -0.3359  0.9010
 5697TIP3    H238583   5.478   5.210   1.101 -1.2188 -0.0508 -0.7805
 5698TIP3   OH238584   2.207   5.966   1.926 -0.2068 -0.0592 -0.4857
 5698TIP3    H138585   2.179   5.973   2.017  0.4275 -1.4335 -0.1621
 5698TIP3    H238586   2.185   5.876   1.901  1.4573 -0.3522 -1.0332
 5699TIP3   OH238587   4.389   3.317   2.770  0.1212  0.5873 -0.5395
 5699TIP3    H138588   4.395   3.303   2.864  1.4219 -0.5217 -0.7672
 5699TIP3    H238589   4.449   3.389   2.752  1.8723 -0.8666 -0.8215
 5700TIP3   OH238590   6.754   0.404   3.629 -0.1760 -0.1565 -0.1307
 5700TIP3    H138591   6.828   0.394   3.568 -1.1237 -0.5921 -1.2401
 5700TIP3    H238592   6.775   0.344   3.701 -0.3230 -1.7080 -1.3224
 5701TIP3   OH238593   2.570   3.936  15.681  0.0666 -0.3868 -0.0850
 5701TIP3    H138594   2.559   4.017  15.631  2.6368  0.1401  0.0738
 5701TIP3    H238595   2.646   3.952  15.737  0.3497 -2.7504  0.3238
 5702TIP3   OH238596   5.768   1.738  15.892 -0.3632  0.0847  0.4812
 5702TIP3    H138597   5.757   1.655  15.939 -0.9607  0.7078  1.4708
 5702TIP3    H238598   5.832   1.786  15.944  1.9540 -0.7257 -1.4634
 5703TIP3   OH238599   6.365   6.694  10.579  0.1382 -0.2726  0.5561
 5703TIP3    H138600   6.362   6.770  10.638  0.0367  0.3980 -0.2852
 5703TIP3    H238601   6.422   6.631  10.624  0.9473  0.6519  0.8784
 5704TIP3   OH238602   3.336   0.036   5.765 -0.4100 -0.1243  0.9271
 5704TIP3    H138603   3.312   0.120   5.727 -0.8066  0.9301  3.2944
 5704TIP3    H238604   3.303   0.040   5.855  0.3559 -2.4587  1.3888
 5705TIP3   OH238605   3.005   6.715  16.565 -0.5256 -0.3071 -0.4119
 5705TIP3    H138606   3.004   6.810  16.552 -1.0951 -0.2060  0.2914
 5705TIP3    H238607   3.089   6.698  16.607 -0.6263 -0.0410 -0.0928
 5706TIP3   OH238608   0.487   1.886  15.757  0.1617 -0.1992 -0.3716
 5706TIP3    H138609   0.484   1.974  15.719  1.1756 -0.5287 -1.2654
 5706TIP3    H238610   0.538   1.896  15.837  1.4284 -0.1776 -1.1501
 5707TIP3   OH238611   1.988   5.056  11.676 -0.0513 -0.3117 -0.3419
 5707TIP3    H138612   1.983   5.135  11.622 -1.0963  0.9039  1.4394
 5707TIP3    H238613   1.901   5.018  11.669 -0.3143  0.0604  0.7330
 5708TIP3   OH238614   0.428   3.928  15.765 -0.4151  1.0003 -0.2343
 5708TIP3    H138615   0.450   3.856  15.706  1.1540  2.2034 -1.2094
 5708TIP3    H238616   0.334   3.942  15.752  0.0510  2.1253 -3.6384
 5709TIP3   OH238617   2.309   0.628  13.422  0.3575 -0.6443  0.5703
 5709TIP3    H138618   2.291   0.534  13.428  1.8300 -0.9439  0.8114
 5709TIP3    H238619   2.349   0.639  13.336 -1.8940  0.1797 -0.4329
 5710TIP3   OH238620   4.715   0.217  13.704  0.0863 -0.8125 -0.2893
 5710TIP3    H138621   4.737   0.141  13.650  2.0033  0.2650 -1.1480
 5710TIP3    H238622   4.681   0.180  13.785  2.3269 -2.6611 -0.0956
 5711TIP3   OH238623   2.552   1.234   1.083 -0.0645  0.3948  0.3103
 5711TIP3    H138624   2.476   1.221   1.140 -0.0017 -1.7397 -0.0171
 5711TIP3    H238625   2.515   1.243   0.995 -0.0523  2.0065  0.4313
 5712TIP3   OH238626   0.849   3.545   6.330 -0.1483  0.1897  0.4890
 5712TIP3    H138627   0.812   3.512   6.247 -1.2023 -0.4560  1.1878
 5712TIP3    H238628   0.921   3.485   6.349  2.2025  2.1502 -1.4956
 5713TIP3   OH238629   4.667   1.681   1.603 -0.5405 -0.6067  0.2838
 5713TIP3    H138630   4.685   1.671   1.510  1.3410 -0.5339  0.6072
 5713TIP3    H238631   4.692   1.597   1.642  1.2085  0.2209  1.0404
 5714TIP3   OH238632   3.810   6.556  13.643 -0.3934 -0.3075  0.0065
 5714TIP3    H138633   3.896   6.538  13.606 -0.8206  0.5143 -1.4634
 5714TIP3    H238634   3.801   6.651  13.638 -0.1312 -0.0236  3.1223
 5715TIP3   OH238635   3.382   1.113   2.726  0.1288 -0.2804 -0.2162
 5715TIP3    H138636   3.301   1.085   2.684  0.4598  0.2784 -1.2743
 5715TIP3    H238637   3.382   1.208   2.718  1.4609 -0.3453 -1.3920
 5716TIP3   OH238638   3.655   3.003   4.848  0.3560  0.4209  0.3044
 5716TIP3    H138639   3.561   3.014   4.861  0.3428  1.0160 -0.2744
 5716TIP3    H238640   3.678   2.929   4.905 -0.6403 -0.3919 -0.3101
 5717TIP3   OH238641   1.820   0.359  16.772  0.1576 -0.0452 -0.5389
 5717TIP3    H138642   1.895   0.363  16.712 -1.7725  0.9531 -3.0194
 5717TIP3    H238643   1.815   0.446  16.811  0.8413 -0.4186  0.4429
 5718TIP3   OH238644   2.811   5.472  10.980 -0.6682  0.3702  0.6591
 5718TIP3    H138645   2.736   5.438  10.932  0.6028 -0.5472 -0.7594
 5718TIP3    H238646   2.881   5.479  10.915  0.5135  1.1295  1.9462
 5719TIP3   OH238647   5.993   6.056   4.392 -0.3081 -0.1755 -0.2433
 5719TIP3    H138648   5.937   6.086   4.320  0.2294 -1.6414 -1.3223
 5719TIP3    H238649   5.943   6.077   4.471 -2.2914 -1.1648 -1.1619
 5720TIP3   OH238650   1.017   0.131  11.732 -0.0913  0.1013  0.2354
 5720TIP3    H138651   0.929   0.130  11.694  0.3760  0.8378 -0.9313
 5720TIP3    H238652   1.062   0.200  11.685  1.6892 -1.4975 -0.5254
 5721TIP3   OH238653   0.052   3.777  12.076 -0.1707  0.0743  0.0557
 5721TIP3    H138654   0.027   3.869  12.089  1.4806  0.8165 -1.5575
 5721TIP3    H238655  -0.019   3.740  12.024 -0.5939  0.5868  0.2623
 5722TIP3   OH238656   1.033   4.290   6.085 -0.1026 -0.0598 -0.7826
 5722TIP3    H138657   1.060   4.316   6.173  0.4599 -1.4602 -0.5075
 5722TIP3    H238658   1.106   4.236   6.053 -0.6031 -0.1323 -1.8406
 5723TIP3   OH238659   5.685   3.711  11.603  0.2346  0.3162  0.4754
 5723TIP3    H138660   5.765   3.662  11.618  0.6694  0.9026  0.1210
 5723TIP3    H238661   5.711   3.803  11.612 -0.4124  0.5070  0.4466
 5724TIP3   OH238662   2.973   2.852   3.113  0.1476  0.6847  0.5065
 5724TIP3    H138663   2.920   2.832   3.190 -0.5018 -1.6131 -0.4438
 5724TIP3    H238664   3.033   2.777   3.105 -0.0858  0.6568 -1.4191
 5725TIP3   OH238665   2.867   4.980   4.224  0.4739 -0.1776 -0.4125
 5725TIP3    H138666   2.911   4.895   4.223 -1.3869 -1.2790  1.8336
 5725TIP3    H238667   2.793   4.969   4.165  0.8359  0.2633 -0.9532
 5726TIP3   OH238668   1.545   5.328  16.788 -0.4910  0.0430 -0.2063
 5726TIP3    H138669   1.546   5.257  16.853 -2.1305  0.5711  0.4528
 5726TIP3    H238670   1.630   5.322  16.745  2.3479  1.9546  4.4374
 5727TIP3   OH238671   0.399   4.296   0.607  0.3180  0.4391 -0.3539
 5727TIP3    H138672   0.412   4.206   0.638  1.1477  0.7190  0.1505
 5727TIP3    H238673   0.333   4.332   0.667 -1.6465 -0.4617 -1.8666
 5728TIP3   OH238674   3.597   1.410   1.364  0.5437 -0.5213 -0.1636
 5728TIP3    H138675   3.571   1.410   1.456  1.9304 -0.8740  0.2469
 5728TIP3    H238676   3.689   1.435   1.365 -0.0681  2.1786 -1.6840
 5729TIP3   OH238677   6.319   3.050  12.214  0.4924  0.6745 -0.0028
 5729TIP3    H138678   6.405   3.092  12.210  1.7018 -1.3500  2.0101
 5729TIP3    H238679   6.285   3.055  12.125  2.8626  1.2130 -0.9475
 5730TIP3   OH238680   4.363   5.364  13.372  0.3151 -0.1445  0.2403
 5730TIP3    H138681   4.368   5.283  13.321 -1.4593 -1.2055  1.6522
 5730TIP3    H238682   4.306   5.421  13.320  0.9147 -0.0823 -0.3640
 5731TIP3   OH238683   2.321   3.907  13.633  0.3307  0.6414 -0.1108
 5731TIP3    H138684   2.386   3.922  13.564  0.0625  1.4584 -0.1997
 5731TIP3    H238685   2.267   3.987  13.633 -0.7688 -0.0828 -0.1390
 5732TIP3   OH238686   4.141   3.465   5.791 -0.1284 -0.0903 -0.0508
 5732TIP3    H138687   4.232   3.485   5.810 -0.2548  0.1387  0.3258
 5732TIP3    H238688   4.120   3.391   5.848 -0.2742  0.0745  0.1117
 5733TIP3   OH238689   4.804   1.286  13.530 -0.3227  0.2618  0.6124
 5733TIP3    H138690   4.835   1.268  13.619 -0.1819 -2.7732  0.0370
 5733TIP3    H238691   4.883   1.291  13.477 -0.4859  0.5334  0.3893
 5734TIP3   OH238692   3.562   2.985  10.634  0.0096  0.9999 -0.2580
 5734TIP3    H138693   3.484   3.041  10.640 -0.1166  0.7750  0.2386
 5734TIP3    H238694   3.605   2.996  10.719 -2.0401 -2.6258  1.4837
 5735TIP3   OH238695   4.873   0.021   2.084  0.0528  0.1688 -0.0486
 5735TIP3    H138696   4.919   0.026   2.168 -0.7825 -1.2561  0.5298
 5735TIP3    H238697   4.783   0.045   2.105 -0.2867 -0.7491 -0.4179
 5736TIP3   OH238698   5.740   4.985   3.747  0.6281  0.0699 -0.4176
 5736TIP3    H138699   5.807   4.917   3.754 -0.7662 -1.3078  0.0668
 5736TIP3    H238700   5.681   4.954   3.679  0.1309  0.9612 -0.4146
 5737TIP3   OH238701   6.820   3.282   4.169  0.0989  0.0723 -0.4813
 5737TIP3    H138702   6.874   3.223   4.117 -0.7689 -0.6179 -0.6213
 5737TIP3    H238703   6.760   3.321   4.106 -2.8365 -2.8338  0.2839
 5738TIP3   OH238704   5.518   1.550  14.773  0.1094  0.2427 -0.4589
 5738TIP3    H138705   5.602   1.595  14.785  0.9726 -1.1114 -1.1426
 5738TIP3    H238706   5.531   1.496  14.695 -1.5387  0.2796 -0.7952
 5739TIP3   OH238707   6.541   0.207   5.590 -0.5781  0.2824  1.1197
 5739TIP3    H138708   6.453   0.238   5.569 -0.6302 -0.5346  0.0247
 5739TIP3    H238709   6.591   0.216   5.508 -0.4122 -1.7516  0.9216
 5740TIP3   OH238710   0.500   0.851   2.449 -0.2941  0.3696  0.5192
 5740TIP3    H138711   0.432   0.816   2.392  0.4591  1.1472 -0.8936
 5740TIP3    H238712   0.521   0.937   2.412  0.7504  0.5667  1.5171
 5741TIP3   OH238713   2.931   2.160   3.808  0.0710 -0.3793  0.0432
 5741TIP3    H138714   2.883   2.086   3.771  2.3475 -0.6605 -2.6812
 5741TIP3    H238715   2.881   2.237   3.780  0.4561 -0.7148 -1.6699
 5742TIP3   OH238716   0.762   1.879   2.382  0.3387 -0.9452 -0.0836
 5742TIP3    H138717   0.714   1.953   2.344  0.8068 -0.1925  0.7428
 5742TIP3    H238718   0.851   1.888   2.348  0.5358 -0.7957  0.4611
 5743TIP3   OH238719   1.824   5.451   3.318  0.7681  0.4588 -0.1331
 5743TIP3    H138720   1.770   5.376   3.291 -0.8942  1.4175  0.3272
 5743TIP3    H238721   1.827   5.507   3.241  2.2732 -0.1917 -0.5749
 5744TIP3   OH238722   5.005   4.445  10.701  0.5658 -0.2387  0.0140
 5744TIP3    H138723   4.978   4.477  10.614 -0.1721 -0.9818 -0.0458
 5744TIP3    H238724   4.972   4.355  10.704  2.1728 -0.8417  0.3649
 5745TIP3   OH238725   0.784   2.564  15.972  0.6652 -0.2300 -0.6765
 5745TIP3    H138726   0.780   2.496  15.905  0.5689 -0.7102 -0.1910
 5745TIP3    H238727   0.837   2.526  16.042 -0.9920 -0.5747  0.4504
 5746TIP3   OH238728   5.688   3.284   1.454  0.1765  0.2029  0.2986
 5746TIP3    H138729   5.661   3.218   1.390  0.1629  0.3651  0.1388
 5746TIP3    H238730   5.608   3.332   1.474  0.6574  1.9438 -1.5963
 5747TIP3   OH238731   3.085   4.023  12.601 -0.0116  0.0046 -0.2188
 5747TIP3    H138732   2.994   3.997  12.617 -0.0948  0.5675  0.2611
 5747TIP3    H238733   3.099   4.003  12.509 -0.9777  0.9419 -0.5945
 5748TIP3   OH238734   1.830   5.899   0.506 -0.1453  0.0042 -0.3754
 5748TIP3    H138735   1.820   5.943   0.591 -0.8896  1.4420 -1.1730
 5748TIP3    H238736   1.805   5.965   0.442 -0.0138 -1.1992 -1.7057
 5749TIP3   OH238737   3.042   1.479   1.111 -0.3919 -0.0342  0.0999
 5749TIP3    H138738   3.102   1.480   1.185  0.0036 -2.1981 -0.1162
 5749TIP3    H238739   3.068   1.402   1.061 -0.1943  1.7104 -2.6966
 5750TIP3   OH238740   5.333   5.505  11.801  0.2240 -0.2239  0.0115
 5750TIP3    H138741   5.268   5.566  11.766  0.3633  1.0381  1.8149
 5750TIP3    H238742   5.415   5.532  11.759  0.2444  0.7406  0.6239
 5751TIP3   OH238743   4.697   2.178   6.220 -0.0553 -0.0462 -0.2400
 5751TIP3    H138744   4.678   2.165   6.127 -2.8901 -0.9057  0.3425
 5751TIP3    H238745   4.681   2.271   6.235 -2.1960 -0.3642 -0.1939
 5752TIP3   OH238746   2.976   4.425  12.040  0.0089  0.6907 -0.0180
 5752TIP3    H138747   3.063   4.444  12.005  1.1969 -2.5097  0.7670
 5752TIP3    H238748   2.917   4.435  11.966  1.5204  0.1013 -1.3755
 5753TIP3   OH238749   5.745   5.363   2.577  0.0948  0.1908  0.5194
 5753TIP3    H138750   5.720   5.414   2.654 -2.0648  0.5048 -0.3258
 5753TIP3    H238751   5.831   5.397   2.553  0.3589  0.7840  2.1761
 5754TIP3   OH238752   2.829   6.317  11.366 -0.4028 -0.1090 -0.1623
 5754TIP3    H138753   2.781   6.309  11.448  0.4186  0.9908  0.4505
 5754TIP3    H238754   2.873   6.402  11.372  0.4691 -0.4540 -1.3086
 5755TIP3   OH238755   1.292   1.839  11.781  0.0418 -0.6736  0.4492
 5755TIP3    H138756   1.380   1.803  11.775  0.2168 -0.0232 -2.2864
 5755TIP3    H238757   1.304   1.926  11.819  0.1958 -1.6008  2.6204
 5756TIP3   OH238758   1.204   3.670  13.891 -0.1911  0.0996 -0.7175
 5756TIP3    H138759   1.150   3.606  13.845 -1.2615 -0.7635  1.5755
 5756TIP3    H238760   1.294   3.642  13.874 -0.5162  0.0254 -2.4828
 5757TIP3   OH238761   1.750   6.037  12.285  0.2573  0.1332 -0.6236
 5757TIP3    H138762   1.676   6.097  12.278  0.8409  1.2224  1.6960
 5757TIP3    H238763   1.711   5.956  12.318  0.0035  0.4536 -0.1329
 5758TIP3   OH238764   4.183   2.554   2.426  0.4401  0.2436 -0.1139
 5758TIP3    H138765   4.101   2.584   2.466  0.3689  1.1085 -0.8979
 5758TIP3    H238766   4.179   2.458   2.434  0.0059  0.3363  1.1040
 5759TIP3   OH238767   6.298   3.271  16.140 -0.4734  0.6738  0.2501
 5759TIP3    H138768   6.318   3.360  16.112  0.1589  0.6160  0.5047
 5759TIP3    H238769   6.228   3.281  16.205 -0.5661  0.9659  0.1025
 5760TIP3   OH238770   6.031   1.198  16.077 -0.5068  0.2646 -0.2917
 5760TIP3    H138771   6.015   1.174  15.986 -0.0976  0.5663 -0.4450
 5760TIP3    H238772   5.945   1.220  16.112 -0.6608  0.1639 -0.6079
 5761TIP3   OH238773   1.467   4.289   5.287  0.5035 -0.3926  0.1198
 5761TIP3    H138774   1.548   4.339   5.279  1.6431 -1.7789  2.0775
 5761TIP3    H238775   1.492   4.199   5.265 -0.7003 -0.7167 -0.0150
 5762TIP3   OH238776   0.656   3.432  11.495  0.3608  0.1875  0.0299
 5762TIP3    H138777   0.688   3.480  11.418  1.2594 -0.6441 -0.1330
 5762TIP3    H238778   0.638   3.500  11.560  1.7665  0.7383 -0.1341
 5763TIP3   OH238779   2.806   3.856   2.291 -0.2102 -0.2118  0.0939
 5763TIP3    H138780   2.742   3.914   2.333  1.0442  0.8718  0.5577
 5763TIP3    H238781   2.753   3.785   2.254 -1.5656  0.0099  1.5255
 5764TIP3   OH238782   1.897   6.181   2.420  1.0839 -0.2311 -1.0733
 5764TIP3    H138783   1.901   6.268   2.381 -3.0383 -0.1841 -1.8268
 5764TIP3    H238784   1.886   6.197   2.514  0.1865  0.1020 -1.2266
 5765TIP3   OH238785   1.693   3.824  13.669 -0.5445  0.0275 -0.2736
 5765TIP3    H138786   1.702   3.919  13.665  0.7757 -0.0700 -0.1885
 5765TIP3    H238787   1.710   3.802  13.760  1.0776 -0.4289 -0.6558
 5766TIP3   OH238788   2.693   5.134  12.762 -0.2094 -0.5159  0.0620
 5766TIP3    H138789   2.610   5.095  12.733  0.0793 -0.0820 -1.4646
 5766TIP3    H238790   2.676   5.163  12.851 -1.4612 -1.1268  0.0525
 5767TIP3   OH238791   5.809   1.705  15.074  0.6061  0.2440  0.1663
 5767TIP3    H138792   5.865   1.710  15.152  0.1461 -1.7821  0.7070
 5767TIP3    H238793   5.725   1.740  15.103  0.9464  1.2274  0.0050
 5768TIP3   OH238794   2.835   5.494   1.664 -0.0680  0.0379 -0.0570
 5768TIP3    H138795   2.862   5.537   1.745  0.7313  0.8462 -0.7409
 5768TIP3    H238796   2.770   5.429   1.693 -0.9445  1.3465  1.0489
 5769TIP3   OH238797   4.889   6.454   2.109  0.5228 -0.7549 -0.6060
 5769TIP3    H138798   4.920   6.364   2.106 -1.9267 -1.6603 -2.0745
 5769TIP3    H238799   4.821   6.454   2.176  0.3359 -0.0501 -0.7846
 5770TIP3   OH238800   4.233   0.345  10.603 -0.0456 -0.0955 -0.3563
 5770TIP3    H138801   4.290   0.412  10.640  1.3432 -0.6512 -1.3776
 5770TIP3    H238802   4.271   0.262  10.631  0.3240 -0.4987 -1.9081
 5771TIP3   OH238803   1.934   3.519  11.722  0.1189 -0.4921  0.3219
 5771TIP3    H138804   2.029   3.530  11.719  0.3518 -1.5686  2.4651
 5771TIP3    H238805   1.901   3.608  11.735  0.9797 -0.3137  1.4982
 5772TIP3   OH238806   3.547   1.644  16.561  0.3165 -0.1303  0.2387
 5772TIP3    H138807   3.538   1.644  16.466  0.4968 -0.5168  0.2184
 5772TIP3    H238808   3.535   1.552  16.586 -1.2752  0.1918  0.7357
 5773TIP3   OH238809   6.273   3.789  12.798  0.0687 -0.0593  0.0966
 5773TIP3    H138810   6.332   3.767  12.870  1.7638  1.0878 -0.8823
 5773TIP3    H238811   6.203   3.723  12.804 -0.1250  0.2427  3.0400
 5774TIP3   OH238812   0.732   3.479   6.103  0.2337 -0.0247  0.1318
 5774TIP3    H138813   0.805   3.461   6.043 -0.2378 -0.2446 -0.3931
 5774TIP3    H238814   0.677   3.401   6.096  0.1642 -0.0380  0.8429
 5775TIP3   OH238815   6.257   5.566   0.162 -0.1450  0.3370  0.3465
 5775TIP3    H138816   6.163   5.575   0.148 -0.6302 -2.5425  1.0910
 5775TIP3    H238817   6.294   5.651   0.136 -2.9729  1.7608  0.5973
 5776TIP3   OH238818   5.742   1.137  15.299  0.4164  0.1826  0.2415
 5776TIP3    H138819   5.794   1.128  15.219 -0.9773 -1.4544 -0.5535
 5776TIP3    H238820   5.680   1.064  15.295 -1.0454  1.2615  1.8106
 5777TIP3   OH238821   5.369   1.517   5.465  0.0472 -0.0676  0.4226
 5777TIP3    H138822   5.301   1.540   5.528  1.2488  0.0061  1.7336
 5777TIP3    H238823   5.422   1.597   5.457  1.6825 -0.9690  1.6731
 5778TIP3   OH238824   6.027   5.304  16.260  0.0313  0.0672 -0.2873
 5778TIP3    H138825   6.044   5.211  16.271 -0.4693 -0.0438 -0.4255
 5778TIP3    H238826   6.031   5.340  16.349  1.9606  0.2356 -0.3969
 5779TIP3   OH238827   6.036   4.463   5.875 -0.0998  0.1191 -0.6111
 5779TIP3    H138828   6.041   4.510   5.958  0.7068  0.9250 -1.0822
 5779TIP3    H238829   5.968   4.509   5.826  1.5579  1.7206 -1.5670
 5780TIP3   OH238830   1.718   4.400   5.214  0.1957 -0.0457  0.4766
 5780TIP3    H138831   1.774   4.341   5.264  0.7200 -0.2942 -0.3897
 5780TIP3    H238832   1.772   4.477   5.197  1.5781 -1.6270 -3.2721
 5781TIP3   OH238833   6.047   2.329  17.134  0.6320  0.0768 -0.3104
 5781TIP3    H138834   6.005   2.404  17.176  2.0542  0.9022 -0.3134
 5781TIP3    H238835   6.097   2.287  17.203  1.5935  0.4222 -0.7870
 5782TIP3   OH238836   3.238   4.050  15.334 -0.3549 -0.0496 -0.2546
 5782TIP3    H138837   3.226   4.028  15.242 -0.1715  0.5224 -0.4192
 5782TIP3    H238838   3.309   4.114  15.334 -0.6009  0.2281  0.2529
 5783TIP3   OH238839   4.219   1.095  15.703 -0.1159 -0.1799  0.1936
 5783TIP3    H138840   4.292   1.073  15.644 -1.0584 -1.3096 -0.5940
 5783TIP3    H238841   4.147   1.038  15.674 -0.5689 -0.9021  2.5469
 5784TIP3   OH238842   2.870   0.423   2.165  0.4464 -0.2196  0.3154
 5784TIP3    H138843   2.934   0.441   2.234  0.4191 -0.2453  0.3468
 5784TIP3    H238844   2.847   0.331   2.176 -1.2268  0.3076  1.6602
 5785TIP3   OH238845   0.901   2.293  12.395 -0.2903 -0.0796 -0.0051
 5785TIP3    H138846   0.860   2.295  12.308  0.0203 -0.8551 -0.1789
 5785TIP3    H238847   0.922   2.201  12.409 -1.3875 -0.1491  1.4005
 5786TIP3   OH238848   3.955   3.021  15.691 -0.0612 -0.1249 -0.3657
 5786TIP3    H138849   3.900   3.024  15.769 -0.6683  0.5972 -0.7989
 5786TIP3    H238850   3.944   3.108  15.651  0.2831 -0.4577 -1.2172
 5787TIP3   OH238851   6.683   2.284   4.423 -0.0166  0.2960 -0.1358
 5787TIP3    H138852   6.763   2.278   4.474  0.4796  0.0185 -0.9370
 5787TIP3    H238853   6.613   2.260   4.485  0.1587  3.3289  1.3991
 5788TIP3   OH238854   6.573   0.990   1.279  0.2045 -0.1022  0.1162
 5788TIP3    H138855   6.557   0.896   1.295 -0.1080 -0.1352 -0.3662
 5788TIP3    H238856   6.540   1.005   1.191 -0.2577  0.5821  0.3943
 5789TIP3   OH238857   6.122   3.102   0.706 -0.2201  0.0594 -0.3379
 5789TIP3    H138858   6.028   3.116   0.719  0.0502 -0.3967  2.9403
 5789TIP3    H238859   6.151   3.058   0.786  2.6779 -0.4976 -1.5799
 5790TIP3   OH238860   1.882   2.955   0.161  0.2481  0.6546  0.2816
 5790TIP3    H138861   1.965   2.946   0.207  0.1486  2.9141  1.0560
 5790TIP3    H238862   1.821   2.986   0.228 -1.2692 -0.9674 -0.2692
 5791TIP3   OH238863   3.318   2.848   3.289 -0.2414 -0.5569 -0.2245
 5791TIP3    H138864   3.410   2.846   3.317 -0.7963 -0.7030  1.7580
 5791TIP3    H238865   3.321   2.878   3.198  1.7659 -0.6108 -0.2193
 5792TIP3   OH238866   1.776   1.064   0.264  0.1096  0.0485  0.0796
 5792TIP3    H138867   1.818   1.091   0.182  0.3809 -0.3543  0.0847
 5792TIP3    H238868   1.738   1.144   0.298  0.4097  0.3156 -0.2008
 5793TIP3   OH238869   2.607   5.621   4.836 -0.0113  0.1740 -0.0353
 5793TIP3    H138870   2.590   5.651   4.925 -1.1413 -1.3798  0.3237
 5793TIP3    H238871   2.627   5.527   4.846 -1.8416 -0.4453 -1.5326
 5794TIP3   OH238872   5.139   3.804  12.282  0.3052  0.0258  0.6779
 5794TIP3    H138873   5.185   3.888  12.276  0.5865  0.0142  2.1496
 5794TIP3    H238874   5.061   3.823  12.335  0.1844 -0.5586  0.7192
 5795TIP3   OH238875   5.319   2.304  11.159  0.1190 -0.1104  0.1825
 5795TIP3    H138876   5.224   2.304  11.173 -0.1324 -3.4587 -0.8058
 5795TIP3    H238877   5.329   2.331  11.068 -0.1252 -1.9080 -0.4154
 5796TIP3   OH238878   5.672   1.974   5.717 -0.1346  0.2874  0.0503
 5796TIP3    H138879   5.614   2.046   5.741 -0.5071  0.8305 -2.2723
 5796TIP3    H238880   5.747   1.983   5.776 -0.2694  2.4494 -0.0397
 5797TIP3   OH238881   6.197   1.968   3.061  0.3724  0.3391  0.4367
 5797TIP3    H138882   6.288   1.996   3.075  0.3573  1.8286 -1.8754
 5797TIP3    H238883   6.204   1.888   3.009  0.3363 -0.1541  1.1708
 5798TIP3   OH238884   2.629   0.627  17.239  0.4192 -0.4073 -0.0738
 5798TIP3    H138885   2.559   0.572  17.203  0.5670 -0.6847  0.0628
 5798TIP3    H238886   2.610   0.715  17.205 -1.5049  0.1004  2.0330
 5799TIP3   OH238887   4.625   1.867  14.864  0.9494 -0.3025 -0.5180
 5799TIP3    H138888   4.609   1.788  14.915 -1.2998 -0.0032 -0.6562
 5799TIP3    H238889   4.660   1.836  14.781 -0.9099 -1.3100 -0.9887
 5800TIP3   OH238890   4.090   1.196  13.760  0.7822  0.8242  0.3842
 5800TIP3    H138891   4.160   1.245  13.716  0.1042  2.0446  0.6482
 5800TIP3    H238892   4.134   1.153  13.833  1.5406  0.3607 -0.3181
 5801TIP3   OH238893   5.223   4.564  10.466  0.5277 -0.9200  0.0789
 5801TIP3    H138894   5.209   4.639  10.524  0.1125  0.0082 -1.1838
 5801TIP3    H238895   5.296   4.517  10.506 -0.6443 -1.1220  2.1314
 5802TIP3   OH238896   1.239   5.085   2.589 -0.2166  0.3579 -0.7637
 5802TIP3    H138897   1.200   4.999   2.572  0.1153  0.0575 -0.0400
 5802TIP3    H238898   1.280   5.110   2.506 -0.9070  0.1346 -1.1782
 5803TIP3   OH238899   0.255   5.915   4.752 -0.3915  0.0256  0.0780
 5803TIP3    H138900   0.246   5.892   4.845 -0.5176  0.3844  0.1558
 5803TIP3    H238901   0.347   5.897   4.732 -0.6393 -1.2325 -0.0558
 5804TIP3   OH238902   4.901   1.983   5.128  0.0176 -0.6351 -0.0631
 5804TIP3    H138903   4.979   1.966   5.073  0.3934 -0.3084  0.3648
 5804TIP3    H238904   4.871   2.069   5.101 -0.5998 -1.0330 -0.6946
 5805TIP3   OH238905   5.320   0.170  14.479 -0.0577  0.2267 -0.4457
 5805TIP3    H138906   5.375   0.244  14.453  1.1080 -0.2148  0.6486
 5805TIP3    H238907   5.360   0.095  14.436  0.4315 -0.1463  0.6163
 5806TIP3   OH238908   4.251   6.493  12.988 -0.2115 -0.9210 -0.0569
 5806TIP3    H138909   4.317   6.497  12.919  0.4622 -0.3820  0.5970
 5806TIP3    H238910   4.295   6.452  13.062  0.3708  1.9906  1.3767
 5807TIP3   OH238911   2.370   3.941  16.802 -0.7327  0.8486 -0.3246
 5807TIP3    H138912   2.420   3.871  16.760  0.5453  0.5389  1.5955
 5807TIP3    H238913   2.430   4.015  16.805 -0.8593  0.9186  0.7512
 5808TIP3   OH238914   5.733   6.460   4.184 -0.3593 -0.3046  0.2459
 5808TIP3    H138915   5.684   6.391   4.139 -1.6053  1.4880 -1.3366
 5808TIP3    H238916   5.669   6.501   4.241  0.3880 -0.4869  1.2310
 5809TIP3   OH238917   1.600   4.079   0.741 -0.7936  0.4328  0.5163
 5809TIP3    H138918   1.689   4.094   0.773 -0.6710  1.8712 -0.3650
 5809TIP3    H238919   1.571   4.166   0.710 -2.7655  0.1525  1.4244
 5810TIP3   OH238920   3.019   6.707  12.813  0.1375  0.1541 -0.2382
 5810TIP3    H138921   3.047   6.761  12.739 -1.5951  1.1409 -0.2455
 5810TIP3    H238922   3.086   6.640  12.822  1.0847  0.8493 -1.8264
 5811TIP3   OH238923   4.166   1.218  15.933 -0.0228  0.8512 -0.4881
 5811TIP3    H138924   4.168   1.144  15.995 -1.5057  1.2540  0.0866
 5811TIP3    H238925   4.197   1.180  15.851  2.5880  0.4413  0.5753
 5812TIP3   OH238926   5.903   2.978   3.816  0.3874  0.1095  0.3944
 5812TIP3    H138927   5.942   2.910   3.870 -0.1075  0.5642  1.3539
 5812TIP3    H238928   5.912   3.058   3.869 -0.5022  0.4836 -0.0053
 5813TIP3   OH238929   3.973   5.263   0.620 -0.0485  0.5525  0.4554
 5813TIP3    H138930   4.010   5.244   0.706  0.3992 -0.1744  0.1094
 5813TIP3    H238931   3.951   5.178   0.584 -1.6013  0.9363  0.4275
 5814TIP3   OH238932   0.552   5.025   4.957  0.1747 -0.8433 -0.1968
 5814TIP3    H138933   0.535   5.076   4.878  2.3521 -1.5821 -1.2355
 5814TIP3    H238934   0.542   5.087   5.029  0.0828  0.3500 -1.2058
 5815TIP3   OH238935   0.169   4.013  13.628 -0.4518 -0.4306 -0.4767
 5815TIP3    H138936   0.137   4.073  13.560  0.6988  0.6121 -0.1354
 5815TIP3    H238937   0.183   4.069  13.705  1.2240 -0.9935 -0.3257
 5816TIP3   OH238938   6.048   4.175   0.627  0.2512 -0.6941  0.0468
 5816TIP3    H138939   6.014   4.157   0.715  0.9976  0.0360  0.4937
 5816TIP3    H238940   5.983   4.135   0.569 -2.3835  2.1014  0.7818
 5817TIP3   OH238941   6.306   2.168   5.168  0.0034 -0.2447  0.4114
 5817TIP3    H138942   6.258   2.249   5.155  0.2999 -0.3663 -1.6903
 5817TIP3    H238943   6.392   2.195   5.200  0.7137  0.4561 -1.9009
 5818TIP3   OH238944   0.544   3.947   3.064  0.2948  0.4576 -0.2215
 5818TIP3    H138945   0.452   3.958   3.089  1.0312  2.3636  2.0674
 5818TIP3    H238946   0.556   4.011   2.994 -0.3220 -0.5038 -1.2347
 5819TIP3   OH238947   1.646   1.664   1.025 -0.2543 -0.2772  0.1212
 5819TIP3    H138948   1.617   1.695   1.111  1.2312  0.3442  0.4245
 5819TIP3    H238949   1.695   1.584   1.043  0.6131  0.2029 -0.0590
 5820TIP3   OH238950   1.839   2.320   4.242 -0.0600  0.3895  0.0061
 5820TIP3    H138951   1.846   2.259   4.316 -0.7015  0.4441  0.1176
 5820TIP3    H238952   1.790   2.395   4.277 -0.5599  0.3194 -0.5315
 5821TIP3   OH238953   0.261   4.818   3.137 -0.2274 -0.2926 -0.3669
 5821TIP3    H138954   0.253   4.914   3.134  0.1755 -0.2689 -1.1762
 5821TIP3    H238955   0.197   4.790   3.202  0.0941  0.5761  0.3463
 5822TIP3   OH238956   5.158   2.232   3.307  0.4029 -0.0212 -0.9445
 5822TIP3    H138957   5.249   2.254   3.286  0.5640  1.3365  0.9483
 5822TIP3    H238958   5.122   2.312   3.345 -1.1209 -1.0078 -0.2044
 5823TIP3   OH238959   4.733   5.400   4.741  0.1300 -0.1668 -0.3484
 5823TIP3    H138960   4.817   5.441   4.760 -0.0425  0.0222  0.0293
 5823TIP3    H238961   4.750   5.306   4.744  0.7769 -0.1709 -2.2970
 5824TIP3   OH238962   6.177   4.196  17.200 -0.1668 -0.0001  0.5356
 5824TIP3    H138963   6.136   4.155  17.277  0.6027 -3.2773 -0.6467
 5824TIP3    H238964   6.268   4.209  17.226 -0.0578 -0.4936  0.4077
 5825TIP3   OH238965   2.048   5.097  17.189  0.4862 -0.0702  0.0322
 5825TIP3    H138966   2.071   5.064  17.276 -0.9452 -1.7850 -0.1883
 5825TIP3    H238967   2.132   5.099  17.142  0.9160 -1.7895  0.6163
 5826TIP3   OH238968   6.197   3.983  11.318 -0.1684  0.4526  0.1245
 5826TIP3    H138969   6.281   4.003  11.358 -0.7242  0.0744  1.5304
 5826TIP3    H238970   6.219   3.943  11.234  1.0153  1.5134 -0.0840
 5827TIP3   OH238971   2.717   1.988   5.336  0.0163 -0.7703  0.6185
 5827TIP3    H138972   2.695   1.937   5.414 -1.4249  0.5436  1.1448
 5827TIP3    H238973   2.715   2.079   5.366 -1.1671 -0.1888 -1.0504
 5828TIP3   OH238974   1.756   3.269   4.039  0.5857 -0.1238  0.1415
 5828TIP3    H138975   1.767   3.206   3.967  1.2773 -0.7358  0.7661
 5828TIP3    H238976   1.661   3.280   4.046  0.4159 -1.5313  0.3597
 5829TIP3   OH238977   5.244   4.962   3.946 -0.4111 -0.3341  0.0282
 5829TIP3    H138978   5.278   5.052   3.938 -0.7160 -0.0891  1.2595
 5829TIP3    H238979   5.174   4.969   4.010  0.8613 -1.7878  1.6758
 5830TIP3   OH238980   4.946   0.202  13.992 -0.0565 -0.5022 -0.1548
 5830TIP3    H138981   4.977   0.234  14.076 -0.3336 -0.6351 -0.0014
 5830TIP3    H238982   4.882   0.268  13.964  0.2494 -0.3037 -0.4035
 5831TIP3   OH238983   0.329   2.237   3.517 -0.0056  0.0470  0.3945
 5831TIP3    H138984   0.302   2.181   3.444 -0.8829  0.3147  0.4972
 5831TIP3    H238985   0.312   2.326   3.486 -0.3764  0.1607  0.9167
 5832TIP3   OH238986   4.044   2.342   2.760  0.2057 -0.3083 -0.1867
 5832TIP3    H138987   3.987   2.274   2.795  0.5240 -1.4012 -1.6519
 5832TIP3    H238988   4.096   2.297   2.693  0.0886  1.4826 -1.5558
 5833TIP3   OH238989   3.965   0.768  12.205  0.2280 -0.2918  0.2779
 5833TIP3    H138990   4.000   0.679  12.198 -0.6970 -0.7476  1.1728
 5833TIP3    H238991   3.986   0.795  12.295  0.2718  0.3036  0.0934
 5834TIP3   OH238992   3.597   1.870   4.776  0.3435  0.1106  0.3401
 5834TIP3    H138993   3.530   1.938   4.772  0.5954  0.3765  0.5231
 5834TIP3    H238994   3.661   1.896   4.709  0.6481  0.2844  0.6946
 5835TIP3   OH238995   4.803   4.391   5.043  0.4639  0.1604 -0.7918
 5835TIP3    H138996   4.733   4.434   4.993  0.8014  0.2267 -1.2154
 5835TIP3    H238997   4.856   4.347   4.977  0.4284 -0.4673 -0.4072
 5836TIP3   OH238998   2.363   2.740   2.385 -0.1416 -0.1475 -0.3285
 5836TIP3    H138999   2.424   2.687   2.436 -0.6711  0.9954  1.6151
 5836TIP3    H239000   2.284   2.744   2.439 -0.7867  1.0000 -1.3078
 5837TIP3   OH239001   3.365   2.316   4.649  0.4984  0.1291  0.3068
 5837TIP3    H139002   3.346   2.341   4.739  2.1567  0.4901  0.5847
 5837TIP3    H239003   3.413   2.391   4.612  0.2426 -0.1998 -0.7305
 5838TIP3   OH239004   3.208   4.838   5.789 -0.0178  0.5048 -0.2384
 5838TIP3    H139005   3.262   4.816   5.865 -0.7163 -0.1916  0.0637
 5838TIP3    H239006   3.253   4.796   5.716  1.0802  1.8077 -0.3601
 5839TIP3   OH239007   0.789   6.548   0.559  0.4854  0.2332  0.1870
 5839TIP3    H139008   0.747   6.464   0.541  1.3019 -0.6192  1.9462
 5839TIP3    H239009   0.862   6.553   0.498  0.2473 -0.1909 -0.1320
 5840TIP3   OH239010   1.392   0.332   5.457  0.6560  0.3715 -0.0576
 5840TIP3    H139011   1.456   0.400   5.434 -0.4125  1.8122  1.0347
 5840TIP3    H239012   1.315   0.381   5.487 -0.6037 -1.3322 -0.3961
 5841TIP3   OH239013   5.850   0.142   2.873 -0.2977 -0.4212 -0.4356
 5841TIP3    H139014   5.880   0.081   2.806 -0.2432  0.2119 -0.9943
 5841TIP3    H239015   5.754   0.133   2.873 -0.3981  0.5272 -1.5256
 5842TIP3   OH239016   1.928   4.069   4.046 -0.4844 -0.5586  0.3510
 5842TIP3    H139017   1.912   3.990   3.994  1.4178 -0.1953 -0.8742
 5842TIP3    H239018   1.992   4.042   4.111 -0.7963 -0.3178  0.7653
 5843TIP3   OH239019   0.324   6.751  11.646 -0.0172  0.3642 -0.4410
 5843TIP3    H139020   0.262   6.758  11.573 -1.6156  0.3199  0.8533
 5843TIP3    H239021   0.313   6.833  11.694  0.5790  0.1424  0.0779
 5844TIP3   OH239022   6.680   3.032   3.345 -0.1877  0.4903  0.4547
 5844TIP3    H139023   6.636   3.058   3.426 -1.2424 -1.1984  0.4672
 5844TIP3    H239024   6.700   2.939   3.357 -1.0435  0.0094 -1.5109
 5845TIP3   OH239025   4.944   0.369  14.419  0.4171  1.0254  0.3933
 5845TIP3    H139026   4.950   0.282  14.380 -1.9102  0.6796  0.6911
 5845TIP3    H239027   5.028   0.382  14.463  1.1104 -0.7184 -0.3650
 5846TIP3   OH239028   0.382   2.547  14.299  0.7753 -0.0736 -0.3390
 5846TIP3    H139029   0.341   2.520  14.382  1.8048 -0.5647  0.0182
 5846TIP3    H239030   0.375   2.643  14.299 -1.1404 -0.1596 -0.7040
 5847TIP3   OH239031   4.358   4.552  11.876  0.0382 -0.0420  0.4367
 5847TIP3    H139032   4.297   4.622  11.898  0.9385  1.6724 -2.0664
 5847TIP3    H239033   4.440   4.578  11.920 -0.3801 -1.1868  1.9817
 5848TIP3   OH239034   6.167   6.081   5.927  0.3751 -0.1975  0.3897
 5848TIP3    H139035   6.090   6.096   5.981  0.4416  1.0305  0.1858
 5848TIP3    H239036   6.236   6.058   5.989  0.0118 -0.6226  0.6374
 5849TIP3   OH239037   4.237   6.035  13.871 -0.2975  0.3448 -0.3917
 5849TIP3    H139038   4.213   6.034  13.778  1.7002  2.7053 -1.0559
 5849TIP3    H239039   4.277   6.121  13.884  2.5488 -1.1528  1.8539
 5850TIP3   OH239040   4.098   5.889  14.084  0.2822  0.1227  0.2209
 5850TIP3    H139041   4.003   5.889  14.067  0.0867 -0.7102  1.2263
 5850TIP3    H239042   4.134   5.942  14.013 -1.0591  1.5709  0.5656
 5851TIP3   OH239043   4.653   4.908   2.841  0.7004  0.2068  0.1928
 5851TIP3    H139044   4.743   4.876   2.852  0.0052 -2.3846 -0.8579
 5851TIP3    H239045   4.618   4.912   2.930  1.3192 -0.5411  0.4817
 5852TIP3   OH239046   3.477   3.950   2.736  0.0636 -0.6136  0.1274
 5852TIP3    H139047   3.539   3.944   2.809  0.3568  1.8628  0.1829
 5852TIP3    H239048   3.424   4.027   2.757 -2.1640 -1.8519 -0.6082
 5853TIP3   OH239049   1.767   0.477  16.383  0.0511 -0.0779  0.0586
 5853TIP3    H139050   1.715   0.472  16.303  1.4192  1.1453 -0.9823
 5853TIP3    H239051   1.805   0.390  16.393  0.4142 -0.0656 -1.0449
 5854TIP3   OH239052   0.562   4.721  16.758  0.5914 -0.1752 -0.6715
 5854TIP3    H139053   0.624   4.728  16.685  1.0782 -0.7248 -0.3148
 5854TIP3    H239054   0.540   4.812  16.778  3.0264  0.2315  0.6472
 5855TIP3   OH239055   6.719   6.515   4.775 -0.3638  0.8310  0.7345
 5855TIP3    H139056   6.671   6.544   4.698 -1.2916  0.7118  1.2547
 5855TIP3    H239057   6.672   6.554   4.849  1.4447  2.2908  1.1920
 5856TIP3   OH239058   4.926   1.025   4.811  0.1055  0.2273 -0.2010
 5856TIP3    H139059   5.002   0.968   4.804  0.4051  0.6782 -0.6220
 5856TIP3    H239060   4.942   1.077   4.890  1.3817  1.9722 -1.5287
 5857TIP3   OH239061   0.389   6.293   0.486  0.4096  0.4539  0.2185
 5857TIP3    H139062   0.364   6.373   0.439  0.9813 -0.1914 -1.2578
 5857TIP3    H239063   0.449   6.323   0.554 -0.3040  1.4040  0.4503
 5858TIP3   OH239064   2.060   5.075  15.655 -0.3080  0.4485  0.6318
 5858TIP3    H139065   2.056   4.980  15.664  1.2487  0.2596 -0.2736
 5858TIP3    H239066   2.004   5.108  15.725 -2.5758 -1.1301 -0.3357
 5859TIP3   OH239067   4.139   6.043   5.706  0.0827 -0.3655  0.0414
 5859TIP3    H139068   4.048   6.013   5.707  0.1889 -0.6910  0.2777
 5859TIP3    H239069   4.181   5.992   5.636  0.2420 -0.7082  0.3823
 5860TIP3   OH239070   4.290   2.576  13.417 -0.1936 -0.0568 -0.2771
 5860TIP3    H139071   4.357   2.644  13.417 -0.6734  0.4312  0.2144
 5860TIP3    H239072   4.236   2.595  13.341  1.5497 -1.8269 -2.0538
 5861TIP3   OH239073   4.268   6.724   1.401  0.5759 -0.1178 -0.3558
 5861TIP3    H139074   4.214   6.680   1.467 -0.2325 -0.5783 -1.2951
 5861TIP3    H239075   4.217   6.800   1.374  0.5046 -0.4021 -1.0544
 5862TIP3   OH239076   6.273   2.042  13.715 -0.2678  0.2760 -0.1922
 5862TIP3    H139077   6.193   1.992  13.730 -0.9830  1.2200 -0.7739
 5862TIP3    H239078   6.344   1.981  13.736 -1.1329 -0.1743  1.6682
 5863TIP3   OH239079   2.220   6.087  14.605  0.2100  0.6096 -0.1270
 5863TIP3    H139080   2.229   6.177  14.575 -0.4211  0.4840 -0.7247
 5863TIP3    H239081   2.159   6.047  14.544 -1.1980  0.3519  1.3784
 5864TIP3   OH239082   5.405   0.861  10.677  0.1554  0.4526  0.1564
 5864TIP3    H139083   5.443   0.796  10.737  0.2441  0.6626  0.3272
 5864TIP3    H239084   5.479   0.916  10.651  0.3068 -0.1900 -0.8702
 5865TIP3   OH239085   6.133   5.338  13.613  0.5103 -0.1522 -0.0991
 5865TIP3    H139086   6.189   5.319  13.538 -0.7354  0.0018 -1.0837
 5865TIP3    H239087   6.166   5.281  13.682  0.9672 -1.1140 -1.0822
 5866TIP3   OH239088   3.083   3.358  11.800 -0.0743  0.2192  0.2526
 5866TIP3    H139089   3.073   3.390  11.710 -1.1627 -0.1231  0.2310
 5866TIP3    H239090   3.046   3.428  11.854  0.3947  0.3388  0.4174
 5867TIP3   OH239091   3.391   6.403   5.903  0.9868  0.6176  0.2838
 5867TIP3    H139092   3.468   6.355   5.936  0.1920 -0.2965  0.8640
 5867TIP3    H239093   3.359   6.451   5.979  0.3507  0.1318  0.3295
 5868TIP3   OH239094   5.489   5.593   3.185  0.3241  0.1520  0.0762
 5868TIP3    H139095   5.411   5.604   3.131 -0.2862  1.6584  1.1772
 5868TIP3    H239096   5.460   5.617   3.273  1.7627 -0.3624  0.7230
 5869TIP3   OH239097   0.655   3.636  15.291 -0.1213 -0.1657  0.3724
 5869TIP3    H139098   0.607   3.579  15.231 -1.5120  0.1896  1.0984
 5869TIP3    H239099   0.603   3.717  15.293  0.8930  0.4936  0.6676
 5870TIP3   OH239100   2.806   6.387   1.882 -0.2140 -0.8716 -0.0645
 5870TIP3    H139101   2.802   6.294   1.903  0.4079 -0.7285  0.7346
 5870TIP3    H239102   2.793   6.391   1.787  0.7628 -1.8541 -0.2595
 5871TIP3   OH239103   3.840   1.328   2.058 -0.5765 -0.2257  0.1018
 5871TIP3    H139104   3.918   1.369   2.096 -0.0514 -1.1719  0.0634
 5871TIP3    H239105   3.849   1.235   2.079  0.3792 -1.0294 -3.3645
 5872TIP3   OH239106   0.569   6.279   4.467 -0.1129  0.2372  0.0583
 5872TIP3    H139107   0.530   6.216   4.407  0.5270  0.2796 -0.4211
 5872TIP3    H239108   0.505   6.349   4.474  0.4843  1.0655 -1.9510
 5873TIP3   OH239109   2.824   4.214  14.986  0.1926  0.4175  0.2410
 5873TIP3    H139110   2.759   4.230  14.917  0.5201  1.3147  0.1160
 5873TIP3    H239111   2.819   4.120  15.004  0.6538 -0.0002 -1.5786
 5874TIP3   OH239112   0.627   6.430  11.804 -0.2447 -0.5543 -0.0812
 5874TIP3    H139113   0.673   6.457  11.725 -0.3428 -0.9402 -0.2779
 5874TIP3    H239114   0.659   6.341  11.821 -0.7148 -0.7298 -0.0773
 5875TIP3   OH239115   4.545   6.654  12.554 -0.2082  0.0443  0.0427
 5875TIP3    H139116   4.560   6.564  12.525  0.2666  0.9266 -2.7271
 5875TIP3    H239117   4.633   6.693  12.557 -0.4523  0.5586  0.7979
 5876TIP3   OH239118   6.374   0.649   2.671 -0.3932 -0.6511 -0.7171
 5876TIP3    H139119   6.385   0.730   2.721 -2.5585  1.0062 -2.7395
 5876TIP3    H239120   6.354   0.583   2.738  1.2238  0.4738  0.9624
 5877TIP3   OH239121   2.541   6.035   1.451 -0.1035  0.0426 -0.3424
 5877TIP3    H139122   2.598   6.003   1.522  0.6280  4.3851  1.3563
 5877TIP3    H239123   2.459   6.056   1.495  0.0040  1.8107 -0.9352
 5878TIP3   OH239124   5.262   6.409  11.194  0.4178  0.3570  0.5641
 5878TIP3    H139125   5.322   6.340  11.167 -0.0857  0.3273 -0.5043
 5878TIP3    H239126   5.228   6.446  11.113 -2.0673 -0.5511  1.0908
 5879TIP3   OH239127   1.496   3.153   4.150 -0.2936  0.3691  1.0206
 5879TIP3    H139128   1.499   3.174   4.057 -0.7481 -0.8015  0.7139
 5879TIP3    H239129   1.498   3.237   4.194  1.0519  0.9098 -0.0038
 5880TIP3   OH239130   1.927   5.487   4.207  0.8406 -0.1444 -0.6448
 5880TIP3    H139131   1.859   5.489   4.140  1.3490  2.3797 -1.1837
 5880TIP3    H239132   1.994   5.548   4.176  1.6375  0.2337  1.6237
 5881TIP3   OH239133   2.169   1.134  12.865 -0.3177  0.0594  0.1700
 5881TIP3    H139134   2.100   1.120  12.930 -2.0956  0.8534 -1.4463
 5881TIP3    H239135   2.139   1.210  12.815  1.9795  0.7121 -0.3302
 5882TIP3   OH239136   5.539   6.473  12.080  0.5343  0.3377  0.1071
 5882TIP3    H139137   5.511   6.513  11.998  0.9564  0.1611 -0.1194
 5882TIP3    H239138   5.517   6.539  12.147 -0.5208  0.1609 -0.0555
 5883TIP3   OH239139   6.098   1.383  16.669 -0.5256  0.2153  0.6482
 5883TIP3    H139140   6.048   1.455  16.708 -0.4305  0.6460 -0.0034
 5883TIP3    H239141   6.098   1.315  16.736 -1.6661  0.3522  0.8086
 5884TIP3   OH239142   5.714   5.191   5.949  0.3709 -0.2429 -0.4102
 5884TIP3    H139143   5.800   5.152   5.968  1.2186  0.9490 -1.6196
 5884TIP3    H239144   5.732   5.258   5.883 -1.3669  0.6895  0.0045
 5885TIP3   OH239145   4.684   1.204   3.847  0.2323 -0.0808 -0.8237
 5885TIP3    H139146   4.610   1.163   3.802 -1.3810 -0.2638  1.7738
 5885TIP3    H239147   4.748   1.133   3.858  0.1142 -0.3290 -1.6861
 5886TIP3   OH239148   3.115   1.356   1.529  0.7095  0.0179 -0.3090
 5886TIP3    H139149   3.128   1.305   1.610  1.1664 -0.7693 -0.8645
 5886TIP3    H239150   3.130   1.446   1.556  0.8645 -0.2300  0.4882
 5887TIP3   OH239151   0.398   5.195   2.706 -0.2212 -0.0783  0.5562
 5887TIP3    H139152   0.352   5.275   2.733 -0.2089  0.3435 -0.6201
 5887TIP3    H239153   0.471   5.189   2.768 -0.4897  0.5666  0.9550
 5888TIP3   OH239154   4.954   6.205   3.405  0.3010  0.0382 -0.4724
 5888TIP3    H139155   4.896   6.200   3.482  0.3607 -2.0050 -0.4966
 5888TIP3    H239156   5.019   6.271   3.428  1.1268 -1.4679  1.8553
 5889TIP3   OH239157   3.078   0.381   1.275 -0.1420  0.6610 -0.2602
 5889TIP3    H139158   3.125   0.460   1.302  1.0784 -0.3314  0.6028
 5889TIP3    H239159   3.092   0.319   1.346 -1.1707 -0.3164 -0.8744
 5890TIP3   OH239160   4.565   1.422  13.777  1.1720  0.0847  0.0996
 5890TIP3    H139161   4.595   1.334  13.799  1.4358  0.0405 -0.4278
 5890TIP3    H239162   4.642   1.477  13.791  0.3659  0.6710  2.9489
 5891TIP3   OH239163   1.727   1.403  13.330  0.0663 -0.5544  0.1948
 5891TIP3    H139164   1.822   1.402  13.319  0.0661  0.0136  0.1452
 5891TIP3    H239165   1.693   1.364  13.249  0.1666  1.4147 -0.8614
 5892TIP3   OH239166   1.869   2.815   1.951  0.3316 -0.2144 -0.4417
 5892TIP3    H139167   1.871   2.741   1.890  1.1273 -1.2234  0.7725
 5892TIP3    H239168   1.806   2.876   1.912 -1.6243 -2.2419 -0.6615
 5893TIP3   OH239169   1.391   5.215   5.916 -0.1489  0.5198  0.3782
 5893TIP3    H139170   1.392   5.122   5.896 -1.6073  0.4557  0.5275
 5893TIP3    H239171   1.451   5.224   5.990 -1.2965 -0.5931  1.4905
 5894TIP3   OH239172   2.065   2.135   5.461  0.0278 -1.2245  0.1836
 5894TIP3    H139173   2.012   2.211   5.484 -1.7032 -1.9007 -1.2786
 5894TIP3    H239174   2.044   2.119   5.369  3.1501 -1.2903 -0.6344
 5895TIP3   OH239175   0.306   6.182   3.908  0.1194 -0.5777  0.1934
 5895TIP3    H139176   0.304   6.089   3.884 -1.9281 -0.5992  0.3174
 5895TIP3    H239177   0.370   6.220   3.848  1.8992 -2.2512  0.9255
 5896TIP3   OH239178   4.658   4.659   5.226 -0.0641  0.2911 -0.0452
 5896TIP3    H139179   4.650   4.572   5.264  1.7971 -0.2677 -0.8233
 5896TIP3    H239180   4.607   4.654   5.145  0.9170 -0.4504 -0.6372
 5897TIP3   OH239181   5.322   2.335   1.968 -0.0947 -0.2911 -0.1323
 5897TIP3    H139182   5.277   2.373   1.892 -0.7128  0.1222  0.4329
 5897TIP3    H239183   5.415   2.335   1.944 -0.1749  0.8099 -0.4740
 5898TIP3   OH239184   0.409   3.094  12.818 -0.3159 -0.1805  0.5809
 5898TIP3    H139185   0.453   3.102  12.734  1.2198  1.4969  1.4684
 5898TIP3    H239186   0.477   3.114  12.883 -1.4197 -1.5111  2.2433
 5899TIP3   OH239187   3.628   5.534  16.749 -0.1031 -0.0776 -0.7257
 5899TIP3    H139188   3.595   5.571  16.832  1.9777 -1.0262  0.6131
 5899TIP3    H239189   3.605   5.442  16.754 -1.3316  0.1181 -1.9950
 5900TIP3   OH239190   0.938   2.824   0.368  0.2462 -0.0698  0.1442
 5900TIP3    H139191   0.854   2.817   0.412 -1.0332  1.6081 -1.8400
 5900TIP3    H239192   0.938   2.911   0.328  3.2084  0.2321  0.5542
 5901TIP3   OH239193   4.024   0.775   4.721 -0.6806  0.0737 -0.5925
 5901TIP3    H139194   3.941   0.793   4.766  0.3101  1.4196  0.8104
 5901TIP3    H239195   4.091   0.808   4.782  0.8648 -0.7510 -1.8023
 5902TIP3   OH239196   4.803   3.391  14.022  0.0907  0.8178  0.4614
 5902TIP3    H139197   4.747   3.465  13.999 -0.5147  0.5278  0.9936
 5902TIP3    H239198   4.789   3.378  14.116  1.5841  1.1895  0.7627
 5903TIP3   OH239199   1.489   0.858   4.585 -0.2643  0.1410  0.1529
 5903TIP3    H139200   1.537   0.841   4.666  0.0579  1.6028  0.2874
 5903TIP3    H239201   1.409   0.902   4.614  1.2885  3.6736 -0.4465
 5904TIP3   OH239202   5.678   3.635  12.495 -0.1734 -0.5308  0.0188
 5904TIP3    H139203   5.655   3.668  12.581 -0.8625 -0.8194 -0.0478
 5904TIP3    H239204   5.736   3.561  12.512 -1.8226 -1.8192  0.3409
 5905TIP3   OH239205   1.940   5.282   0.838 -0.0236 -0.4888 -0.1731
 5905TIP3    H139206   2.019   5.311   0.884 -0.4793  0.7387 -0.1347
 5905TIP3    H239207   1.924   5.194   0.871  0.8311 -0.4107  0.4755
 5906TIP3   OH239208   4.039   4.483   3.865 -0.6727 -0.6853 -0.0596
 5906TIP3    H139209   3.949   4.452   3.854 -0.0221 -2.5582 -0.3782
 5906TIP3    H239210   4.071   4.495   3.776 -1.8176  4.0812 -0.1033
 5907TIP3   OH239211   0.677   2.819   5.146  0.3898 -0.1653  0.8914
 5907TIP3    H139212   0.679   2.762   5.069 -1.0488  1.9438 -0.8038
 5907TIP3    H239213   0.769   2.835   5.166  0.8753  1.2647 -2.0259
 5908TIP3   OH239214   4.801   6.788  14.214 -0.0499  0.3531  0.3182
 5908TIP3    H139215   4.707   6.773  14.219 -0.3277  1.5301 -1.1037
 5908TIP3    H239216   4.828   6.750  14.131  0.5963  0.7580  0.3301
 5909TIP3   OH239217   4.362   2.138   4.112  0.3291 -0.9316  0.9035
 5909TIP3    H139218   4.377   2.045   4.094  0.0635 -0.8442  0.1978
 5909TIP3    H239219   4.403   2.153   4.197  0.5357 -1.6535  0.9368
 5910TIP3   OH239220   1.256   5.891  10.377  0.1817 -0.6419  0.4453
 5910TIP3    H139221   1.211   5.956  10.324 -1.6816 -0.9080  1.6190
 5910TIP3    H239222   1.348   5.917  10.374  0.0715 -0.2784 -2.3351
 5911TIP3   OH239223   5.387   2.892  12.774 -0.3133  0.1759  0.2064
 5911TIP3    H139224   5.459   2.835  12.745 -0.6809  0.0055 -0.3949
 5911TIP3    H239225   5.400   2.974  12.727 -0.1975  0.3427  0.5243
 5912TIP3   OH239226   6.586   6.689  13.904 -0.2078 -0.2820  0.2099
 5912TIP3    H139227   6.532   6.756  13.947  0.2355  0.0716  0.2269
 5912TIP3    H239228   6.562   6.695  13.812  0.9414  0.9914 -0.0381
 5913TIP3   OH239229   5.399   6.806   6.197 -0.2229  0.1291 -0.1760
 5913TIP3    H139230   5.452   6.885   6.204 -0.9609  0.6385 -0.2796
 5913TIP3    H239231   5.455   6.736   6.232  1.4985  0.1865 -2.5399
 5914TIP3   OH239232   6.318   6.635  10.290  0.1345  0.2936  0.1731
 5914TIP3    H139233   6.321   6.651  10.385  2.2444  1.3401  0.0022
 5914TIP3    H239234   6.265   6.707  10.256  1.6890  1.5786  0.3434
 5915TIP3   OH239235   6.151   5.984  11.753 -0.1152  0.2702 -0.2394
 5915TIP3    H139236   6.176   5.947  11.669  0.6200  1.9769 -0.7976
 5915TIP3    H239237   6.071   5.936  11.777 -0.2100 -0.4010 -1.7811
 5916TIP3   OH239238   1.407   4.459  15.775 -0.2119  0.4928 -0.0984
 5916TIP3    H139239   1.317   4.437  15.800 -0.2782 -0.2844 -0.9751
 5916TIP3    H239240   1.432   4.529  15.835 -0.8679 -0.3095  1.1644
 5917TIP3   OH239241   6.202   1.055  13.881  0.1219  0.7152  0.1337
 5917TIP3    H139242   6.291   1.079  13.905 -0.0141  2.8607 -1.2762
 5917TIP3    H239243   6.190   1.091  13.793 -2.3231  1.0127  0.5137
 5918TIP3   OH239244   4.462   1.189   0.772 -0.0308  0.4708 -0.5859
 5918TIP3    H139245   4.468   1.284   0.768 -0.1128  0.5062  0.0880
 5918TIP3    H239246   4.369   1.171   0.787  0.2386  0.3654  1.1547
 5919TIP3   OH239247   4.509   4.009   0.416  0.5997 -0.6476  0.0011
 5919TIP3    H139248   4.471   4.039   0.499 -1.4752  1.2622 -1.4923
 5919TIP3    H239249   4.447   3.945   0.383  1.9916 -2.2562  0.3764
 5920TIP3   OH239250   5.282   4.920   5.941  0.0543 -0.3290  0.8267
 5920TIP3    H139251   5.373   4.947   5.930  0.6102 -0.3564  4.2076
 5920TIP3    H239252   5.231   4.986   5.893  1.8097 -1.1005 -2.2985
 5921TIP3   OH239253   1.217   5.844   1.322 -0.0178  0.2905  0.1507
 5921TIP3    H139254   1.190   5.753   1.309  0.1454  0.3622 -0.7383
 5921TIP3    H239255   1.195   5.862   1.413  0.7857 -0.9200  0.6099
 5922TIP3   OH239256   3.556   0.285  11.028  0.0817 -0.3972 -0.4002
 5922TIP3    H139257   3.478   0.232  11.011  0.0053 -0.7776  1.0481
 5922TIP3    H239258   3.537   0.369  10.988 -2.6508  0.7816  2.8981
 5923TIP3   OH239259   2.290   3.684   3.579 -0.2666  0.1585 -0.1509
 5923TIP3    H139260   2.249   3.643   3.502  1.9379 -0.8393 -0.8818
 5923TIP3    H239261   2.217   3.718   3.630 -1.8234  0.6395 -2.5655
 5924TIP3   OH239262   4.231   2.038  13.765  0.7260 -0.6581 -0.3190
 5924TIP3    H139263   4.137   2.022  13.760  0.5799 -0.1275  0.4798
 5924TIP3    H239264   4.264   1.970  13.825  0.5169  0.3759  1.0076
 5925TIP3   OH239265   2.578   2.117   4.375  0.4229  0.5974 -0.0090
 5925TIP3    H139266   2.621   2.141   4.293  0.2888 -0.0415 -0.2779
 5925TIP3    H239267   2.523   2.192   4.397 -0.2315  0.4301 -0.9924
 5926TIP3   OH239268   4.648   2.368  12.026  0.2980  0.0957 -0.0540
 5926TIP3    H139269   4.571   2.315  12.047  0.0689 -0.1703 -1.4858
 5926TIP3    H239270   4.652   2.433  12.096 -0.4813 -0.6792  0.7293
 5927TIP3   OH239271   2.998   1.457   3.328  0.6182  0.6172  0.0990
 5927TIP3    H139272   2.915   1.457   3.280  0.2735  1.0401  0.6921
 5927TIP3    H239273   3.052   1.522   3.283 -0.6243  2.9678  1.8315
 5928TIP3   OH239274   2.468   4.280   5.061  0.6300 -0.1939  0.2080
 5928TIP3    H139275   2.495   4.348   5.123  0.5410  0.4447 -0.4492
 5928TIP3    H239276   2.385   4.311   5.026 -0.7701 -1.8666  1.7935
 5929TIP3   OH239277   2.290   4.568   3.921 -0.1067 -0.1539  0.4141
 5929TIP3    H139278   2.278   4.480   3.888  0.0591 -0.3426  0.8419
 5929TIP3    H239279   2.202   4.601   3.936 -0.1610 -0.4769  0.8357
 5930TIP3   OH239280   5.215   5.505   4.880 -0.0596 -0.1689 -0.4109
 5930TIP3    H139281   5.255   5.419   4.893  0.9371  0.6140  2.3394
 5930TIP3    H239282   5.289   5.563   4.861 -0.4870  0.4534 -0.2084
 5931TIP3   OH239283   4.405   4.884   2.067  0.2833  0.6596  0.1851
 5931TIP3    H139284   4.388   4.900   2.160 -1.6918  2.4566 -0.4004
 5931TIP3    H239285   4.348   4.811   2.045 -0.0107  0.8890  0.1769
 5932TIP3   OH239286   3.392   3.514   2.524 -0.1702  0.1998 -0.2781
 5932TIP3    H139287   3.423   3.524   2.434 -0.0587  1.0007 -0.1608
 5932TIP3    H239288   3.297   3.502   2.515 -0.1637  0.3108 -0.4972
 5933TIP3   OH239289   1.519   1.140   3.538  0.1430 -0.0865 -0.5940
 5933TIP3    H139290   1.603   1.124   3.580  0.6377  0.8516 -1.1920
 5933TIP3    H239291   1.458   1.081   3.583  1.2836 -1.4398 -0.7677
 5934TIP3   OH239292   3.023   3.225   0.652 -0.7087  0.5332  0.3284
 5934TIP3    H139293   3.059   3.183   0.573 -0.4669  0.1036  0.6626
 5934TIP3    H239294   2.930   3.205   0.650 -0.5082 -0.4894  0.7645
 5935TIP3   OH239295   6.311   1.225   0.480  0.4024  0.7138  0.4095
 5935TIP3    H139296   6.385   1.187   0.433 -0.9106  0.9955 -2.0720
 5935TIP3    H239297   6.350   1.290   0.539  2.3424 -1.5447  1.7585
 5936TIP3   OH239298   4.543   0.877  12.914 -0.4076 -0.2105 -0.2597
 5936TIP3    H139299   4.607   0.924  12.966  0.6274  0.8662 -2.3858
 5936TIP3    H239300   4.593   0.807  12.871 -1.3557 -1.4624  0.5995
 5937TIP3   OH239301   4.347   4.794   4.896  0.2522  0.0267  0.3279
 5937TIP3    H139302   4.438   4.821   4.911 -0.5156  2.7547  0.6152
 5937TIP3    H239303   4.314   4.858   4.833 -1.7656 -0.2244  1.0737
 5938TIP3   OH239304   3.101   5.712   5.468 -0.4417 -0.1507 -0.1125
 5938TIP3    H139305   3.105   5.616   5.474 -0.8028 -0.2649 -1.4244
 5938TIP3    H239306   3.136   5.732   5.382 -0.5598  0.9000  0.0689
 5939TIP3   OH239307   6.448   5.805  14.186  0.0482 -0.3640 -0.3410
 5939TIP3    H139308   6.444   5.725  14.134 -0.1330 -1.6867  1.5900
 5939TIP3    H239309   6.376   5.797  14.249  1.6423 -0.0291  1.6501
 5940TIP3   OH239310   5.189   2.321   5.130 -0.0130  0.2051  0.0230
 5940TIP3    H139311   5.186   2.294   5.039  1.0298  0.3421 -0.0641
 5940TIP3    H239312   5.140   2.253   5.177  0.4368 -0.4915 -0.4949
 5941TIP3   OH239313   3.891   4.448   5.822 -0.0760 -0.0922 -0.1816
 5941TIP3    H139314   3.967   4.493   5.858  0.7363 -0.2025 -1.6660
 5941TIP3    H239315   3.928   4.387   5.759 -1.3660 -0.6600 -0.4122
 5942TIP3   OH239316   5.601   0.442   5.740  0.0750 -0.0528 -0.0394
 5942TIP3    H139317   5.670   0.400   5.792  1.0519  1.1545 -0.3032
 5942TIP3    H239318   5.545   0.371   5.712  1.9589 -1.2578 -0.9233
 5943TIP3   OH239319   3.614   0.710   0.235  0.0909  0.0451 -0.0104
 5943TIP3    H139320   3.586   0.623   0.208  2.1330 -0.6748  0.0416
 5943TIP3    H239321   3.697   0.696   0.280  0.0207  1.9349  0.8264
 5944TIP3   OH239322   2.291   1.035   4.499  0.8180  0.2370  0.6253
 5944TIP3    H139323   2.359   1.038   4.432  1.3884  0.7691  1.2170
 5944TIP3    H239324   2.210   1.056   4.451  0.8861 -1.4160 -0.2763
 5945TIP3   OH239325   6.673   6.325   1.973  0.1400  0.1791 -0.1796
 5945TIP3    H139326   6.715   6.387   2.032  0.9536  1.7225 -2.2667
 5945TIP3    H239327   6.744   6.294   1.916 -0.8658 -0.0455 -1.3626
 5946TIP3   OH239328   5.522   2.796  11.675 -0.1196  0.3053  0.2446
 5946TIP3    H139329   5.566   2.719  11.640  0.8823  1.2407 -0.6250
 5946TIP3    H239330   5.553   2.869  11.621 -1.4429  1.2584  0.6932
 5947TIP3   OH239331   5.276   1.163  11.569 -0.1593 -0.4349 -0.0469
 5947TIP3    H139332   5.259   1.128  11.481  0.3987 -1.1830  0.1385
 5947TIP3    H239333   5.289   1.086  11.624  1.9974  0.0606  0.1983
 5948TIP3   OH239334   3.632   5.163  13.240 -0.5231  0.2585  0.0171
 5948TIP3    H139335   3.541   5.179  13.214 -0.3925 -1.0149 -1.4319
 5948TIP3    H239336   3.676   5.139  13.158  0.5330 -1.5662  1.0352
 5949TIP3   OH239337   4.754   1.852  16.989  0.1240 -0.1339  0.0630
 5949TIP3    H139338   4.725   1.871  16.899  0.0986  1.4162  0.3783
 5949TIP3    H239339   4.674   1.856  17.041  0.2336 -0.4114  0.2529
 5950TIP3   OH239340   3.028   1.965   0.933  0.2450 -0.8482 -0.5679
 5950TIP3    H139341   3.093   2.011   0.985  0.8203 -0.5802 -1.4865
 5950TIP3    H239342   2.944   1.988   0.973  0.7015 -1.1584  0.6033
 5951TIP3   OH239343   3.982   3.518  13.901 -0.4869  0.5038  0.0860
 5951TIP3    H139344   3.898   3.472  13.905 -0.2520  0.1236  0.8921
 5951TIP3    H239345   4.017   3.511  13.990  0.8764 -0.2670 -0.4797
 5952TIP3   OH239346   0.790   6.702   2.682 -0.3083  0.0618  1.2422
 5952TIP3    H139347   0.746   6.786   2.692 -1.0819 -0.4959  2.8269
 5952TIP3    H239348   0.881   6.724   2.663 -0.8578  1.2361 -0.1986
 5953TIP3   OH239349   6.632   1.723   1.655 -0.1528 -0.2408 -0.9739
 5953TIP3    H139350   6.653   1.803   1.703  0.1812 -0.3145 -0.9923
 5953TIP3    H239351   6.539   1.709   1.670  0.4355 -1.8158  2.0195
 5954TIP3   OH239352   4.624   5.647  16.281  0.3527 -0.3702  0.1822
 5954TIP3    H139353   4.532   5.622  16.278  0.4612 -0.9935  1.2384
 5954TIP3    H239354   4.655   5.613  16.365  1.9237 -1.4931 -0.7895
 5955TIP3   OH239355   6.380   0.071   2.956 -0.1648  0.0970  0.4434
 5955TIP3    H139356   6.381  -0.022   2.931 -2.9174  0.4466 -1.5040
 5955TIP3    H239357   6.408   0.117   2.877 -1.7390  0.9680  0.3389
 5956TIP3   OH239358   1.457   4.266   1.257 -0.0730  0.1322 -0.0282
 5956TIP3    H139359   1.466   4.172   1.272 -1.8705 -0.1119 -0.2611
 5956TIP3    H239360   1.543   4.293   1.226  0.8756 -1.1653  1.2982
 5957TIP3   OH239361   5.603   0.079  12.210 -0.1538  0.4080  0.1571
 5957TIP3    H139362   5.668   0.020  12.172 -0.4429  1.4628 -2.2086
 5957TIP3    H239363   5.625   0.165  12.172 -2.0498  1.0604  0.4441
 5958TIP3   OH239364   5.296   3.176  10.961 -0.0068 -0.2543  0.4352
 5958TIP3    H139365   5.241   3.144  10.890 -0.2742  1.9031 -0.3998
 5958TIP3    H239366   5.384   3.145  10.939 -0.1361  0.1517 -0.6985
 5959TIP3   OH239367   2.028   3.925   0.952 -0.3907  0.0905  0.1886
 5959TIP3    H139368   2.015   3.838   0.987  0.4081  0.4840  1.5450
 5959TIP3    H239369   2.110   3.955   0.991 -2.5530  3.0115  3.0885
 5960TIP3   OH239370   4.155   5.439  13.783 -0.5420  0.6308 -0.4885
 5960TIP3    H139371   4.175   5.528  13.754  2.3035  0.6094  1.0030
 5960TIP3    H239372   4.106   5.450  13.864  0.2163  0.8961 -0.0515
 5961TIP3   OH239373   4.814   0.608  11.730  0.4104 -0.0610  0.1663
 5961TIP3    H139374   4.852   0.534  11.776  0.4933 -1.5477 -2.1328
 5961TIP3    H239375   4.882   0.637  11.670  0.0135  1.2627  0.3062
 5962TIP3   OH239376   4.948   2.636   1.916  0.2137  0.1475 -0.0078
 5962TIP3    H139377   4.965   2.542   1.924  0.5847  0.2724  0.7051
 5962TIP3    H239378   5.034   2.676   1.903 -0.0711  0.2619 -1.8173
 5963TIP3   OH239379   5.594   4.817  12.297  0.1895 -0.4829  0.9039
 5963TIP3    H139380   5.507   4.829  12.258 -0.1774 -0.9198  1.5799
 5963TIP3    H239381   5.642   4.766  12.231 -0.5988 -1.6983  1.2237
 5964TIP3   OH239382   4.540   0.407  14.110  0.6060 -0.4118 -0.6513
 5964TIP3    H139383   4.585   0.416  14.194 -1.0609 -1.5568  0.4452
 5964TIP3    H239384   4.505   0.494  14.092 -0.3506 -0.4735  0.7013
 5965TIP3   OH239385   1.451   5.686   4.796  0.8801 -0.0888 -0.4908
 5965TIP3    H139386   1.518   5.754   4.808  1.3864 -0.4354 -1.2547
 5965TIP3    H239387   1.501   5.605   4.781  0.3521 -1.1171  2.5106
 5966TIP3   OH239388   3.511   4.357  16.225  0.2115  0.7405  0.1734
 5966TIP3    H139389   3.514   4.358  16.321  2.3898  0.1938  0.1815
 5966TIP3    H239390   3.548   4.272  16.201 -2.0838  0.0399 -1.1830
 5967TIP3   OH239391   2.706   3.015  13.021 -0.2650  0.1289  0.0818
 5967TIP3    H139392   2.611   3.005  13.009 -0.8216  3.7372  0.2773
 5967TIP3    H239393   2.730   3.083  12.958  2.0779 -0.1565  0.6053
 5968TIP3   OH239394   3.258   1.017   3.109 -0.1280 -0.3640  0.0157
 5968TIP3    H139395   3.333   1.055   3.064  0.1346 -0.0361  0.7143
 5968TIP3    H239396   3.198   0.990   3.039 -0.3548  1.3710 -0.5014
 5969TIP3   OH239397   2.251   0.275   0.842 -0.5502 -0.3133 -0.0292
 5969TIP3    H139398   2.292   0.204   0.892  0.1282  0.2965  0.3109
 5969TIP3    H239399   2.311   0.349   0.853  0.3474 -0.5029 -2.8500
 5970TIP3   OH239400   3.604   1.342  14.656  0.0987  0.2469 -0.6757
 5970TIP3    H139401   3.532   1.306  14.604 -0.5697 -1.8060  1.4897
 5970TIP3    H239402   3.578   1.328  14.747  2.3248  1.3790  0.2243
 5971TIP3   OH239403   3.684   5.919  16.238 -0.0967  0.3070 -0.4708
 5971TIP3    H139404   3.628   5.989  16.204 -1.2661  1.0394  2.6014
 5971TIP3    H239405   3.742   5.963  16.300  2.1735 -0.8815 -1.6385
 5972TIP3   OH239406   2.128   3.222   4.876  0.5544  0.3811 -0.1667
 5972TIP3    H139407   2.187   3.297   4.885  0.4270  0.6196 -1.2747
 5972TIP3    H239408   2.118   3.190   4.966  0.6230  1.6718  0.3240
 5973TIP3   OH239409   4.744   0.714  12.390  0.2271  0.4462 -0.0946
 5973TIP3    H139410   4.712   0.653  12.324  0.7586  0.0057  0.0382
 5973TIP3    H239411   4.817   0.667  12.432  2.2900  2.0902 -1.6323
 5974TIP3   OH239412   1.000   6.283  13.960 -0.2972  0.2413  0.8125
 5974TIP3    H139413   0.940   6.294  13.886  1.9386 -1.0326 -1.3392
 5974TIP3    H239414   0.993   6.190  13.983  1.6508 -0.2292 -0.3033
 5975TIP3   OH239415   1.480   3.485   3.433 -0.3224  0.3414 -0.2182
 5975TIP3    H139416   1.416   3.434   3.484 -0.3232  0.1421 -0.4186
 5975TIP3    H239417   1.431   3.561   3.402 -0.7187 -0.2751 -1.1516
 5976TIP3   OH239418   5.527   4.685   3.645 -0.1854 -0.4075 -0.5954
 5976TIP3    H139419   5.605   4.630   3.658  0.9633  1.1458 -0.6675
 5976TIP3    H239420   5.484   4.686   3.730  1.7349  1.4281  0.4419
 5977TIP3   OH239421   5.212   3.486   0.909 -0.2862  0.1580 -0.1808
 5977TIP3    H139422   5.177   3.552   0.849  1.7776  1.5099  0.0211
 5977TIP3    H239423   5.273   3.534   0.965  0.7683 -1.8077  0.4367
 5978TIP3   OH239424   3.921   5.438  15.242  0.4440  0.2915  0.2616
 5978TIP3    H139425   3.934   5.429  15.147 -0.7646  0.1045  0.0978
 5978TIP3    H239426   3.941   5.529  15.261 -1.5936  0.9875 -0.6062
 5979TIP3   OH239427   1.340   3.375  14.021 -0.1345 -0.2872  0.2760
 5979TIP3    H139428   1.397   3.301  14.043  0.5481  0.3309  0.6385
 5979TIP3    H239429   1.399   3.440  13.982 -0.9120 -0.3439 -1.0297
 5980TIP3   OH239430   3.906   0.246   1.035 -0.1745 -0.0325 -0.7976
 5980TIP3    H139431   3.853   0.226   1.112 -1.0853  2.3673 -0.7284
 5980TIP3    H239432   3.980   0.297   1.069 -0.0484  0.1867 -1.3867
 5981TIP3   OH239433   4.628   4.280   3.004  1.0012 -0.0027  0.1205
 5981TIP3    H139434   4.686   4.313   3.073 -0.6667  1.9105  0.7033
 5981TIP3    H239435   4.566   4.351   2.988 -0.5989 -1.5726 -1.1522
 5982TIP3   OH239436   5.000   2.841   0.744  0.6632  0.3964 -0.0954
 5982TIP3    H139437   5.028   2.750   0.732  3.3449  0.6546  2.7368
 5982TIP3    H239438   4.911   2.844   0.710  0.7827 -3.0628 -1.0682
 5983TIP3   OH239439   2.449   6.036   0.777  0.1628  0.1180  0.2304
 5983TIP3    H139440   2.397   6.113   0.799  1.3836  1.1841 -0.4947
 5983TIP3    H239441   2.519   6.035   0.841 -0.0793 -0.6636  0.5019
 5984TIP3   OH239442   5.828   4.092   4.767 -0.4040  0.0986  0.2017
 5984TIP3    H139443   5.808   4.002   4.794  0.2644 -0.7108 -1.7811
 5984TIP3    H239444   5.746   4.124   4.728 -0.6418  0.3836  0.9058
 5985TIP3   OH239445   3.031   6.744  16.103  0.6837  0.9316  0.3488
 5985TIP3    H139446   2.999   6.817  16.156 -0.7895 -0.1611  1.0410
 5985TIP3    H239447   2.953   6.712  16.057  1.2435 -0.3844  0.2765
 5986TIP3   OH239448   6.191   5.764   1.002  0.0170  0.0431  0.4457
 5986TIP3    H139449   6.258   5.805   0.947  1.2179 -0.0655  1.7586
 5986TIP3    H239450   6.189   5.818   1.081  0.4936 -1.4713  1.5437
 5987TIP3   OH239451   5.431   1.864  14.101  0.4009 -0.0278 -0.2371
 5987TIP3    H139452   5.358   1.925  14.085  0.7186  0.3048 -0.4461
 5987TIP3    H239453   5.396   1.801  14.163  0.0783  0.4004  0.0278
 5988TIP3   OH239454   5.430   2.559  12.283  0.1367  0.1168 -0.8155
 5988TIP3    H139455   5.450   2.634  12.226 -0.6530  1.6116  0.7649
 5988TIP3    H239456   5.514   2.534  12.320  0.0888  2.2756  0.9729
 5989TIP3   OH239457   5.237   0.136   5.411 -0.1501 -0.0920  0.7993
 5989TIP3    H139458   5.178   0.187   5.356 -0.9123 -1.9084 -0.1776
 5989TIP3    H239459   5.178   0.084   5.467  0.5922  0.2532  1.9420
 5990TIP3   OH239460   6.278   6.729  15.049 -0.1969  0.0603 -0.1981
 5990TIP3    H139461   6.225   6.788  14.995  0.9221  1.5478  0.2824
 5990TIP3    H239462   6.326   6.676  14.986 -1.7244 -0.8771 -0.6424
 5991TIP3   OH239463   2.039   5.653   2.181 -0.0580  0.0967 -0.5401
 5991TIP3    H139464   2.047   5.704   2.100  0.7715  0.3920 -0.2785
 5991TIP3    H239465   1.964   5.690   2.226  0.0652  0.5680 -0.7246
 5992TIP3   OH239466   2.858   6.362  15.124 -0.1919 -0.5401  0.0311
 5992TIP3    H139467   2.944   6.403  15.122 -0.0597 -0.8144  0.1004
 5992TIP3    H239468   2.799   6.432  15.152 -0.0059 -0.3279 -0.1114
 5993TIP3   OH239469   6.348   3.818  13.248  0.3995  0.5266  0.4987
 5993TIP3    H139470   6.378   3.901  13.211  0.0751  0.2092 -0.5168
 5993TIP3    H239471   6.424   3.761  13.245  0.2008  0.2847 -0.3771
 5994TIP3   OH239472   3.297   5.308   6.370 -0.0374 -0.0951 -0.5805
 5994TIP3    H139473   3.291   5.236   6.433  1.0259  1.6671  1.6729
 5994TIP3    H239474   3.312   5.265   6.286 -0.9367 -2.5377  0.4235
 5995TIP3   OH239475   4.469   4.251   6.015  0.1634 -0.0014  0.0387
 5995TIP3    H139476   4.505   4.240   6.103  0.3251  0.4928  0.0405
 5995TIP3    H239477   4.420   4.171   5.999 -1.7358  0.7653  1.4616
 5996TIP3   OH239478   3.078   1.387   3.603  0.5043 -0.0144 -0.2854
 5996TIP3    H139479   3.155   1.335   3.581  0.5990  0.7752 -2.0003
 5996TIP3    H239480   3.004   1.327   3.590  0.7574 -0.4969  0.4504
 5997TIP3   OH239481   4.810   6.466   6.127  0.2299  0.5830  0.4300
 5997TIP3    H139482   4.793   6.557   6.104  0.0057  0.6760  0.9471
 5997TIP3    H239483   4.900   6.451   6.100 -0.0908  0.6097 -0.7153
 5998TIP3   OH239484   4.192   1.108   0.791 -0.2609  0.2624 -0.5818
 5998TIP3    H139485   4.140   1.188   0.782  2.4278  2.3225  0.7143
 5998TIP3    H239486   4.176   1.079   0.881  0.5815  0.7595 -0.2613
 5999TIP3   OH239487   6.656   3.813  16.437 -0.0872  0.4835 -0.1572
 5999TIP3    H139488   6.702   3.811  16.353  1.0512 -0.0792  0.4482
 5999TIP3    H239489   6.714   3.863  16.494 -0.0921 -0.4531  0.6973
 6000TIP3   OH239490   2.256   3.371  13.478 -0.4715 -0.2699 -0.1799
 6000TIP3    H139491   2.208   3.331  13.551 -1.1014  0.1442 -0.3611
 6000TIP3    H239492   2.257   3.465  13.498 -1.3494 -0.0448 -1.0850
 6001TIP3   OH239493   4.617   3.154   2.901  0.0839 -0.0503 -0.0738
 6001TIP3    H139494   4.584   3.207   2.974  1.4792 -1.4646  1.7002
 6001TIP3    H239495   4.661   3.218   2.844 -0.8368  1.0654  0.4106
 6002TIP3   OH239496   1.191   3.266   6.179 -0.2680 -0.0242 -0.4762
 6002TIP3    H139497   1.255   3.241   6.112 -1.3142  0.7252 -1.8255
 6002TIP3    H239498   1.129   3.193   6.180  0.9451 -1.0929  1.3560
 6003TIP3   OH239499   1.089   2.656  12.334 -0.1040 -0.2291 -0.1245
 6003TIP3    H139500   1.144   2.636  12.410 -0.1584 -0.9225 -0.2636
 6003TIP3    H239501   1.123   2.739  12.301 -1.6391  1.4284  2.1192
 6004TIP3   OH239502   6.145   3.157  13.712  0.2818 -0.0692 -0.0542
 6004TIP3    H139503   6.130   3.194  13.799 -2.4391  0.8542 -0.8265
 6004TIP3    H239504   6.165   3.064  13.729  1.9025  0.5159  1.6081
 6005TIP3   OH239505   0.332   5.722  15.703 -0.1752 -0.0150 -0.2176
 6005TIP3    H139506   0.275   5.799  15.716 -0.9212 -0.0152 -2.9375
 6005TIP3    H239507   0.275   5.647  15.719 -0.3684  0.0054 -0.7735
 6006TIP3   OH239508   2.937   3.910   2.592 -0.1896 -0.8063  0.6491
 6006TIP3    H139509   2.972   3.852   2.524 -0.5561 -1.3338  0.9140
 6006TIP3    H239510   3.015   3.954   2.627  0.0946 -1.1822  0.5002
 6007TIP3   OH239511   5.379   1.549   0.607  0.5063  0.4537 -0.3468
 6007TIP3    H139512   5.290   1.583   0.601  0.7951  1.2593 -0.3114
 6007TIP3    H239513   5.419   1.573   0.523  0.5917 -0.2048 -0.4973
 6008TIP3   OH239514   3.274   0.025   6.028 -0.0410 -0.6821 -0.1276
 6008TIP3    H139515   3.299  -0.064   6.054  0.1795 -0.7967 -0.7140
 6008TIP3    H239516   3.187   0.038   6.066 -0.6323 -1.6311 -1.1155
 6009TIP3   OH239517   3.585   5.714  14.032  0.5707 -0.4524 -0.3583
 6009TIP3    H139518   3.539   5.768  14.097  0.4347  1.0788 -1.6353
 6009TIP3    H239519   3.542   5.629  14.037 -0.1475 -0.0499  0.8145
 6010TIP3   OH239520   2.670   2.577  11.437 -0.1763  0.2789  0.6586
 6010TIP3    H139521   2.670   2.497  11.490  2.6102 -1.0376 -1.0985
 6010TIP3    H239522   2.599   2.564  11.374 -0.4600 -0.2873  1.0812
 6011TIP3   OH239523   2.829   1.289  14.113 -0.1559  0.1857 -0.0274
 6011TIP3    H139524   2.741   1.326  14.121 -0.1038  0.3092 -0.0217
 6011TIP3    H239525   2.815   1.198  14.086 -0.2490  0.6266 -1.5990
 6012TIP3   OH239526   2.931   3.185  11.112  0.9368  0.0620 -0.5279
 6012TIP3    H139527   2.855   3.134  11.142  1.5489  0.0299  1.0649
 6012TIP3    H239528   2.906   3.216  11.025 -0.7193 -0.3294 -0.2313
 6013TIP3   OH239529   4.285   3.643   4.207  0.2883  0.6165  0.2841
 6013TIP3    H139530   4.200   3.636   4.250 -0.0629 -0.6665 -0.5696
 6013TIP3    H239531   4.286   3.731   4.169  0.0017  1.2190  1.6157
 6014TIP3   OH239532   5.002   3.234   1.734  0.1227  0.2812 -0.5396
 6014TIP3    H139533   5.023   3.144   1.710  0.8478  0.6441 -1.3288
 6014TIP3    H239534   4.938   3.263   1.670  0.9405  0.7670 -1.1615
 6015TIP3   OH239535   0.377   0.281  17.237  0.2037 -0.4697 -0.0564
 6015TIP3    H139536   0.366   0.200  17.286 -0.4634 -0.8337 -0.7822
 6015TIP3    H239537   0.290   0.322  17.239 -0.0879 -0.9153 -1.6230
 6016TIP3   OH239538   0.401   1.285   1.129 -0.1222 -0.7873  0.5777
 6016TIP3    H139539   0.474   1.331   1.170 -0.5283 -0.2873  0.7493
 6016TIP3    H239540   0.377   1.339   1.054 -0.0460 -1.1722  0.2679
 6017TIP3   OH239541   3.106   1.199   4.614 -0.2217  0.2694  0.1005
 6017TIP3    H139542   3.014   1.196   4.641 -0.5886  0.8910 -1.0286
 6017TIP3    H239543   3.119   1.117   4.566  0.2053 -0.4498  1.3918
 6018TIP3   OH239544   3.143   2.042  11.742 -0.2796 -0.3191 -0.2111
 6018TIP3    H139545   3.049   2.043  11.725 -0.0495  1.8391 -1.7442
 6018TIP3    H239546   3.170   2.134  11.738  1.9702 -0.9081 -0.2966
 6019TIP3   OH239547   1.391   0.898   3.666 -0.2047  0.6636  0.3008
 6019TIP3    H139548   1.401   0.942   3.750 -0.5133 -1.5434  1.5512
 6019TIP3    H239549   1.300   0.867   3.665 -0.3248  0.9624 -1.0362
 6020TIP3   OH239550   6.712   1.143  13.451 -0.0207  0.1533 -0.3611
 6020TIP3    H139551   6.743   1.228  13.419  0.8457 -0.3415 -0.8500
 6020TIP3    H239552   6.627   1.132  13.408 -0.3348  0.9534  0.0302
 6021TIP3   OH239553   1.788   3.097  14.686  0.3945  0.3246  0.1574
 6021TIP3    H139554   1.803   3.020  14.741  0.2630 -0.7612 -1.2981
 6021TIP3    H239555   1.768   3.167  14.749  1.9211 -0.4546  1.5858
 6022TIP3   OH239556   3.467   0.644  11.099 -0.6499  0.1829  0.2544
 6022TIP3    H139557   3.469   0.739  11.088  1.0258  0.5355  2.7580
 6022TIP3    H239558   3.543   0.613  11.050  0.1334  0.4255  1.2886
 6023TIP3   OH239559   0.539   0.048  13.322  0.0114  0.3571 -0.4098
 6023TIP3    H139560   0.548   0.140  13.298  0.5975  0.4797  0.2521
 6023TIP3    H239561   0.472   0.047  13.391  1.5898  0.6036  1.2168
 6024TIP3   OH239562   3.160   2.629  13.281  0.7424  0.3974  1.2197
 6024TIP3    H139563   3.128   2.566  13.346  1.7847 -2.1115 -0.5292
 6024TIP3    H239564   3.087   2.691  13.270 -0.6469 -0.9183  2.4961
 6025TIP3   OH239565   4.447   5.837   5.471  0.1429 -0.2247 -0.1734
 6025TIP3    H139566   4.453   5.743   5.490 -1.3711 -0.5056 -0.9079
 6025TIP3    H239567   4.354   5.852   5.454  0.1922  1.6174  0.9263
 6026TIP3   OH239568   3.915   3.667  12.843 -0.2357 -0.3774  0.6260
 6026TIP3    H139569   3.947   3.610  12.914  1.4060 -0.4094 -0.0861
 6026TIP3    H239570   3.963   3.637  12.766  1.5836  2.6319  0.4085
 6027TIP3   OH239571   6.010   4.719   5.592  0.1250 -0.0974 -0.1191
 6027TIP3    H139572   5.921   4.710   5.624  0.3331  0.3137  0.5907
 6027TIP3    H239573   6.057   4.643   5.627  0.5864  0.8450  1.4086
 6028TIP3   OH239574   3.830   3.420   2.321 -0.6679 -1.0160 -0.1136
 6028TIP3    H139575   3.903   3.387   2.268 -0.0422 -0.6236  0.4874
 6028TIP3    H239576   3.855   3.400   2.411  1.6653  4.3516  0.8065
 6029TIP3   OH239577   0.366   5.934   0.896  0.3862 -0.2678  0.6725
 6029TIP3    H139578   0.339   5.955   0.986 -0.1123  0.8143  0.2833
 6029TIP3    H239579   0.365   6.018   0.850  3.9218 -0.1757  0.4697
 6030TIP3   OH239580   6.774   5.368  15.239  0.5284 -0.2625 -0.1198
 6030TIP3    H139581   6.717   5.420  15.296  0.9733 -1.0809  1.1047
 6030TIP3    H239582   6.777   5.282  15.280  0.6756 -0.9615 -1.5229
 6031TIP3   OH239583   6.099   2.169  10.985 -0.2791 -0.6905 -0.2754
 6031TIP3    H139584   6.146   2.135  10.908 -1.7602 -1.0159 -1.0827
 6031TIP3    H239585   6.168   2.197  11.045  0.9271 -0.7408 -1.5833
 6032TIP3   OH239586   5.241   0.554  13.818 -0.4242  0.2467  0.4349
 6032TIP3    H139587   5.207   0.573  13.905  1.5226 -0.3602  1.3961
 6032TIP3    H239588   5.268   0.462  13.823  1.8716  0.8462 -0.0237
 6033TIP3   OH239589   1.665   0.897   1.014 -0.2101 -0.2805 -0.5493
 6033TIP3    H139590   1.647   0.973   0.959 -0.1323  1.1774  1.3162
 6033TIP3    H239591   1.755   0.910   1.044  0.1100 -1.5895 -0.8754
 6034TIP3   OH239592   3.840   3.421   2.901 -0.5388 -0.1059 -0.4604
 6034TIP3    H139593   3.853   3.380   2.986 -1.8625  0.5071  0.0556
 6034TIP3    H239594   3.906   3.380   2.844  0.2078 -0.6820  0.7865
 6035TIP3   OH239595   4.138   5.737   2.022  0.5785  0.3338  0.2262
 6035TIP3    H139596   4.205   5.683   1.981 -1.1342 -2.0784  0.3618
 6035TIP3    H239597   4.166   5.745   2.113 -0.3764 -2.6970  0.8869
 6036TIP3   OH239598   1.942   3.839   3.433  0.2703  0.3365  0.0894
 6036TIP3    H139599   1.979   3.751   3.430 -2.0882 -0.7067 -0.2234
 6036TIP3    H239600   1.987   3.887   3.363 -1.0386 -1.7614 -2.3466
 6037TIP3   OH239601   3.362   3.792  14.576  0.0919  0.4611 -0.1265
 6037TIP3    H139602   3.305   3.864  14.601 -0.7547  0.3555 -1.6352
 6037TIP3    H239603   3.328   3.763  14.492  0.9728 -1.1136  0.0236
 6038TIP3   OH239604   1.073   4.780   5.380  0.2756  0.0265  0.4216
 6038TIP3    H139605   1.137   4.850   5.368 -0.5027  1.1094  2.1624
 6038TIP3    H239606   1.099   4.712   5.318  2.2079  1.0462  0.0505
 6039TIP3   OH239607   4.339   2.479  15.449  0.1204  0.4856  0.9084
 6039TIP3    H139608   4.278   2.439  15.510 -0.7476  0.9184  0.3452
 6039TIP3    H239609   4.319   2.572  15.452  1.3058  0.7413  1.3107
 6040TIP3   OH239610   0.992   5.652  12.646 -0.2202  0.1432 -0.3358
 6040TIP3    H139611   1.037   5.574  12.614  2.0556  0.2262  2.3302
 6040TIP3    H239612   0.950   5.689  12.568  1.1067 -2.0735 -2.2384
 6041TIP3   OH239613   0.878   0.514  11.610 -0.3849  0.1219 -0.7193
 6041TIP3    H139614   0.902   0.508  11.702  0.1128 -0.3954 -0.8788
 6041TIP3    H239615   0.915   0.436  11.570  0.6243  1.0290 -1.6275
 6042TIP3   OH239616   6.090   6.431   2.823  0.2526 -0.0418  0.4742
 6042TIP3    H139617   6.148   6.367   2.865  0.2558 -0.4734 -0.1814
 6042TIP3    H239618   6.069   6.393   2.738 -0.5661  0.3646  0.4846
 6043TIP3   OH239619   0.631   0.365  15.396 -0.4073 -0.6073  0.3653
 6043TIP3    H139620   0.670   0.397  15.315  3.5957  1.6407  2.8574
 6043TIP3    H239621   0.649   0.271  15.395  1.9102 -0.2207 -0.3072
 6044TIP3   OH239622   4.306   3.525  15.929  0.2626 -0.8689 -0.3463
 6044TIP3    H139623   4.271   3.450  15.881  0.8513 -3.2316  2.5941
 6044TIP3    H239624   4.230   3.570  15.964 -0.0585 -1.9815  0.4319
 6045TIP3   OH239625   6.786   0.853  10.325  0.3489 -0.1412 -0.4212
 6045TIP3    H139626   6.856   0.823  10.267 -0.4116 -2.1716 -0.3455
 6045TIP3    H239627   6.833   0.887  10.402  1.2733 -0.0383 -1.0102
 6046TIP3   OH239628   4.144   1.581   3.017  0.0687 -0.3322  0.2774
 6046TIP3    H139629   4.188   1.664   2.997 -1.7703  0.4154 -0.9412
 6046TIP3    H239630   4.092   1.600   3.095 -1.6152  0.2250 -0.9144
 6047TIP3   OH239631   6.499   6.155  15.234  0.2446  0.3659  0.0289
 6047TIP3    H139632   6.419   6.132  15.186  0.7870 -1.5416 -0.0583
 6047TIP3    H239633   6.468   6.177  15.322 -0.4040 -0.1140 -0.0686
 6048TIP3   OH239634   2.213   5.941   3.816 -0.4766 -0.2668 -0.8066
 6048TIP3    H139635   2.143   5.948   3.751 -0.3372 -0.3037 -0.9607
 6048TIP3    H239636   2.293   5.942   3.765 -0.3788 -0.6858 -0.6672
 6049TIP3   OH239637   1.459   1.156  15.750  0.2000 -0.0124 -0.0177
 6049TIP3    H139638   1.457   1.100  15.828 -0.1047  1.1055  0.8086
 6049TIP3    H239639   1.377   1.138  15.706  1.0593 -1.8487 -0.9954
 6050TIP3   OH239640   1.138   6.576   6.067  0.4451 -0.2818  0.1727
 6050TIP3    H139641   1.137   6.514   5.994 -0.7015 -0.2959  0.1903
 6050TIP3    H239642   1.142   6.521   6.146 -0.6383 -0.3475  0.1908
 6051TIP3   OH239643   1.065   1.897  10.631  0.6099  0.4388  0.2580
 6051TIP3    H139644   1.063   1.811  10.588  0.4165  0.3520  0.4347
 6051TIP3    H239645   1.140   1.892  10.690  1.9933  1.1978 -1.3484
 6052TIP3   OH239646   0.101   0.689  13.170 -0.2860  0.3008 -0.5370
 6052TIP3    H139647   0.078   0.641  13.250 -2.3890 -0.3139 -1.4258
 6052TIP3    H239648   0.099   0.781  13.196  2.7472  0.0763  0.9314
 6053TIP3   OH239649   1.305   0.464   4.259 -0.7528 -0.2075  0.2425
 6053TIP3    H139650   1.361   0.431   4.188 -1.5373 -2.0837  0.4402
 6053TIP3    H239651   1.357   0.533   4.300  0.1019  0.2714 -1.5538
 6054TIP3   OH239652   5.075   2.869   5.853 -0.0605 -0.0875 -0.4876
 6054TIP3    H139653   5.147   2.915   5.895 -0.6435  1.2558 -0.9055
 6054TIP3    H239654   4.999   2.889   5.907 -0.1631 -1.4089 -0.1117
 6055TIP3   OH239655   0.854   6.497   4.881  0.1553  0.2443  0.1883
 6055TIP3    H139656   0.930   6.539   4.839  0.3854  2.3777  2.4675
 6055TIP3    H239657   0.779   6.541   4.842  0.2525  0.5278  0.3181
 6056TIP3   OH239658   0.724   5.923   4.665 -0.0987  0.1904 -0.1087
 6056TIP3    H139659   0.757   5.873   4.590 -0.1453 -1.1299  0.7300
 6056TIP3    H239660   0.726   6.014   4.635 -2.4975 -0.4692 -2.6133
 6057TIP3   OH239661   2.586   1.627   5.530 -0.1309 -0.3331  0.3577
 6057TIP3    H139662   2.661   1.685   5.541 -0.8370  0.7885 -0.5650
 6057TIP3    H239663   2.623   1.546   5.495  0.6308  0.2391 -0.1814
 6058TIP3   OH239664   5.194   0.252  11.524  0.2383  0.0060  0.3978
 6058TIP3    H139665   5.118   0.226  11.473 -0.6140  0.1648  1.5440
 6058TIP3    H239666   5.266   0.202  11.487 -0.6326 -1.0063  0.0206
 6059TIP3   OH239667   0.080   3.357  12.131 -0.1388  0.2170  0.0453
 6059TIP3    H139668   0.111   3.307  12.207 -0.1891  0.8785  0.5081
 6059TIP3    H239669   0.060   3.444  12.166  4.9383  2.3963 -1.5889
 6060TIP3   OH239670   3.746   1.339  15.309 -0.5330  0.1461 -0.0981
 6060TIP3    H139671   3.811   1.393  15.353  0.6892 -0.6541 -0.8800
 6060TIP3    H239672   3.743   1.258  15.360 -0.2819 -0.1503 -0.5452
 6061TIP3   OH239673   5.430   5.620   3.860  0.1186  0.3131 -0.3991
 6061TIP3    H139674   5.506   5.667   3.827 -0.6865  2.4580  0.5961
 6061TIP3    H239675   5.398   5.570   3.785  1.3713  0.9199 -1.3642
 6062TIP3   OH239676   1.445   6.418   3.491  0.7399 -0.2222 -0.5744
 6062TIP3    H139677   1.364   6.395   3.445  0.3523 -1.2510  0.5810
 6062TIP3    H239678   1.422   6.493   3.545  0.8269  0.1012 -0.9793
 6063TIP3   OH239679   3.107   3.036  13.715  0.1845  0.0198 -0.2642
 6063TIP3    H139680   3.185   3.087  13.737  0.0161 -0.3268  1.2310
 6063TIP3    H239681   3.034   3.092  13.739 -0.1198  0.8516 -2.7957
 6064TIP3   OH239682   1.556   4.196  11.525  0.4452  0.4596  0.2372
 6064TIP3    H139683   1.503   4.261  11.572  0.1281  1.0649 -0.9242
 6064TIP3    H239684   1.593   4.244  11.451  1.7648 -0.2231  0.4241
 6065TIP3   OH239685   5.566   3.455   2.006 -0.1204 -0.6180  0.1341
 6065TIP3    H139686   5.576   3.521   2.076 -0.9484 -1.4958  1.1052
 6065TIP3    H239687   5.486   3.409   2.028 -0.9189 -0.3171 -1.9444
 6066TIP3   OH239688   5.638   5.562  14.496 -0.0629  0.5175  0.0656
 6066TIP3    H139689   5.672   5.632  14.440 -0.7629  1.3019  0.5970
 6066TIP3    H239690   5.548   5.550  14.467  0.0351 -0.1381  0.0157
 6067TIP3   OH239691   3.801   1.641   0.556 -0.0875 -0.0936 -0.1301
 6067TIP3    H139692   3.728   1.595   0.514  0.4189 -3.1138  2.0139
 6067TIP3    H239693   3.877   1.585   0.541  1.9456  2.8735 -2.1595
 6068TIP3   OH239694   4.266   4.322   3.508 -0.4181  0.0768 -0.1189
 6068TIP3    H139695   4.356   4.354   3.499 -0.4195 -0.4757 -3.5556
 6068TIP3    H239696   4.272   4.252   3.572  1.7133 -0.2044 -0.5309
 6069TIP3   OH239697   3.818   1.713  12.851 -0.8280 -0.0040 -0.0785
 6069TIP3    H139698   3.791   1.743  12.938 -1.0073  1.2225 -0.5338
 6069TIP3    H239699   3.767   1.768  12.791  1.8253  1.6323 -0.9773
 6070TIP3   OH239700   2.093   0.022  13.796  0.3020 -0.1298  0.0549
 6070TIP3    H139701   2.068  -0.038  13.725 -0.1516  1.3108 -1.0392
 6070TIP3    H239702   2.189   0.017  13.798  0.2449 -1.9239  0.9492
 6071TIP3   OH239703   2.010   0.795  17.159 -0.1501  0.0926 -0.3238
 6071TIP3    H139704   1.957   0.874  17.160 -0.5901 -0.1692  1.7913
 6071TIP3    H239705   1.951   0.727  17.124 -0.7323  0.1240  0.5685
 6072TIP3   OH239706   3.896   5.390   4.936 -0.3115 -0.0090 -0.0771
 6072TIP3    H139707   3.850   5.456   4.884 -1.2554 -1.8562 -1.7296
 6072TIP3    H239708   3.833   5.366   5.004 -0.3014  0.1788  0.0002
 6073TIP3   OH239709   6.692   3.373  11.953 -0.2127 -0.2335  0.4511
 6073TIP3    H139710   6.656   3.461  11.945 -1.7236 -0.8735 -0.2506
 6073TIP3    H239711   6.762   3.381  12.017  1.2636  1.9164 -1.3115
 6074TIP3   OH239712   1.288   0.672  12.572  0.7036  0.5403 -0.3530
 6074TIP3    H139713   1.246   0.613  12.510  2.6955 -2.2900  0.7143
 6074TIP3    H239714   1.331   0.738  12.518 -2.0361  1.4149 -1.5973
 6075TIP3   OH239715   1.091   2.408  12.570 -0.2326  0.3307  0.7044
 6075TIP3    H139716   1.028   2.474  12.602 -0.5200  0.6188 -0.3864
 6075TIP3    H239717   1.041   2.359  12.504  0.2981 -0.3060  0.7755
 6076TIP3   OH239718   5.613   3.160   4.699  0.7676 -0.2340  0.1229
 6076TIP3    H139719   5.567   3.095   4.752  0.8891 -0.5459 -0.1511
 6076TIP3    H239720   5.588   3.244   4.738  0.1937 -0.4122  0.1587
 6077TIP3   OH239721   4.095   3.666  11.088  0.3627  0.7358  0.1382
 6077TIP3    H139722   4.170   3.648  11.146  1.2372 -1.6199 -1.5701
 6077TIP3    H239723   4.132   3.720  11.018  0.0407  1.0261  0.1930
 6078TIP3   OH239724   0.903   4.403   3.224  0.0945  0.2185 -0.0449
 6078TIP3    H139725   0.863   4.319   3.244 -0.3419  0.5961  0.7316
 6078TIP3    H239726   0.907   4.448   3.309  1.6161  0.4251 -0.1977
 6079TIP3   OH239727   3.975   5.433  15.562 -0.4946 -0.2244 -0.2105
 6079TIP3    H139728   3.963   5.358  15.504  1.0256 -1.4180  0.9134
 6079TIP3    H239729   3.887   5.456  15.590 -1.3306  0.6736 -3.2221
 6080TIP3   OH239730   0.609   5.752  12.618 -0.0066  0.9977 -0.0252
 6080TIP3    H139731   0.524   5.736  12.576  0.1096  0.9112 -0.2275
 6080TIP3    H239732   0.587   5.793  12.702 -0.2792  0.3546  0.2215
 6081TIP3   OH239733   1.879   3.466   1.876 -0.5678 -0.0921 -0.9976
 6081TIP3    H139734   1.950   3.446   1.937 -0.0328 -0.0597 -1.6023
 6081TIP3    H239735   1.832   3.384   1.865 -1.3629  0.1608  0.3320
 6082TIP3   OH239736   4.089   0.395   1.170  0.0468  1.0804 -0.2782
 6082TIP3    H139737   4.037   0.456   1.222 -1.1469 -0.5320  0.4849
 6082TIP3    H239738   4.163   0.372   1.227 -1.1295 -0.4949  0.7037
 6083TIP3   OH239739   2.118   6.238   3.767 -0.6363  0.0701 -0.5583
 6083TIP3    H139740   2.213   6.237   3.781 -0.7065 -1.7285  0.1668
 6083TIP3    H239741   2.101   6.319   3.719  1.4023 -0.1075 -1.6985
 6084TIP3   OH239742   0.304   3.955   4.897  0.1523  0.4423  0.1820
 6084TIP3    H139743   0.227   3.970   4.843 -0.1556  1.7275  0.9389
 6084TIP3    H239744   0.295   4.016   4.970  0.9518 -0.6793  1.2771
 6085TIP3   OH239745   2.636   5.092   2.535 -0.0391 -0.5935 -0.0548
 6085TIP3    H139746   2.582   5.069   2.459 -1.7303 -0.8840  1.1950
 6085TIP3    H239747   2.622   5.021   2.597  1.6065 -0.5426  0.4270
 6086TIP3   OH239748   0.282   1.227   1.680 -0.2025  0.5454  0.2066
 6086TIP3    H139749   0.260   1.234   1.587  2.1012 -0.7996 -0.5154
 6086TIP3    H239750   0.251   1.140   1.705 -0.9552  0.9626  0.7847
 6087TIP3   OH239751   1.405   3.423  15.386  0.6493 -0.3231 -0.0738
 6087TIP3    H139752   1.363   3.393  15.467  1.6016  0.9052  0.9009
 6087TIP3    H239753   1.368   3.510  15.370  2.8388  0.8574  0.8882
 6088TIP3   OH239754   5.629   6.180  13.654  0.2554  0.3586 -0.6351
 6088TIP3    H139755   5.551   6.223  13.689  0.3777  1.2465 -1.3990
 6088TIP3    H239756   5.594   6.109  13.600  0.0734 -1.1346  1.3417
 6089TIP3   OH239757   1.056   3.611   0.676 -0.3932  0.0943 -0.3139
 6089TIP3    H139758   1.124   3.665   0.637 -1.1704  1.6958  0.4675
 6089TIP3    H239759   1.048   3.642   0.766 -1.4761 -0.7178 -0.1010
 6090TIP3   OH239760   6.583   6.325   6.515  0.2075 -0.2071 -0.4241
 6090TIP3    H139761   6.605   6.416   6.494  1.5389  0.0747  1.9088
 6090TIP3    H239762   6.657   6.275   6.481  0.0752 -0.2868 -0.5961
 6091TIP3   OH239763   3.064   3.215   4.415  0.4638  0.2871  0.4319
 6091TIP3    H139764   3.092   3.162   4.489  0.1127 -1.6499 -0.7456
 6091TIP3    H239765   2.980   3.177   4.388  0.5629  0.9541 -0.9167
 6092TIP3   OH239766   1.116   2.884   4.127 -0.2194  0.6210 -0.5265
 6092TIP3    H139767   1.186   2.879   4.193 -0.1988  2.5180 -0.3323
 6092TIP3    H239768   1.123   2.802   4.079  0.5911 -0.2713  1.0183
 6093TIP3   OH239769   1.018   4.115   6.369  0.5367 -0.2103 -0.2493
 6093TIP3    H139770   0.933   4.157   6.353  0.0652 -1.2380 -0.5282
 6093TIP3    H239771   1.082   4.183   6.351 -0.2004  0.3709 -0.7520
 6094TIP3   OH239772   1.342   4.017  13.401  0.3871  0.3368 -0.1874
 6094TIP3    H139773   1.323   4.109  13.420 -1.0636  0.1104 -0.3882
 6094TIP3    H239774   1.323   4.008  13.307 -0.7381 -0.4273  0.0845
 6095TIP3   OH239775   6.315   4.104   5.090  0.1328  0.0346 -0.5096
 6095TIP3    H139776   6.386   4.041   5.077  0.0600 -0.0006 -0.7327
 6095TIP3    H239777   6.318   4.160   5.013 -1.3816 -1.2238 -1.5579
 6096TIP3   OH239778   1.817   1.928  10.440  0.6407 -0.2100 -0.4743
 6096TIP3    H139779   1.835   1.847  10.392 -0.1472  0.0177 -1.1965
 6096TIP3    H239780   1.728   1.916  10.474 -0.1389  0.9280 -1.9294
 6097TIP3   OH239781   4.694   3.737   2.300  0.1644 -0.5859 -0.6934
 6097TIP3    H139782   4.720   3.822   2.336 -1.9139 -0.3189  0.3734
 6097TIP3    H239783   4.735   3.734   2.214  0.5956  1.3475 -0.6138
 6098TIP3   OH239784   2.456   1.878  14.782  0.2324  0.1658 -0.2531
 6098TIP3    H139785   2.540   1.900  14.822 -0.1532  0.7785  0.2423
 6098TIP3    H239786   2.457   1.783  14.774  0.4343  0.0496  0.9755
 6099TIP3   OH239787   6.494   1.069   5.884 -0.3530 -0.0207  0.2262
 6099TIP3    H139788   6.400   1.059   5.868 -0.6910  0.3768  1.8164
 6099TIP3    H239789   6.512   1.012   5.959  1.3171 -2.4489 -1.8473
 6100TIP3   OH239790   4.174   2.522  10.792 -0.4332 -0.6745 -0.2320
 6100TIP3    H139791   4.230   2.599  10.784 -1.3272 -0.0725 -0.9841
 6100TIP3    H239792   4.217   2.455  10.740 -0.1019 -0.3995 -0.3152
 6101TIP3   OH239793   2.078   0.332   4.361 -0.6619 -0.3772 -0.6481
 6101TIP3    H139794   2.031   0.279   4.296 -0.7070  0.1191 -1.0252
 6101TIP3    H239795   2.010   0.385   4.402 -1.1639 -2.8124  1.9755
 6102TIP3   OH239796   2.118   0.474   4.605 -0.2182 -0.3306  0.1473
 6102TIP3    H139797   2.201   0.446   4.645  0.6896  0.6319 -0.9666
 6102TIP3    H239798   2.122   0.440   4.516 -0.2912  1.0164 -0.3909
 6103TIP3   OH239799   0.743   5.610  16.887  0.2967 -0.4557 -0.4556
 6103TIP3    H139800   0.710   5.548  16.952  0.0905  0.1408  0.0101
 6103TIP3    H239801   0.749   5.558  16.806  0.0274 -1.0558 -0.0977
 6104TIP3   OH239802   3.903   1.693  15.168  0.1824  0.1766 -0.2883
 6104TIP3    H139803   3.829   1.701  15.228  0.5823 -0.2839  0.2743
 6104TIP3    H239804   3.950   1.776  15.176 -0.4493  0.6104 -0.9024
 6105TIP3   OH239805   2.959   4.013   4.118 -0.3622  0.0536 -0.1757
 6105TIP3    H139806   2.935   3.956   4.045 -1.0604 -0.8413  0.7196
 6105TIP3    H239807   2.876   4.045   4.152 -0.0238  0.7552 -0.0034
 6106TIP3   OH239808   0.358   3.833   2.445  0.5925 -0.3889  0.5685
 6106TIP3    H139809   0.417   3.832   2.521  1.2929 -0.8887  0.0259
 6106TIP3    H239810   0.413   3.808   2.371  0.0691  0.7739 -0.2393
 6107TIP3   OH239811   3.045   2.897   2.198  0.2211 -0.0605 -0.0375
 6107TIP3    H139812   3.111   2.965   2.211  1.9725 -1.7929  0.7977
 6107TIP3    H239813   3.028   2.862   2.285 -1.0258 -0.3642 -0.3781
 6108TIP3   OH239814   0.290   1.052   3.701 -0.2498 -0.0723 -0.0776
 6108TIP3    H139815   0.245   0.976   3.737 -2.7877  0.1925 -2.3726
 6108TIP3    H239816   0.257   1.126   3.751  1.0004 -0.2409  1.0739
 6109TIP3   OH239817   3.814   4.611  15.395 -0.2907 -0.3033 -0.3968
 6109TIP3    H139818   3.902   4.592  15.427 -0.6461  0.2394  0.9749
 6109TIP3    H239819   3.771   4.526  15.392  0.0419 -0.4784 -0.2865
 6110TIP3   OH239820   2.357   5.360  11.374  0.4365 -0.0161  0.1459
 6110TIP3    H139821   2.320   5.399  11.453  1.4840 -0.3451  0.8266
 6110TIP3    H239822   2.427   5.420  11.348 -0.6201  0.6740 -1.2054
 6111TIP3   OH239823   6.219   3.994   4.262  0.2511 -0.2518 -0.3124
 6111TIP3    H139824   6.279   4.040   4.322 -1.8690  2.0757  0.2188
 6111TIP3    H239825   6.174   3.931   4.317 -1.4698  1.6690  0.6186
 6112TIP3   OH239826   2.689   0.224   3.920 -0.4263 -0.1373 -0.1222
 6112TIP3    H139827   2.699   0.262   3.833 -0.2503  0.8148  0.3015
 6112TIP3    H239828   2.600   0.248   3.947  0.0474  0.9051  0.5721
 6113TIP3   OH239829   3.205   5.788   4.300  0.1575  0.1823 -0.5613
 6113TIP3    H139830   3.232   5.729   4.370 -1.4772  0.3489  0.2583
 6113TIP3    H239831   3.187   5.730   4.226 -1.6281 -0.4311  0.2957
 6114TIP3   OH239832   1.560   2.702  12.590 -0.4430  0.6169 -0.5362
 6114TIP3    H139833   1.538   2.610  12.604  0.8796  0.3150 -0.2731
 6114TIP3    H239834   1.585   2.734  12.676  2.7852  0.1447 -1.1795
 6115TIP3   OH239835   4.770   3.158   0.822  0.0806 -0.2814  0.7263
 6115TIP3    H139836   4.708   3.171   0.893  1.0887  0.1257  1.5623
 6115TIP3    H239837   4.753   3.230   0.762  0.3742  0.4006  1.4351
 6116TIP3   OH239838   5.894   1.508  10.325  0.0844 -0.1835 -0.2631
 6116TIP3    H139839   5.881   1.602  10.313  3.2422  0.2199 -1.6875
 6116TIP3    H239840   5.924   1.500  10.416 -0.6716  0.1028  0.0169
 6117TIP3   OH239841   5.202   4.582  16.426  0.5743 -0.5919  0.0311
 6117TIP3    H139842   5.220   4.501  16.473 -0.8062 -0.9748 -0.0415
 6117TIP3    H239843   5.137   4.627  16.480  1.6753  0.7202  0.3229
 6118TIP3   OH239844   1.792   3.084   5.842  0.2596  0.1961 -0.3010
 6118TIP3    H139845   1.791   3.141   5.919  1.1231 -2.6644  2.0315
 6118TIP3    H239846   1.789   3.144   5.767 -0.3212  3.1643  1.9128
 6119TIP3   OH239847   1.330   4.232   2.913  0.2615 -0.7377 -0.4143
 6119TIP3    H139848   1.311   4.323   2.889 -1.0745 -0.8363  0.2037
 6119TIP3    H239849   1.371   4.195   2.834  1.3891  0.5449 -0.4735
 6120TIP3   OH239850   5.538   3.262  16.196  0.4133 -0.5607 -0.2839
 6120TIP3    H139851   5.485   3.286  16.271  0.5543 -0.1693 -0.3097
 6120TIP3    H239852   5.490   3.295  16.120  0.9311  0.2389 -0.2766
 6121TIP3   OH239853   6.825   6.620   3.190  0.6134  0.4105 -0.2372
 6121TIP3    H139854   6.769   6.698   3.190  1.6671  1.2026  0.5348
 6121TIP3    H239855   6.913   6.654   3.201  1.1312 -0.8880 -0.1649
 6122TIP3   OH239856   6.332   4.803   3.464 -0.2246  0.6364  0.0367
 6122TIP3    H139857   6.314   4.897   3.472 -1.1341  0.4358  0.4836
 6122TIP3    H239858   6.248   4.761   3.483  0.4192 -0.3134  0.8662
 6123TIP3   OH239859   1.563   6.652  14.781 -0.2631 -0.1502  0.2214
 6123TIP3    H139860   1.538   6.733  14.736 -2.6256  0.0088  1.6407
 6123TIP3    H239861   1.567   6.586  14.712  2.3206  1.1822 -1.0770
 6124TIP3   OH239862   6.446   1.455   2.317  0.6236  0.0026 -0.4051
 6124TIP3    H139863   6.538   1.473   2.338 -0.0957  1.2353  2.0176
 6124TIP3    H239864   6.420   1.528   2.261  0.6014  0.7756  0.5881
 6125TIP3   OH239865   4.399   5.411   4.764 -0.5122 -0.4854  0.5566
 6125TIP3    H139866   4.308   5.382   4.770 -0.5401 -0.2676  1.3045
 6125TIP3    H239867   4.442   5.370   4.839 -0.4696  1.0848  1.4158
 6126TIP3   OH239868   6.161   4.685   5.063 -0.7388  0.5915  0.5136
 6126TIP3    H139869   6.175   4.705   5.155  1.2053 -0.8491  0.6031
 6126TIP3    H239870   6.175   4.590   5.056 -2.4295  0.4032 -1.0167
 6127TIP3   OH239871   5.974   5.800  16.628  0.3427 -0.1999  0.1830
 6127TIP3    H139872   6.021   5.758  16.556 -1.5578 -1.4024 -0.4090
 6127TIP3    H239873   5.953   5.888  16.596 -0.0971 -0.5729 -0.5532
 6128TIP3   OH239874   2.418   3.123   3.875  0.0685 -0.0583 -0.8043
 6128TIP3    H139875   2.500   3.074   3.883  0.0546  0.0790  0.3262
 6128TIP3    H239876   2.409   3.169   3.959 -1.3843 -0.4204 -0.7340
 6129TIP3   OH239877   3.094   0.139  14.623 -0.2030 -0.1092  0.2808
 6129TIP3    H139878   3.003   0.148  14.649 -0.0138  0.3203  0.8279
 6129TIP3    H239879   3.142   0.131  14.706  0.6598  3.3849  0.2584
 6130TIP3   OH239880   3.339   0.985  13.060  0.3555  0.4794 -0.3230
 6130TIP3    H139881   3.294   1.020  13.137  0.8710  0.4798 -0.0167
 6130TIP3    H239882   3.378   1.062  13.018 -1.8293  0.7994 -1.8765
 6131TIP3   OH239883   4.090   0.337   2.090 -0.0676 -0.0032 -0.6526
 6131TIP3    H139884   4.053   0.253   2.118 -0.6024 -0.1164 -1.6533
 6131TIP3    H239885   4.170   0.346   2.142 -0.7706 -0.4129  0.5468
 6132TIP3   OH239886   6.341   4.159  16.855  0.1888  0.3791 -0.1818
 6132TIP3    H139887   6.279   4.124  16.919 -1.2067  1.5138 -0.8579
 6132TIP3    H239888   6.412   4.195  16.907  0.8482 -1.8675  0.5808
 6133TIP3   OH239889   6.589   4.923  14.621  0.0263  0.6639  0.0287
 6133TIP3    H139890   6.667   4.933  14.567  0.5461 -0.2801  0.5733
 6133TIP3    H239891   6.593   4.996  14.683  0.5142  0.5831  0.0966
 6134TIP3   OH239892   0.008   6.498  11.541  0.1994  0.5182  0.2555
 6134TIP3    H139893   0.085   6.472  11.491  1.8478  0.4536  2.6639
 6134TIP3    H239894  -0.058   6.432  11.520  1.7293 -1.0713  0.2674
 6135TIP3   OH239895   5.320   1.976   4.895 -0.0957 -0.2779 -0.6140
 6135TIP3    H139896   5.396   1.921   4.916 -0.6737 -1.1441 -0.7521
 6135TIP3    H239897   5.344   2.018   4.812  1.0989  1.1254  0.3720
 6136TIP3   OH239898   4.758   4.115  13.367  0.3995  0.3229  0.1792
 6136TIP3    H139899   4.843   4.158  13.379  0.7232  0.2991 -1.6816
 6136TIP3    H239900   4.718   4.162  13.294 -0.3255 -0.9555 -0.2769
 6137TIP3   OH239901   2.510   4.136  15.903  0.2664 -0.3943  0.6312
 6137TIP3    H139902   2.555   4.210  15.862  0.8041  0.1261  2.0741
 6137TIP3    H239903   2.417   4.153  15.888  0.4764 -1.1564 -1.8486
 6138TIP3   OH239904   1.353   3.106  13.896 -0.2176  0.3237 -0.5459
 6138TIP3    H139905   1.306   3.024  13.881 -1.1026  0.3028  1.8811
 6138TIP3    H239906   1.291   3.175  13.871 -0.6139  0.2660  0.2531
 6139TIP3   OH239907   0.546   4.722   3.624 -0.2134  0.1419 -0.3059
 6139TIP3    H139908   0.461   4.722   3.579 -0.6714  0.2024  0.5395
 6139TIP3    H239909   0.532   4.667   3.701  0.9034 -0.9797 -0.8506
 6140TIP3   OH239910   5.250   0.174  13.001  0.0556  0.6156 -0.0365
 6140TIP3    H139911   5.199   0.123  13.065 -0.7951 -0.6947 -1.6837
 6140TIP3    H239912   5.188   0.240  12.969 -0.5157 -0.6207 -1.6252
 6141TIP3   OH239913   0.022   3.087  14.967  0.5591  0.3473  0.3617
 6141TIP3    H139914  -0.056   3.137  14.945  0.3540 -1.1565 -2.7516
 6141TIP3    H239915  -0.001   2.996  14.948  2.8421 -0.2226  0.0589
 6142TIP3   OH239916   5.846   2.118  14.505  0.6564  0.0500  0.2218
 6142TIP3    H139917   5.925   2.169  14.486  0.5619  0.1722  0.1553
 6142TIP3    H239918   5.775   2.167  14.464  0.7142 -0.7694 -0.9013
 6143TIP3   OH239919   3.005   0.947   6.046 -0.0642 -0.2361  0.5288
 6143TIP3    H139920   2.990   0.979   5.957  1.2757  0.2942  0.4726
 6143TIP3    H239921   2.975   1.019   6.103 -0.8307 -0.5375  0.5250
 6144TIP3   OH239922   0.233   2.235  15.703  0.1911  0.4023 -0.0341
 6144TIP3    H139923   0.208   2.168  15.766 -1.0148  0.3157 -0.5765
 6144TIP3    H239924   0.328   2.239  15.708  0.5533 -2.9941 -1.5880
 6145TIP3   OH239925   0.259   2.126   1.070  0.3238 -0.2511  0.5937
 6145TIP3    H139926   0.168   2.145   1.094 -0.0262  0.6747 -1.2875
 6145TIP3    H239927   0.311   2.170   1.136 -0.5939  0.2344  1.0094
 6146TIP3   OH239928   5.014   3.895  15.398 -0.5328  0.0293 -0.0998
 6146TIP3    H139929   5.026   3.846  15.316  1.0743 -1.1572  0.7973
 6146TIP3    H239930   5.067   3.974  15.387  0.9259 -0.8527  0.3413
 6147TIP3   OH239931   3.750   2.089  11.392  0.0815 -0.0597  0.5235
 6147TIP3    H139932   3.750   1.998  11.362  1.1390  0.4442 -1.1571
 6147TIP3    H239933   3.691   2.134  11.330  1.5539  0.8334 -0.2874
 6148TIP3   OH239934   5.148   3.433  14.706  0.2178  0.5301 -0.2630
 6148TIP3    H139935   5.107   3.406  14.788  1.0881  0.3366  0.1239
 6148TIP3    H239936   5.147   3.529  14.709  1.3555  0.5398  0.5728
 6149TIP3   OH239937   4.651   2.794   4.023 -0.5221 -0.0357 -0.6278
 6149TIP3    H139938   4.596   2.755   4.091 -0.9911  1.9163  0.1900
 6149TIP3    H239939   4.643   2.734   3.949 -0.8851 -1.6521  0.6418
 6150TIP3   OH239940   2.647   6.597   4.967  0.6277  0.4499  0.2956
 6150TIP3    H139941   2.612   6.538   5.034 -1.0001  2.4941  1.3392
 6150TIP3    H239942   2.582   6.595   4.897  0.0422  1.7325  0.7823
 6151TIP3   OH239943   5.257   6.608   4.454  0.1201  0.4827 -0.4270
 6151TIP3    H139944   5.239   6.540   4.389  0.4763 -0.1456  0.1233
 6151TIP3    H239945   5.174   6.656   4.461 -0.7412 -1.0524  0.5322
 6152TIP3   OH239946   2.312   4.722   2.225  0.0032 -0.5025  0.1440
 6152TIP3    H139947   2.228   4.768   2.222 -0.0425 -0.5956 -0.0050
 6152TIP3    H239948   2.342   4.733   2.315  0.6228  0.9426 -0.2191
 6153TIP3   OH239949   6.687   5.031   1.450  0.5777  0.1700  0.2105
 6153TIP3    H139950   6.639   5.073   1.520 -0.4057  1.3931 -1.1318
 6153TIP3    H239951   6.743   5.100   1.414  0.0317 -0.0251 -1.0851
 6154TIP3   OH239952   3.690   2.269   6.160  0.0607  0.4018 -0.4687
 6154TIP3    H139953   3.681   2.188   6.109  0.1168  0.3226 -0.3527
 6154TIP3    H239954   3.756   2.248   6.226  0.6413  0.7747 -0.9200
 6155TIP3   OH239955   3.759   0.300   4.020  0.3516  0.0767 -0.2448
 6155TIP3    H139956   3.840   0.253   4.004  1.0449  1.5733 -1.4132
 6155TIP3    H239957   3.719   0.309   3.934 -1.4974 -1.3208  0.4124
 6156TIP3   OH239958   3.569   4.784  16.944 -0.2907 -0.3588  0.9564
 6156TIP3    H139959   3.495   4.744  16.899 -0.8124 -1.9985  3.0875
 6156TIP3    H239960   3.577   4.871  16.905 -1.9220 -0.9528 -0.8526
 6157TIP3   OH239961   4.069   6.272  16.856 -0.1276 -0.4700  0.0505
 6157TIP3    H139962   4.035   6.195  16.903  2.2510 -2.2639 -0.9897
 6157TIP3    H239963   4.138   6.306  16.913 -1.2296  1.0412  0.5480
 6158TIP3   OH239964   1.134   2.532   5.444  0.3370 -0.5364  0.0019
 6158TIP3    H139965   1.090   2.614   5.465 -0.4527 -0.2208 -2.5466
 6158TIP3    H239966   1.226   2.557   5.430  0.6544 -0.5840  1.7837
 6159TIP3   OH239967   6.822   4.749   4.145  0.4085  0.2465 -0.1941
 6159TIP3    H139968   6.853   4.688   4.212  1.4392  0.3327 -0.5705
 6159TIP3    H239969   6.793   4.693   4.073  2.2386  0.1730 -0.9256
 6160TIP3   OH239970   0.364   0.044   3.458  0.1213  0.4470  1.2019
 6160TIP3    H139971   0.379   0.035   3.552 -2.1608  0.9582  1.6545
 6160TIP3    H239972   0.338   0.135   3.446  3.1743  1.2465 -0.4057
 6161TIP3   OH239973   3.869   5.069  14.732  0.7427 -0.4132  0.4014
 6161TIP3    H139974   3.898   5.158  14.751  1.1251 -0.4652  0.0779
 6161TIP3    H239975   3.902   5.017  14.805  0.2492 -0.2390  0.7498
 6162TIP3   OH239976   2.329   4.429  16.619 -0.4529 -0.3762 -0.4248
 6162TIP3    H139977   2.344   4.483  16.541  0.3241 -1.4309 -1.0261
 6162TIP3    H239978   2.332   4.339  16.587 -1.9620 -0.7959  0.5314
 6163TIP3   OH239979   5.300   5.322   5.981  0.1848 -0.2063 -0.5913
 6163TIP3    H139980   5.273   5.412   6.002 -0.4506 -0.8005  1.4183
 6163TIP3    H239981   5.246   5.267   6.039  0.1352 -1.9328 -2.1754
 6164TIP3   OH239982   0.377   3.475   6.570 -0.2247  0.0469 -0.1031
 6164TIP3    H139983   0.381   3.432   6.656 -2.0699 -0.3355 -0.1634
 6164TIP3    H239984   0.468   3.496   6.550  0.3340 -0.5136  1.6110
 6165TIP3   OH239985   5.416   6.679  11.589  0.2454  0.7900 -0.1614
 6165TIP3    H139986   5.487   6.699  11.528  1.5802 -0.9511  0.7281
 6165TIP3    H239987   5.414   6.754  11.649  0.1933  1.6160 -1.1714
 6166TIP3   OH239988   5.984   3.647  12.314 -0.0904 -0.0315  0.3387
 6166TIP3    H139989   5.945   3.717  12.366 -0.8634  0.4026 -0.7596
 6166TIP3    H239990   5.981   3.680  12.224  0.3515 -1.1151 -0.0956
 6167TIP3   OH239991   6.822   5.676  14.841  0.4522  0.5772  0.1262
 6167TIP3    H139992   6.855   5.634  14.761  2.7034  0.6130  0.9634
 6167TIP3    H239993   6.853   5.620  14.912 -0.9940  0.8834  1.0464
 6168TIP3   OH239994   2.502   3.569   1.362  0.1186  0.3871 -0.1525
 6168TIP3    H139995   2.479   3.557   1.454 -0.9605  0.0229 -0.4504
 6168TIP3    H239996   2.444   3.509   1.314  0.7486  0.4730 -1.0658
 6169TIP3   OH239997   6.730   5.897  12.193  0.9954  0.4358 -0.0881
 6169TIP3    H139998   6.747   5.986  12.163  2.8676  1.2856  2.9959
 6169TIP3    H239999   6.637   5.897  12.215  1.1020  1.8963  0.5018
 6170TIP3   OH240000   1.641   1.241  11.810  0.8481 -0.1221 -0.1344
 6170TIP3    H140001   1.686   1.288  11.880  0.8922  0.6178 -0.6405
 6170TIP3    H240002   1.685   1.156  11.805  0.1757 -0.5799  1.4049
 6171TIP3   OH240003   5.749   1.625   2.408  0.1069  0.1037  0.2173
 6171TIP3    H140004   5.655   1.645   2.410  0.1843  0.5178 -0.3175
 6171TIP3    H240005   5.752   1.530   2.392 -0.2159  0.0746  0.3065
 6172TIP3   OH240006   5.603   2.679   0.280  0.0352 -0.6836 -0.1687
 6172TIP3    H140007   5.680   2.724   0.317  0.1805 -1.4964  0.5229
 6172TIP3    H240008   5.582   2.730   0.201  0.3683  0.4342  0.4426
 6173TIP3   OH240009   6.549   0.015  15.267 -0.2852 -0.3132  0.0601
 6173TIP3    H140010   6.543   0.060  15.351 -0.6007 -1.2436  0.5416
 6173TIP3    H240011   6.475   0.049  15.216  1.0015  1.7053 -0.5866
 6174TIP3   OH240012   4.865   3.284  12.180 -0.1334 -0.2219  0.0112
 6174TIP3    H140013   4.787   3.256  12.229 -0.3309 -1.7729 -1.1143
 6174TIP3    H240014   4.901   3.355  12.233 -1.4970 -0.4242  1.3148
 6175TIP3   OH240015   5.901   4.367   5.603 -0.2717 -0.5808 -0.4119
 6175TIP3    H140016   5.959   4.331   5.670 -0.4990  1.1251  0.7446
 6175TIP3    H240017   5.884   4.457   5.631  2.2682  1.4033 -4.4094
 6176TIP3   OH240018   2.293   1.541   3.888 -0.0620 -0.1408  0.1993
 6176TIP3    H140019   2.362   1.606   3.899  1.6828 -1.5298 -1.7846
 6176TIP3    H240020   2.212   1.587   3.914  1.3900  1.9514  1.3174
 6177TIP3   OH240021   0.396   1.262   5.565  1.3151  0.5324 -0.2842
 6177TIP3    H140022   0.483   1.240   5.533  1.2039 -0.9574  0.3969
 6177TIP3    H240023   0.406   1.272   5.660  1.2187  2.8805 -0.4428
 6178TIP3   OH240024   5.976   1.064   0.473  0.2748 -0.2208 -0.0432
 6178TIP3    H140025   5.989   0.972   0.450  2.0761 -0.0645  0.2052
 6178TIP3    H240026   6.018   1.113   0.403 -1.3022  0.4590 -0.5502
 6179TIP3   OH240027   3.090   2.811  16.293  0.0298 -0.1471 -0.2182
 6179TIP3    H140028   3.141   2.892  16.293 -0.5641  0.3188  2.3125
 6179TIP3    H240029   3.155   2.741  16.304  0.3181  0.3421  1.6198
 6180TIP3   OH240030   3.299   5.332   1.360  0.0090 -0.4811 -0.0653
 6180TIP3    H140031   3.373   5.334   1.420  1.1295 -1.0491 -1.3817
 6180TIP3    H240032   3.222   5.324   1.417  0.8933  0.6594  1.3502
 6181TIP3   OH240033   3.999   0.461  10.596  0.0724  0.4625  0.3422
 6181TIP3    H140034   4.067   0.398  10.574  0.0751  0.1837  1.1156
 6181TIP3    H240035   4.038   0.517  10.664 -0.6225 -0.0302  1.1797
 6182TIP3   OH240036   3.591   5.035  16.839 -0.1559  0.3436 -0.5356
 6182TIP3    H140037   3.664   5.061  16.783 -0.3895 -0.2430 -1.1234
 6182TIP3    H240038   3.621   5.052  16.928  0.4346  0.7533 -0.8089
 6183TIP3   OH240039   6.656   4.702   5.660 -0.8626  0.4139 -0.5724
 6183TIP3    H140040   6.587   4.747   5.611 -0.4695  1.7190  0.0282
 6183TIP3    H240041   6.723   4.769   5.674  0.3713 -0.7233 -0.8127
 6184TIP3   OH240042   6.601   6.793  16.564 -0.2108  0.2430 -0.2380
 6184TIP3    H140043   6.582   6.865  16.504 -0.2509  1.7959  1.5407
 6184TIP3    H240044   6.663   6.738  16.516 -0.3005  1.3551 -1.7204
 6185TIP3   OH240045   6.506   6.591   0.700  0.2305 -0.6600  0.2978
 6185TIP3    H140046   6.564   6.648   0.649 -0.1288 -1.3334 -0.9050
 6185TIP3    H240047   6.558   6.564   0.775  1.5768 -1.3855 -0.8439
 6186TIP3   OH240048   4.252   3.653  13.175 -0.2590 -0.1289 -0.3924
 6186TIP3    H140049   4.259   3.747  13.191 -0.1406 -0.3430  0.9595
 6186TIP3    H240050   4.254   3.614  13.262 -1.3407 -1.3266 -0.8688
 6187TIP3   OH240051   2.653   0.176   3.466 -0.0689 -1.1178  0.5357
 6187TIP3    H140052   2.693   0.089   3.462 -1.4093 -1.8256  1.6476
 6187TIP3    H240053   2.582   0.173   3.401  1.5426  0.1178 -1.4035
 6188TIP3   OH240054   5.769   0.584  11.467 -0.0341  0.0286 -0.2204
 6188TIP3    H140055   5.771   0.489  11.456  0.5211  0.0251 -0.1255
 6188TIP3    H240056   5.689   0.612  11.422  0.7405 -0.2770 -1.8858
 6189TIP3   OH240057   0.663   1.255   0.462 -0.4386 -0.5222 -0.8602
 6189TIP3    H140058   0.732   1.193   0.485  1.3174  2.2647  2.0928
 6189TIP3    H240059   0.706   1.318   0.403 -0.7246  0.6243  0.1274
 6190TIP3   OH240060   2.378   3.310   0.678  0.0529  0.3938 -0.4330
 6190TIP3    H140061   2.306   3.332   0.618 -0.0925  0.6333 -0.1743
 6190TIP3    H240062   2.441   3.381   0.666 -0.3284  0.8576  0.2610
 6191TIP3   OH240063   4.729   5.905   3.416  0.4411 -0.0482  0.3456
 6191TIP3    H140064   4.691   5.961   3.483 -0.0819  0.5222 -0.4122
 6191TIP3    H240065   4.699   5.942   3.333 -0.7165 -1.9725 -0.1755
 6192TIP3   OH240066   5.430   4.483   0.454  0.4386  0.2215 -0.2257
 6192TIP3    H140067   5.457   4.416   0.391 -2.8390 -1.0241 -0.5161
 6192TIP3    H240068   5.364   4.534   0.408 -0.9593  0.2402  1.6625
 6193TIP3   OH240069   0.256   2.236  10.676 -0.0895  0.0685 -0.1903
 6193TIP3    H140070   0.171   2.281  10.677 -0.4274 -0.5324 -0.5769
 6193TIP3    H240071   0.237   2.150  10.714  0.4505  0.0945  0.1434
 6194TIP3   OH240072   5.378   5.771  11.144 -0.4354  0.6970  0.1771
 6194TIP3    H140073   5.403   5.753  11.234  1.5834  0.2646 -0.3990
 6194TIP3    H240074   5.365   5.866  11.141  1.8843  1.0967  0.4618
 6195TIP3   OH240075   2.387   3.703  16.348  0.7690  0.2760 -0.0215
 6195TIP3    H140076   2.345   3.641  16.288 -1.0416  0.9270  0.4965
 6195TIP3    H240077   2.475   3.668  16.361  0.6008 -0.8483 -1.6256
 6196TIP3   OH240078   3.275   5.001   2.988  0.6501 -0.1237  0.0416
 6196TIP3    H140079   3.205   4.961   2.937  0.8731 -0.6143  0.1174
 6196TIP3    H240080   3.355   4.958   2.959  0.7858 -0.3852  0.7697
 6197TIP3   OH240081   4.373   0.543   3.317  0.1756  0.1918 -0.3636
 6197TIP3    H140082   4.314   0.555   3.244  1.7735 -0.9859 -1.9379
 6197TIP3    H240083   4.335   0.470   3.367  0.4280 -0.8049 -1.5667
 6198TIP3   OH240084   0.865   2.807  15.909 -0.1705 -0.0688  0.0600
 6198TIP3    H140085   0.938   2.748  15.889 -0.3426 -0.4475  0.5367
 6198TIP3    H240086   0.797   2.750  15.944  0.6679  0.7098  3.2562
 6199TIP3   OH240087   3.830   1.220   1.554  0.0560  0.3056  0.2555
 6199TIP3    H140088   3.914   1.253   1.588  0.2962 -1.1612  1.1645
 6199TIP3    H240089   3.783   1.189   1.632 -0.6753 -0.3228 -0.4239
 6200TIP3   OH240090   2.097   3.205  15.555 -0.5680  0.0697  0.4350
 6200TIP3    H140091   2.178   3.192  15.505  0.7116 -2.1557  2.8591
 6200TIP3    H240092   2.094   3.299  15.573  1.6370  0.1753  0.4793
 6201TIP3   OH240093   0.454   3.389  13.720  0.4517  0.2500  0.6772
 6201TIP3    H140094   0.471   3.295  13.719 -0.6521  0.0387 -0.1372
 6201TIP3    H240095   0.418   3.407  13.633  2.1961  1.7296  0.2168
 6202TIP3   OH240096   6.254   4.916  15.013 -0.0860 -0.5724 -0.7856
 6202TIP3    H140097   6.325   4.966  14.972 -0.2787  0.6425  0.3093
 6202TIP3    H240098   6.271   4.923  15.107 -1.2470 -0.9002 -0.5404
 6203TIP3   OH240099   2.020   1.310   0.679 -0.4876 -0.3005 -0.1006
 6203TIP3    H140100   1.994   1.342   0.593 -0.9131  1.3101  0.5732
 6203TIP3    H240101   2.107   1.273   0.666 -1.1608 -1.4741 -1.4920
 6204TIP3   OH240102   2.488   4.546   4.664  0.3972 -0.1095  0.1114
 6204TIP3    H140103   2.524   4.506   4.742 -0.6149  0.9108  1.1441
 6204TIP3    H240104   2.414   4.489   4.640  1.2473 -0.9269 -0.6731
 6205TIP3   OH240105   0.630   5.086  17.181  0.2705  0.4929  0.4952
 6205TIP3    H140106   0.575   5.010  17.201 -0.3785 -0.1752 -3.1403
 6205TIP3    H240107   0.585   5.160  17.222 -2.4578 -0.2993 -0.8393
 6206TIP3   OH240108   2.717   1.609  12.073 -0.4165 -0.2135  0.3737
 6206TIP3    H140109   2.661   1.598  11.996  0.1224 -2.8424  0.2611
 6206TIP3    H240110   2.798   1.645  12.038  0.2007 -2.3137 -0.5718
 6207TIP3   OH240111   2.716   2.560   2.043  0.1230 -0.2388 -0.1585
 6207TIP3    H140112   2.719   2.581   2.136 -0.7957  1.5930 -0.5108
 6207TIP3    H240113   2.804   2.581   2.011  0.0620  0.3321  0.0503
 6208TIP3   OH240114   0.557   4.887  12.115 -0.2459 -0.1542 -0.1770
 6208TIP3    H140115   0.513   4.817  12.068 -0.6615  0.8867 -1.4128
 6208TIP3    H240116   0.650   4.871  12.101 -0.3194 -0.7452 -0.0040
 6209TIP3   OH240117   0.795   4.397   4.855 -0.7767 -0.4351 -0.5484
 6209TIP3    H140118   0.734   4.334   4.893  1.5860 -2.0014  0.9297
 6209TIP3    H240119   0.875   4.346   4.838  0.8374  1.8941 -0.4154
 6210TIP3   OH240120   5.930   2.153   3.481  0.3728  0.1109 -0.5455
 6210TIP3    H140121   6.002   2.187   3.428  0.2985  0.4540 -0.4279
 6210TIP3    H240122   5.927   2.210   3.558 -0.4906  0.5535 -0.8950
 6211TIP3   OH240123   2.217   0.574  13.927 -0.2413 -0.1903  0.2991
 6211TIP3    H140124   2.124   0.598  13.922  0.0961  0.8965 -1.2008
 6211TIP3    H240125   2.260   0.650  13.965 -0.0015 -0.9289  1.5926
 6212TIP3   OH240126   1.699   3.401  14.728  0.2525 -0.3336  0.6407
 6212TIP3    H140127   1.699   3.476  14.788  1.8172 -0.1318  0.4258
 6212TIP3    H240128   1.742   3.433  14.649  1.1944 -1.5266  0.6508
 6213TIP3   OH240129   0.218   4.413  15.125  0.2041  0.0114 -0.4606
 6213TIP3    H140130   0.304   4.448  15.102 -0.2617  1.1984 -0.4995
 6213TIP3    H240131   0.205   4.441  15.215  0.6184 -1.7545  0.1764
 6214TIP3   OH240132   2.968   5.324   5.040 -0.9958  0.1292  0.0034
 6214TIP3    H140133   3.049   5.328   5.092 -0.8302 -0.3652 -0.2046
 6214TIP3    H240134   2.979   5.391   4.973 -0.8303  0.1800  0.0810
 6215TIP3   OH240135   1.186   1.951  15.814  0.5760 -0.0062  0.2279
 6215TIP3    H140136   1.279   1.957  15.837  0.0642  0.6776  2.2693
 6215TIP3    H240137   1.141   2.000  15.882 -1.1947  1.1266 -1.6346
 6216TIP3   OH240138   6.232   0.914  15.981 -0.5364  0.1789 -0.4387
 6216TIP3    H140139   6.206   0.959  16.061 -0.1319  0.8058 -0.6516
 6216TIP3    H240140   6.208   0.975  15.911 -0.7359 -0.2945 -0.7868
 6217TIP3   OH240141   5.462   1.745   5.784  0.1751  0.1079  0.4103
 6217TIP3    H140142   5.519   1.718   5.712 -1.9162 -0.0269 -1.2800
 6217TIP3    H240143   5.499   1.828   5.814  0.4735  0.7579 -1.5897
 6218TIP3   OH240144   0.298   2.111   2.747  0.3533 -0.0178 -0.1859
 6218TIP3    H140145   0.329   2.110   2.837 -2.2356 -1.5537  0.7879
 6218TIP3    H240146   0.344   2.040   2.704  0.0404 -0.6635  0.5369
 6219TIP3   OH240147   1.804   3.374  12.415 -0.2232 -0.2205 -0.6854
 6219TIP3    H140148   1.808   3.281  12.438 -0.0262 -0.3467 -1.2178
 6219TIP3    H240149   1.719   3.384  12.372 -1.2366  0.3094  1.3185
 6220TIP3   OH240150   5.205   6.611  10.678  0.5892 -0.8676 -0.0866
 6220TIP3    H140151   5.132   6.586  10.621 -1.0726 -1.0522  2.0371
 6220TIP3    H240152   5.279   6.619  10.618 -1.7194  2.4030 -2.9455
 6221TIP3   OH240153   6.135   1.449  17.132 -0.4681 -0.1521  0.7753
 6221TIP3    H140154   6.160   1.448  17.224  1.7337 -1.7595  0.2598
 6221TIP3    H240155   6.080   1.372  17.120  1.3606 -1.4654  0.3285
 6222TIP3   OH240156   2.946   6.323  10.961  0.2895 -0.2635  0.4703
 6222TIP3    H140157   2.964   6.281  10.877  1.6517  0.1707  0.5148
 6222TIP3    H240158   2.984   6.410  10.952  1.2548 -0.5181  1.8287
 6223TIP3   OH240159   0.064   0.134   5.705  0.5986 -0.1728 -0.3261
 6223TIP3    H140160   0.126   0.205   5.724  2.8949 -2.5873  2.1224
 6223TIP3    H240161  -0.012   0.154   5.760  0.9356  0.6833 -0.1425
 6224TIP3   OH240162   4.883   4.566   0.005 -0.2614 -0.5964 -0.0155
 6224TIP3    H140163   4.942   4.560  -0.070 -0.3148 -1.3484 -0.0039
 6224TIP3    H240164   4.835   4.648  -0.008  1.4591  0.5246  0.4832
 6225TIP3   OH240165   5.496   3.807  11.796  0.3337 -0.1523 -0.3446
 6225TIP3    H140166   5.532   3.748  11.862  0.5024  0.3301 -0.0018
 6225TIP3    H240167   5.538   3.780  11.714  1.1496  0.1368 -0.0187
 6226TIP3   OH240168   2.234   5.617  14.700 -0.2783 -0.0023 -0.0570
 6226TIP3    H140169   2.202   5.557  14.767  0.2616  0.3810  0.5532
 6226TIP3    H240170   2.235   5.564  14.620 -0.6055 -0.5640  0.3039
 6227TIP3   OH240171   2.096   3.247   4.050 -0.0151  0.1958 -0.3568
 6227TIP3    H140172   2.074   3.340   4.052 -0.3858  0.1070 -0.1208
 6227TIP3    H240173   2.033   3.209   3.987 -0.3106 -0.0032  0.0554
 6228TIP3   OH240174   4.176   2.434  17.120  0.3368 -0.4412 -0.2218
 6228TIP3    H140175   4.236   2.444  17.194 -1.0114  1.7360  0.6408
 6228TIP3    H240176   4.217   2.485  17.049  0.2511 -0.2240 -0.1143
 6229TIP3   OH240177   1.598   0.314  16.936 -0.3881  0.0881 -0.3923
 6229TIP3    H140178   1.533   0.272  16.880 -0.0225  0.6405 -1.2561
 6229TIP3    H240179   1.666   0.343  16.875  1.3103 -1.5864  0.5916
 6230TIP3   OH240180   0.300   4.233   4.179  0.3080 -0.4648 -0.1088
 6230TIP3    H140181   0.322   4.141   4.195 -0.5498 -0.8086 -0.8158
 6230TIP3    H240182   0.222   4.248   4.234 -0.2685 -0.5173 -0.8880
 6231TIP3   OH240183   2.156   1.913   2.099 -0.9291 -0.3554 -0.3099
 6231TIP3    H140184   2.105   1.916   2.019 -0.4966  5.5413 -0.7456
 6231TIP3    H240185   2.247   1.911   2.069 -0.7582  2.2147 -0.1045
 6232TIP3   OH240186   0.368   5.967  13.432 -0.0244  0.3062 -0.6131
 6232TIP3    H140187   0.415   6.050  13.435 -3.4732  2.4276  3.0442
 6232TIP3    H240188   0.323   5.968  13.347  0.4464  1.9048 -0.8748
 6233TIP3   OH240189   1.096   5.308  15.050  0.6707  0.1341 -0.0559
 6233TIP3    H140190   1.159   5.371  15.085 -0.7717  1.9721 -0.6588
 6233TIP3    H240191   1.045   5.357  14.986 -2.0269 -0.9897  1.0931
 6234TIP3   OH240192   6.008   5.714  16.310  0.2808 -0.1993 -0.3012
 6234TIP3    H140193   5.922   5.672  16.323  1.0173 -1.4204  0.8340
 6234TIP3    H240194   6.059   5.649  16.262  0.8415  0.1759 -0.2172
 6235TIP3   OH240195   2.979   5.126   3.162  0.0673  0.4421 -0.1980
 6235TIP3    H140196   2.994   5.138   3.256  0.9587 -0.1561 -0.2493
 6235TIP3    H240197   2.973   5.031   3.151  0.5371  0.4758 -0.8214
 6236TIP3   OH240198   1.357   3.230  16.729 -0.2022  0.1623 -0.1006
 6236TIP3    H140199   1.388   3.152  16.683 -0.3661  0.7491 -1.2154
 6236TIP3    H240200   1.419   3.241  16.801  0.4275 -0.4021 -0.5468
 6237TIP3   OH240201   0.735   4.227  16.164 -0.4347 -0.2306 -0.5367
 6237TIP3    H140202   0.752   4.152  16.107 -1.4671 -0.4297 -0.6136
 6237TIP3    H240203   0.673   4.194  16.229 -0.8185  0.5279 -0.5086
 6238TIP3   OH240204   5.760   3.038  14.346 -0.0852  0.0856  0.1634
 6238TIP3    H140205   5.708   3.006  14.271  0.3782  1.2072 -0.6664
 6238TIP3    H240206   5.707   3.109  14.383  1.2634  2.0165 -1.3799
 6239TIP3   OH240207   0.795   4.111   4.679 -0.3297  0.0959  0.0470
 6239TIP3    H140208   0.821   4.078   4.764  1.2261 -0.9521 -0.7989
 6239TIP3    H240209   0.877   4.124   4.632 -1.1655  0.3579 -1.4039
 6240TIP3   OH240210   1.296   3.553   4.773 -0.4257 -0.0370  0.2096
 6240TIP3    H140211   1.239   3.516   4.706  1.0231  0.7307 -1.5113
 6240TIP3    H240212   1.369   3.492   4.779  0.5274  0.9846 -0.5336
 6241TIP3   OH240213   1.664   5.917   1.147  0.0939  0.1437  0.7846
 6241TIP3    H140214   1.596   5.933   1.081 -0.2088 -2.1268  0.4734
 6241TIP3    H240215   1.715   5.998   1.149 -1.3484  1.1474 -0.4743
 6242TIP3   OH240216   0.834   1.239  12.195  0.2309  0.2015  0.1283
 6242TIP3    H140217   0.780   1.217  12.271  1.6161  0.5944  1.2757
 6242TIP3    H240218   0.802   1.183  12.125  0.6470 -2.1503  1.7137
 6243TIP3   OH240219   2.810   0.491  16.304  0.0647  0.2376  0.0108
 6243TIP3    H140220   2.734   0.532  16.344  0.6845  1.9890 -0.5080
 6243TIP3    H240221   2.863   0.462  16.378 -0.4653  0.2211  0.3909
 6244TIP3   OH240222   1.683   2.579   5.902  0.0499 -0.4302 -0.3823
 6244TIP3    H140223   1.709   2.651   5.844  0.9304  1.4780  2.1970
 6244TIP3    H240224   1.764   2.529   5.916 -0.0631 -0.6327 -0.4500
 6245TIP3   OH240225   5.377   5.087  12.313 -0.6455  0.2660  0.8024
 6245TIP3    H140226   5.325   5.014  12.280  0.8563 -0.3904 -0.2741
 6245TIP3    H240227   5.361   5.087  12.407 -3.1115  0.5857  0.4502
 6246TIP3   OH240228   0.665   3.589   2.940 -0.8146  0.1501  0.0247
 6246TIP3    H140229   0.739   3.640   2.975  1.1801 -3.0674  1.0245
 6246TIP3    H240230   0.685   3.579   2.847  0.0065 -0.6155  0.2689
 6247TIP3   OH240231   6.592   2.200  14.075  0.2168  0.2440 -0.4617
 6247TIP3    H140232   6.584   2.232  13.985 -0.2919 -0.5791 -0.7154
 6247TIP3    H240233   6.502   2.180  14.101  0.6258 -2.3795 -0.8477
 6248TIP3   OH240234   3.461   0.768  13.394 -0.4130  0.5829  0.1682
 6248TIP3    H140235   3.469   0.785  13.301 -1.3932  2.6960  0.4144
 6248TIP3    H240236   3.373   0.733  13.406 -0.0387 -0.3862  0.2562
 6249TIP3   OH240237   2.246   0.975   5.543 -0.5624  0.4296 -0.3823
 6249TIP3    H140238   2.289   0.956   5.626 -0.1531  1.7802 -0.2558
 6249TIP3    H240239   2.317   0.999   5.484 -0.9242  0.2614 -0.8990
 6250TIP3   OH240240   1.710   6.240  13.215 -0.1513 -0.2997  0.0594
 6250TIP3    H140241   1.775   6.262  13.148 -0.6821 -0.6503 -0.5717
 6250TIP3    H240242   1.758   6.248  13.297  1.0088 -1.6205 -0.4498
 6251TIP3   OH240243   5.986   2.085  13.539 -0.2540  0.2939  0.2043
 6251TIP3    H140244   5.933   2.060  13.463 -1.7565 -1.0118  1.6060
 6251TIP3    H240245   5.954   2.030  13.610  0.8440  1.7243  1.9018
 6252TIP3   OH240246   1.312   0.593   4.642 -0.1444 -0.2363 -0.0461
 6252TIP3    H140247   1.290   0.648   4.717 -0.3524  0.1981 -0.4202
 6252TIP3    H240248   1.376   0.530   4.676 -0.3162 -0.1123  0.5174
 6253TIP3   OH240249   5.277   3.636  15.722  0.1412 -0.1661  0.0274
 6253TIP3    H140250   5.259   3.545  15.745  2.7001 -0.6149  0.6125
 6253TIP3    H240251   5.211   3.687  15.768 -1.4368 -1.7145 -0.4295
 6254TIP3   OH240252   0.787   2.302  14.656 -0.0754  0.1199  1.0322
 6254TIP3    H140253   0.832   2.217  14.656  0.7411  0.5198  2.1540
 6254TIP3    H240254   0.726   2.297  14.730 -0.5407  0.2572  0.6618
 6255TIP3   OH240255   6.135   1.526  14.204 -0.4039  0.4449  0.0948
 6255TIP3    H140256   6.134   1.453  14.266  2.1511  0.6549  0.5096
 6255TIP3    H240257   6.202   1.585  14.238  2.3566 -0.1856 -3.6249
 6256TIP3   OH240258   1.372   4.194  13.985  0.6508  0.1687  0.0964
 6256TIP3    H140259   1.291   4.210  13.937  0.4618 -0.2840  0.2537
 6256TIP3    H240260   1.368   4.101  14.009  1.2838  0.1045 -0.0195
 6257TIP3   OH240261   5.954   0.447  16.364  0.0616 -0.4548 -0.2807
 6257TIP3    H140262   5.902   0.389  16.308  0.1636  1.4390 -2.4635
 6257TIP3    H240263   6.041   0.408  16.363 -0.0720 -0.7631 -0.9885
 6258TIP3   OH240264   3.622   5.917  10.686 -0.0738 -0.4557 -0.5030
 6258TIP3    H140265   3.710   5.922  10.724  0.4973  2.2989 -1.9321
 6258TIP3    H240266   3.632   5.866  10.606 -0.1489 -1.5491  0.1689
 6259TIP3   OH240267   2.436   2.090  13.079 -0.2972  0.6732  0.8345
 6259TIP3    H140268   2.488   2.152  13.131  0.3334  1.0690 -0.2405
 6259TIP3    H240269   2.484   2.081  12.997 -0.6836 -0.8297  0.7566
 6260TIP3   OH240270   6.338   3.364   0.315 -0.2342 -0.2868  0.6066
 6260TIP3    H140271   6.338   3.459   0.301 -2.6892  0.3244  3.6276
 6260TIP3    H240272   6.348   3.327   0.227  0.7375  2.7160 -0.6853
 6261TIP3   OH240273   5.228   3.288  14.222 -0.7572 -0.1466 -0.2684
 6261TIP3    H140274   5.205   3.351  14.154 -0.1664  0.0231 -0.3158
 6261TIP3    H240275   5.181   3.317  14.300 -1.1505 -0.1335 -0.5110
 6262TIP3   OH240276   6.804   4.062   1.459 -0.2289  0.8528  0.1916
 6262TIP3    H140277   6.874   4.056   1.524  0.0779  1.5078 -0.0714
 6262TIP3    H240278   6.849   4.076   1.376 -0.6782  1.4871  0.0516
 6263TIP3   OH240279   6.573   0.391  16.347  0.3696 -0.4945 -0.1911
 6263TIP3    H140280   6.666   0.414  16.351  0.0239  1.0328 -0.3870
 6263TIP3    H240281   6.528   0.468  16.383 -0.8466 -0.9769 -0.6380
 6264TIP3   OH240282   0.869   1.528   1.445 -0.0173  0.4830  0.3215
 6264TIP3    H140283   0.852   1.434   1.454  0.2123  0.5177  1.2135
 6264TIP3    H240284   0.946   1.533   1.389 -0.9891  0.2155 -1.1109
 6265TIP3   OH240285   4.517   2.246  13.973 -0.0732 -0.6741  0.0840
 6265TIP3    H140286   4.545   2.330  13.937 -0.5746 -0.5912 -0.1236
 6265TIP3    H240287   4.561   2.240  14.057 -0.3744 -0.0048  0.2966
 6266TIP3   OH240288   4.515   5.076  13.434  0.1251 -0.0203  0.0560
 6266TIP3    H140289   4.464   5.054  13.512  0.2016 -0.1284  0.0747
 6266TIP3    H240290   4.449   5.100  13.368  0.0137 -0.7743 -0.1147
 6267TIP3   OH240291   2.917   6.187   0.628 -0.5928 -0.4545 -0.0308
 6267TIP3    H140292   2.992   6.244   0.643  1.8461 -3.6452  1.1031
 6267TIP3    H240293   2.848   6.245   0.596  2.1250  2.7622 -0.5414
 6268TIP3   OH240294   0.127   3.223   2.599  0.0119  0.2721 -0.2099
 6268TIP3    H140295   0.157   3.243   2.510 -0.0942 -1.4789 -0.6880
 6268TIP3    H240296   0.038   3.190   2.586  0.3142 -0.8297  0.4335
 6269TIP3   OH240297   0.968   4.073   2.997  0.4734  0.3719 -0.0460
 6269TIP3    H140298   0.968   4.165   2.970 -1.4917 -0.1016 -1.9365
 6269TIP3    H240299   0.891   4.064   3.052 -0.4675 -0.5090 -1.4560
 6270TIP3   OH240300   5.212   2.014   3.931  0.0129  0.1825  0.2662
 6270TIP3    H140301   5.187   1.934   3.885  1.2798  0.0572 -0.2220
 6270TIP3    H240302   5.210   1.989   4.024  0.3754 -0.4073  0.1181
 6271TIP3   OH240303   2.705   0.844   5.824  0.5567 -0.2551 -0.1384
 6271TIP3    H140304   2.680   0.847   5.917  1.2926 -1.1959  0.1221
 6271TIP3    H240305   2.623   0.836   5.777  0.1936 -0.2179  0.4741
 6272TIP3   OH240306   0.266   0.291  15.184 -0.2398 -0.5457 -0.0939
 6272TIP3    H140307   0.354   0.281  15.148  0.7228  1.0734  1.6088
 6272TIP3    H240308   0.239   0.379  15.157 -2.0268 -1.5590 -1.8696
 6273TIP3   OH240309   0.808   5.326  15.074 -0.4052  0.7003 -0.2134
 6273TIP3    H140310   0.762   5.279  15.144 -0.3089  0.9618  0.0244
 6273TIP3    H240311   0.900   5.305  15.089 -0.2069  2.1992  0.8211
 6274TIP3   OH240312   2.102   3.794  15.389  0.0247  0.1741  0.5318
 6274TIP3    H140313   2.125   3.811  15.480  1.2224 -0.7916  0.4281
 6274TIP3    H240314   2.184   3.769  15.347 -0.4572  0.8404 -0.8897
 6275TIP3   OH240315   5.594   3.004  15.598 -0.2376  0.1081  0.4076
 6275TIP3    H140316   5.599   3.069  15.668 -1.3597  0.0430  0.5757
 6275TIP3    H240317   5.603   2.920  15.642  3.6436  0.1008 -0.0607
 6276TIP3   OH240318   5.978   5.955   5.415  0.1431  0.2684  0.4088
 6276TIP3    H140319   5.894   5.918   5.442  0.0289  0.0420 -0.2311
 6276TIP3    H240320   6.027   5.966   5.497 -0.4366  0.2321  0.7674
 6277TIP3   OH240321   0.379   0.314   3.032  0.1846  0.0730 -0.3276
 6277TIP3    H140322   0.405   0.361   3.111  0.5512 -1.6004  0.5892
 6277TIP3    H240323   0.424   0.230   3.038 -1.7629 -1.0924 -1.0458
 6278TIP3   OH240324   5.630   0.362  11.733  0.0646 -0.3342 -0.2703
 6278TIP3    H140325   5.649   0.273  11.763  1.0509 -0.6206 -1.6817
 6278TIP3    H240326   5.715   0.397  11.707  0.2383  2.0893  2.8630
 6279TIP3   OH240327   0.393   4.218  12.885 -0.0086  0.2990 -0.5745
 6279TIP3    H140328   0.405   4.288  12.950  0.4186  0.6008 -0.9652
 6279TIP3    H240329   0.317   4.246  12.834 -1.8300 -1.0842  1.2296
 6280TIP3   OH240330   1.276   6.167   3.000 -0.0071  0.6618 -0.4961
 6280TIP3    H140331   1.201   6.213   3.038 -0.1314  0.1888 -0.1589
 6280TIP3    H240332   1.308   6.110   3.070 -1.7434 -2.0844 -1.7537
 6281TIP3   OH240333   3.501   4.308  11.565 -0.2078 -0.2236  0.0363
 6281TIP3    H140334   3.596   4.304  11.576 -0.2715 -2.2986  0.2819
 6281TIP3    H240335   3.488   4.372  11.495  1.3167  0.5490  0.4082
 6282TIP3   OH240336   4.599   6.108  13.874 -0.2310  0.1028 -0.1453
 6282TIP3    H140337   4.542   6.092  13.949  0.9739  2.6801  1.4255
 6282TIP3    H240338   4.638   6.022  13.855 -0.7136 -0.6669  2.0659
 6283TIP3   OH240339   1.409   6.361   2.169  0.4335  0.2096 -0.3231
 6283TIP3    H140340   1.327   6.358   2.219 -0.0064  2.3043 -0.8233
 6283TIP3    H240341   1.466   6.298   2.213 -1.2831 -0.9808  0.3080
 6284TIP3   OH240342   4.782   4.158  12.302  0.7539  0.1911 -0.0333
 6284TIP3    H140343   4.812   4.246  12.281 -0.2854  0.4320 -0.5526
 6284TIP3    H240344   4.861   4.112  12.332  1.3866  1.1580 -0.1924
 6285TIP3   OH240345   5.666   1.571  15.359 -0.2835 -0.5276  1.0778
 6285TIP3    H140346   5.676   1.605  15.270 -2.4897 -0.8524  0.6578
 6285TIP3    H240347   5.652   1.649  15.412  0.9597 -0.3393  1.1671
 6286TIP3   OH240348   3.829   1.193  11.226 -0.1447  0.3691 -0.3820
 6286TIP3    H140349   3.781   1.265  11.186  1.0390  2.1739  1.2897
 6286TIP3    H240350   3.867   1.145  11.152 -4.6729 -1.4871 -1.8668
 6287TIP3   OH240351   5.960   6.432   3.469 -0.5484 -0.5366  0.4667
 6287TIP3    H140352   5.958   6.523   3.498 -1.8314 -0.1779 -0.6098
 6287TIP3    H240353   5.973   6.438   3.374  0.9830 -1.5574  0.5794
 6288TIP3   OH240354   2.924   4.303   1.874 -0.1731 -0.4408  0.3182
 6288TIP3    H140355   2.879   4.222   1.899 -0.1001 -1.2447 -1.8903
 6288TIP3    H240356   2.933   4.352   1.955  1.6785 -3.5593  2.1723
 6289TIP3   OH240357   5.699   5.538  10.840 -0.1212 -0.1638  0.0116
 6289TIP3    H140358   5.761   5.479  10.882 -1.0626 -0.0519  1.6141
 6289TIP3    H240359   5.693   5.613  10.899 -1.4856 -0.0007 -0.3134
 6290TIP3   OH240360   3.093   4.996   0.882  0.1201  0.0938  0.1732
 6290TIP3    H140361   3.136   4.912   0.899 -0.1732 -0.2422 -0.6995
 6290TIP3    H240362   3.166   5.057   0.872  0.4071 -0.3685 -0.7398
 6291TIP3   OH240363   4.814   5.626  13.112 -0.0258  0.1739  0.0707
 6291TIP3    H140364   4.868   5.690  13.157  1.1725 -0.3742 -0.5485
 6291TIP3    H240365   4.793   5.667  13.028  0.6330 -0.1768 -0.2723
 6292TIP3   OH240366   3.837   3.940   1.384 -0.2467 -0.4215 -0.4418
 6292TIP3    H140367   3.877   3.926   1.298  1.2419 -1.7187  0.4107
 6292TIP3    H240368   3.826   4.035   1.390 -2.1272 -0.3679 -2.7711
 6293TIP3   OH240369   1.098   0.738  11.123 -0.2574  0.0302 -0.4585
 6293TIP3    H140370   1.027   0.800  11.110 -0.3061  0.1651  0.3881
 6293TIP3    H240371   1.143   0.768  11.202  0.5414 -0.2412 -0.7910
 6294TIP3   OH240372   0.198   6.317  11.403  0.2732 -0.3207 -0.6849
 6294TIP3    H140373   0.195   6.235  11.354 -0.5977  0.4301 -1.9654
 6294TIP3    H240374   0.291   6.340  11.407  0.5810 -1.6299  0.1847
 6295TIP3   OH240375   0.482   0.041   3.077 -0.6650 -0.0216  0.2658
 6295TIP3    H140376   0.561   0.005   3.118 -1.1474  0.1908  1.4461
 6295TIP3    H240377   0.466  -0.015   3.001  0.0493 -0.6957  0.5968
 6296TIP3   OH240378   6.230   4.840   4.134  0.1149  0.5348 -0.1392
 6296TIP3    H140379   6.184   4.924   4.133  2.0303  1.6574  0.6268
 6296TIP3    H240380   6.267   4.834   4.222 -0.3732 -1.3664 -0.0247
 6297TIP3   OH240381   3.957   0.596  12.671  0.0983  0.2292  0.6942
 6297TIP3    H140382   4.039   0.630  12.706 -0.2468  0.0172  1.7390
 6297TIP3    H240383   3.981   0.557  12.586  1.0922  0.0461  1.0518
 6298TIP3   OH240384   4.360   0.082   2.854  0.2424  0.3860 -0.0950
 6298TIP3    H140385   4.370   0.169   2.892 -0.0754  0.1474  0.5630
 6298TIP3    H240386   4.450   0.053   2.837  0.4525  0.1933  1.2236
 6299TIP3   OH240387   0.705   3.835   4.068 -0.0027 -0.3973  0.6089
 6299TIP3    H140388   0.620   3.875   4.048 -0.1261 -1.2197 -0.6533
 6299TIP3    H240389   0.698   3.746   4.032  1.6316 -0.2540 -0.1100
 6300TIP3   OH240390   5.320   0.024  13.618 -0.4738 -0.5615  0.1414
 6300TIP3    H140391   5.300   0.117  13.606  0.1364 -0.5846 -1.2352
 6300TIP3    H240392   5.251  -0.021  13.571  0.1082 -0.7545 -0.5428
 6301TIP3   OH240393   2.414   2.926   3.268  0.1864 -0.6570  0.8051
 6301TIP3    H140394   2.326   2.930   3.305  0.7118 -0.2070  2.0558
 6301TIP3    H240395   2.472   2.954   3.339  1.3482 -0.9489  0.0120
 6302TIP3   OH240396   0.353   4.054  12.575 -0.0387  0.0603 -0.6235
 6302TIP3    H140397   0.263   4.053  12.606  0.1852  0.7203  0.0711
 6302TIP3    H240398   0.382   4.145  12.587  0.1559  0.3035 -2.5122
 6303TIP3   OH240399   1.147   5.380   3.956 -0.2332 -0.6551  0.3435
 6303TIP3    H140400   1.054   5.399   3.967 -0.5257 -1.7212 -0.2020
 6303TIP3    H240401   1.183   5.386   4.044 -1.0116 -1.2196  0.7066
 6304TIP3   OH240402   4.025   0.423  12.467 -0.3410  0.0926 -0.5581
 6304TIP3    H140403   4.091   0.357  12.446 -1.0621 -0.8841  0.1406
 6304TIP3    H240404   4.015   0.474  12.386 -0.7705 -1.5472 -1.6017
 6305TIP3   OH240405   1.525   5.960  10.396 -0.2958 -0.3824 -0.9322
 6305TIP3    H140406   1.586   5.931  10.464  0.2668 -2.0744 -2.0952
 6305TIP3    H240407   1.546   6.052  10.383  1.0350 -0.5709 -0.2983
 6306TIP3   OH240408   2.621   3.683  14.170 -0.4864 -0.0909 -0.2140
 6306TIP3    H140409   2.598   3.591  14.188 -0.1803 -0.1691 -0.2101
 6306TIP3    H240410   2.649   3.683  14.079 -0.4393 -0.0145 -0.1995
 6307TIP3   OH240411   3.639   0.081  15.780  0.1143 -0.1028  0.0569
 6307TIP3    H140412   3.583   0.020  15.731 -1.0595  0.8264  0.1867
 6307TIP3    H240413   3.698   0.117  15.715  0.0636 -0.5450 -0.2389
 6308TIP3   OH240414   0.993   1.341  13.382  0.1532  0.0576 -0.2809
 6308TIP3    H140415   0.952   1.423  13.407 -1.5696 -0.8909  0.1952
 6308TIP3    H240416   1.007   1.294  13.464  1.5293  0.0196 -0.5044
 6309TIP3   OH240417   1.534   6.039   0.007  0.0057 -0.6308 -0.0445
 6309TIP3    H140418   1.492   6.029  -0.079 -2.7000  0.0001  1.0942
 6309TIP3    H240419   1.467   6.013   0.070  1.3827  0.3840  1.9611
 6310TIP3   OH240420   5.890   5.354   5.385 -0.2731  0.0386 -0.4546
 6310TIP3    H140421   5.888   5.424   5.450 -1.3268 -0.8714  0.5255
 6310TIP3    H240422   5.887   5.273   5.436 -5.0731 -0.7905 -1.5238
 6311TIP3   OH240423   0.079   0.061   3.637  0.1682 -0.5498  0.3938
 6311TIP3    H140424   0.107   0.067   3.729 -0.5810 -1.6406  0.7169
 6311TIP3    H240425   0.117   0.138   3.595  1.1953 -0.4486  1.4461
 6312TIP3   OH240426   1.540   2.292  14.051 -0.2976 -0.2819 -0.3521
 6312TIP3    H140427   1.551   2.243  14.132  0.8598 -0.4386 -0.5734
 6312TIP3    H240428   1.562   2.229  13.982 -0.3207  0.1153 -0.7300
 6313TIP3   OH240429   3.297   4.097   0.010  0.1358  0.1670  0.0441
 6313TIP3    H140430   3.346   4.031  -0.039  0.3553 -1.0012  1.7580
 6313TIP3    H240431   3.363   4.162   0.035  0.2604  0.0948 -0.0971
 6314TIP3   OH240432   5.944   3.659   3.628  0.0854 -0.1927 -0.4074
 6314TIP3    H140433   5.937   3.635   3.721 -1.6068  0.7982 -0.2362
 6314TIP3    H240434   6.038   3.660   3.611  0.5203  0.9427  1.6793
 6315TIP3   OH240435   2.200   1.661   1.789 -0.5133 -0.4089  1.0648
 6315TIP3    H140436   2.253   1.589   1.754  0.8527  0.1842  1.8352
 6315TIP3    H240437   2.258   1.737   1.785 -1.4644  0.3595  1.5618
 6316TIP3   OH240438   2.016   3.804  12.022 -0.5057  0.1120  0.4139
 6316TIP3    H140439   2.086   3.740  12.011  0.3896  1.2440 -0.8286
 6316TIP3    H240440   1.942   3.767  11.974  0.0751  0.0756 -0.4908
 6317TIP3   OH240441   0.290   6.151   1.149  0.4275 -0.1950 -0.2392
 6317TIP3    H140442   0.205   6.194   1.136 -0.3588 -1.8269 -0.8378
 6317TIP3    H240443   0.344   6.217   1.191 -0.2473  1.8700 -2.4004
 6318TIP3   OH240444   3.420   2.795  10.499 -0.4940 -0.1185  0.2953
 6318TIP3    H140445   3.438   2.707  10.533 -1.3792 -0.7382 -0.7730
 6318TIP3    H240446   3.491   2.849  10.534  2.7102 -2.0900 -2.5361
 6319TIP3   OH240447   6.695   5.171   0.151 -0.1561  0.3481 -0.3931
 6319TIP3    H140448   6.628   5.160   0.083  0.2091  1.8711 -1.0445
 6319TIP3    H240449   6.665   5.247   0.202 -1.6200 -2.0498  2.6776
 6320TIP3   OH240450   6.657   3.130   1.267  0.1422 -0.2288 -0.1672
 6320TIP3    H140451   6.673   3.038   1.249 -0.3047 -0.2892 -0.2798
 6320TIP3    H240452   6.618   3.164   1.187 -1.2197 -0.3390  0.4133
 6321TIP3   OH240453   3.570   4.091   4.340  0.2441 -0.6075  0.1636
 6321TIP3    H140454   3.646   4.140   4.373 -0.1657 -0.2047  0.5269
 6321TIP3    H240455   3.599   4.000   4.339  0.9729 -0.3775 -0.3946
 6322TIP3   OH240456   2.347   4.807  16.444  0.2953  0.2767  0.2572
 6322TIP3    H140457   2.291   4.855  16.505  0.9412  0.9756  0.3182
 6322TIP3    H240458   2.430   4.855  16.445  0.0671  0.8002 -1.8000
 6323TIP3   OH240459   5.157   6.521  14.377 -0.0715  0.3276  0.5102
 6323TIP3    H140460   5.169   6.612  14.406  1.0741  0.4208 -0.1886
 6323TIP3    H240461   5.213   6.471  14.436  2.0763  0.4887 -1.2641
 6324TIP3   OH240462   3.597   2.117  13.510  0.4052 -0.2658  0.2236
 6324TIP3    H140463   3.689   2.133  13.530 -0.0027  1.2894  1.0299
 6324TIP3    H240464   3.571   2.050  13.573  1.1444 -1.2296 -0.4712
 6325TIP3   OH240465   1.209   5.841  15.149  0.0093  0.2295 -0.4064
 6325TIP3    H140466   1.283   5.898  15.128  0.1023  0.7263  1.1321
 6325TIP3    H240467   1.140   5.902  15.176 -0.3863 -0.3140 -0.1820
 6326TIP3   OH240468   4.553   3.910   3.698 -0.3750 -0.7992  0.4586
 6326TIP3    H140469   4.518   3.848   3.762  0.2861 -2.1597 -0.4368
 6326TIP3    H240470   4.643   3.925   3.727 -0.5479 -0.2012  0.6992
 6327TIP3   OH240471   5.358   2.198  17.042  0.0139  0.4717  0.1773
 6327TIP3    H140472   5.303   2.134  17.087 -0.3614  0.7931  0.1721
 6327TIP3    H240473   5.339   2.281  17.084 -0.7863  0.8889 -0.9495
 6328TIP3   OH240474   1.414   1.371  13.948  0.2130 -0.3124  0.6395
 6328TIP3    H140475   1.445   1.435  14.012  1.7336 -0.0739 -0.2919
 6328TIP3    H240476   1.425   1.286  13.990  2.1779 -0.2372  0.3731
 6329TIP3   OH240477   5.563   3.309   6.128 -0.1362 -0.1942 -0.2818
 6329TIP3    H140478   5.535   3.381   6.184  1.8391  0.3456  0.0587
 6329TIP3    H240479   5.515   3.233   6.162 -0.2773  0.4496  1.0264
 6330TIP3   OH240480   3.710   2.291  16.148 -0.0685  0.0831 -0.4459
 6330TIP3    H140481   3.702   2.273  16.055 -1.6759 -1.3919 -0.0547
 6330TIP3    H240482   3.710   2.205  16.190 -2.3088  0.7413  1.0914
 6331TIP3   OH240483   2.061   6.095  14.062 -0.4822 -0.1822  0.5904
 6331TIP3    H140484   2.000   6.029  14.095  0.0505  0.4153  3.0099
 6331TIP3    H240485   2.035   6.176  14.106 -0.6564  1.0981 -1.7494
 6332TIP3   OH240486   0.619   6.024   3.714  0.5437  0.3272  0.5539
 6332TIP3    H140487   0.580   6.016   3.627  0.4720 -0.2148  0.6303
 6332TIP3    H240488   0.544   6.024   3.774  0.3702  3.5164  0.5006
 6333TIP3   OH240489   2.497   1.830   3.617  0.5687 -0.6517  0.3453
 6333TIP3    H140490   2.447   1.749   3.603 -0.2237  0.0746 -1.4608
 6333TIP3    H240491   2.558   1.833   3.544  0.0442  0.7322 -0.0786
 6334TIP3   OH240492   3.075   0.213  11.418  0.1615  0.3650  0.4742
 6334TIP3    H140493   3.115   0.284  11.467  0.4413  0.3312  0.2942
 6334TIP3    H240494   3.123   0.210  11.335 -0.2452  0.3616  0.2343
 6335TIP3   OH240495   4.782   4.451   3.522  0.3109  0.5201  0.3889
 6335TIP3    H140496   4.835   4.479   3.447 -0.1326 -1.1531 -0.6081
 6335TIP3    H240497   4.804   4.513   3.592 -0.4151  3.1580 -1.5307
 6336TIP3   OH240498   4.204   1.959  10.755  0.4518  0.0875 -0.1828
 6336TIP3    H140499   4.149   2.028  10.718  1.4749 -0.1231 -2.2767
 6336TIP3    H240500   4.268   2.005  10.809  0.0597  0.6005 -0.1472
 6337TIP3   OH240501   0.289   0.156  11.927  0.5233 -0.7454 -0.5087
 6337TIP3    H140502   0.290   0.239  11.879  2.2824 -1.1336 -1.2160
 6337TIP3    H240503   0.366   0.161  11.985 -1.1070 -0.6159  1.7829
 6338TIP3   OH240504   0.224   2.376  11.899 -0.2291  0.0776  0.1532
 6338TIP3    H140505   0.297   2.434  11.878 -0.3519 -0.2054 -1.1093
 6338TIP3    H240506   0.158   2.434  11.939  0.2888  0.5006  0.4014
 6339TIP3   OH240507   1.271   3.350  11.231 -0.1499 -0.3425  0.2973
 6339TIP3    H140508   1.351   3.393  11.260  2.0138 -2.7934 -1.5495
 6339TIP3    H240509   1.202   3.413  11.250  2.1792  1.9286  1.9333
 6340TIP3   OH240510   6.520   4.601  10.986 -0.6595 -0.3470  0.5102
 6340TIP3    H140511   6.604   4.623  10.946  0.6605 -0.0065  3.2737
 6340TIP3    H240512   6.466   4.571  10.912  1.8541 -0.6150 -1.3589
 6341TIP3   OH240513   2.751   2.303  12.231 -0.1433  0.1447  0.4230
 6341TIP3    H140514   2.795   2.360  12.168  0.8146 -0.0347  0.9208
 6341TIP3    H240515   2.760   2.215  12.195 -1.8814  0.2845 -0.4988
 6342TIP3   OH240516   4.316   5.556   4.064  0.2438  0.7775 -0.4065
 6342TIP3    H140517   4.387   5.590   4.118 -1.0153  0.2093  1.7700
 6342TIP3    H240518   4.250   5.626   4.065 -0.4105  0.1742  0.1153
 6343TIP3   OH240519   0.826   4.708  17.100 -0.1709  0.2824  0.4971
 6343TIP3    H140520   0.853   4.774  17.164 -0.4546 -0.0207  0.9295
 6343TIP3    H240521   0.771   4.648  17.149 -0.3746  0.0353 -0.0286
 6344TIP3   OH240522   3.672   2.077  16.304 -0.8742 -0.0320  0.3892
 6344TIP3    H140523   3.726   2.011  16.260 -0.4731  0.8740 -0.5246
 6344TIP3    H240524   3.694   2.069  16.396 -0.1714 -0.5718  0.1819
 6345TIP3   OH240525   1.186   2.052  13.761 -0.4307 -0.4600  0.2626
 6345TIP3    H140526   1.240   2.130  13.772  0.6508 -1.1341 -0.0400
 6345TIP3    H240527   1.111   2.065  13.819  0.7237 -0.0760  1.7276
 6346TIP3   OH240528   1.933   2.160   2.010  0.8479 -0.4454 -0.3333
 6346TIP3    H140529   1.881   2.147   2.089  0.3395  2.6577 -0.0375
 6346TIP3    H240530   1.970   2.248   2.019  0.8398  0.0256 -3.4841
 6347TIP3   OH240531   4.238   2.694  12.647  0.4044 -0.2436  0.5272
 6347TIP3    H140532   4.147   2.722  12.639  0.5347  0.2824  0.8663
 6347TIP3    H240533   4.283   2.737  12.575  0.2247 -1.2188 -0.1899
 6348TIP3   OH240534   2.948   0.384   4.513  0.7772  0.3180 -0.3473
 6348TIP3    H140535   3.036   0.414   4.537  0.5014  0.9562 -0.0894
 6348TIP3    H240536   2.960   0.335   4.432  1.6206 -1.1351  0.6046
 6349TIP3   OH240537   5.454   2.510  14.904 -0.2652 -0.0600 -0.2703
 6349TIP3    H140538   5.425   2.571  14.837  0.0166  0.8073  0.3707
 6349TIP3    H240539   5.533   2.551  14.941 -2.3286  1.4318  3.0578
 6350TIP3   OH240540   3.708   4.000   2.890  0.1565 -0.6942 -0.0585
 6350TIP3    H140541   3.740   3.910   2.897  0.5865 -0.5275  0.1568
 6350TIP3    H240542   3.782   4.054   2.919 -0.0449 -0.2657 -0.3299
 6351TIP3   OH240543   4.094   6.466   2.399 -0.5341  0.5895 -0.0391
 6351TIP3    H140544   4.160   6.523   2.439 -1.5219  1.0790  0.9578
 6351TIP3    H240545   4.144   6.393   2.364  0.7109  1.7632 -0.8280
 6352TIP3   OH240546   2.133   4.179   4.533  0.7316  0.0227 -0.0234
 6352TIP3    H140547   2.072   4.143   4.469 -1.3305  1.0117  1.2896
 6352TIP3    H240548   2.188   4.238   4.482  1.3073 -1.6372 -1.4120
 6353TIP3   OH240549   4.226   5.331  11.955  0.3169 -0.2713 -0.7718
 6353TIP3    H140550   4.208   5.383  12.033 -1.5942 -0.2922 -1.1439
 6353TIP3    H240551   4.226   5.240  11.986  2.6041 -0.1678 -0.3089
 6354TIP3   OH240552   2.085   6.798  16.982 -0.0190  0.1794 -0.8346
 6354TIP3    H140553   1.991   6.819  16.980 -0.1537 -0.3811 -0.6558
 6354TIP3    H240554   2.126   6.869  16.933 -0.1715  2.2644  1.8052
 6355TIP3   OH240555   1.179   5.249  10.751 -0.3971 -0.1372  0.1663
 6355TIP3    H140556   1.104   5.204  10.713 -0.7805  1.0691 -0.5650
 6355TIP3    H240557   1.238   5.264  10.678 -0.0966  0.1877  0.4694
 6356TIP3   OH240558   6.349   1.471   3.615  0.1867 -0.1223 -0.2563
 6356TIP3    H140559   6.320   1.562   3.628 -0.5686 -0.2997 -0.6393
 6356TIP3    H240560   6.366   1.439   3.704 -0.5941  0.0719 -0.0212
 6357TIP3   OH240561   6.757   5.112  16.179  0.3578 -0.0349 -0.3134
 6357TIP3    H140562   6.780   5.121  16.271  2.1328  0.6973 -0.7842
 6357TIP3    H240563   6.783   5.195  16.139  0.3795 -0.6334 -1.6043
 6358TIP3   OH240564   2.732   0.027  11.343  0.6570  0.3505  0.2293
 6358TIP3    H140565   2.651   0.066  11.377  1.8519  1.4700  1.9712
 6358TIP3    H240566   2.777   0.100  11.300  0.8112 -0.2301 -0.6121
 6359TIP3   OH240567   1.577   5.559  13.263 -0.5295 -0.1549  0.0386
 6359TIP3    H140568   1.651   5.592  13.213 -1.1424  2.1846  0.5591
 6359TIP3    H240569   1.509   5.543  13.198 -0.8759  1.5850 -0.0597
 6360TIP3   OH240570   2.871   3.653   1.719 -0.3543  0.2654  0.0934
 6360TIP3    H140571   2.875   3.560   1.697  0.3316 -0.1837  1.9799
 6360TIP3    H240572   2.961   3.684   1.707 -0.6233  0.7527 -0.7366
 6361TIP3   OH240573   5.412   6.625  16.457 -0.3796  0.5388  0.2025
 6361TIP3    H140574   5.490   6.680  16.469 -0.2578  0.3640  0.2052
 6361TIP3    H240575   5.382   6.607  16.547  0.3631 -0.5253  0.2540
 6362TIP3   OH240576   0.462   6.188   5.361 -0.2177  0.2692  0.0955
 6362TIP3    H140577   0.423   6.189   5.274  1.2368  1.0115 -0.5817
 6362TIP3    H240578   0.556   6.179   5.346  0.0529  0.2672  1.5961
 6363TIP3   OH240579   1.378   5.303   3.033 -0.3725  0.4519 -0.5750
 6363TIP3    H140580   1.332   5.246   3.095 -0.0925 -0.7107 -1.4023
 6363TIP3    H240581   1.365   5.391   3.067  1.4228 -0.2748  2.2177
 6364TIP3   OH240582   1.208   0.512   3.111  0.0457 -0.3217 -0.1521
 6364TIP3    H140583   1.129   0.563   3.093  0.5711  0.0589 -1.5416
 6364TIP3    H240584   1.233   0.475   3.026  1.1293 -0.7761  0.3374
 6365TIP3   OH240585   4.385   0.350   6.213  0.0682  0.4825 -0.0035
 6365TIP3    H140586   4.436   0.387   6.284  0.8304  1.2397 -0.9204
 6365TIP3    H240587   4.416   0.395   6.134 -0.1860 -0.8904 -0.9318
 6366TIP3   OH240588   2.211   4.518   4.675 -0.5802  1.1130  0.6202
 6366TIP3    H140589   2.129   4.476   4.649  0.3606 -0.1411 -0.4634
 6366TIP3    H240590   2.190   4.563   4.757 -2.1805  0.2913  0.7072
 6367TIP3   OH240591   5.901   2.080  17.025  0.1577 -0.2321  0.1025
 6367TIP3    H140592   5.883   2.147  16.959  0.7911 -0.5083 -0.3591
 6367TIP3    H240593   5.874   2.120  17.108  1.4198  0.9897 -0.0346
 6368TIP3   OH240594   5.129   2.503   3.595  0.0255  0.2166  0.5917
 6368TIP3    H140595   5.105   2.487   3.504 -1.1232  0.0018  0.9193
 6368TIP3    H240596   5.074   2.443   3.646  0.7199  0.2687  1.4232
 6369TIP3   OH240597   6.058   3.304  11.226  0.1118  0.4029  0.1625
 6369TIP3    H140598   6.100   3.276  11.145 -0.1892  1.0252 -0.2154
 6369TIP3    H240599   5.969   3.269  11.221  0.4106 -0.4687  0.7238
 6370TIP3   OH240600   5.605   0.405   4.095  0.0371 -0.6289 -0.0391
 6370TIP3    H140601   5.595   0.440   4.006 -1.8227 -1.8896 -0.3755
 6370TIP3    H240602   5.638   0.479   4.146 -0.7164  0.6806 -1.3838
 6371TIP3   OH240603   0.442   5.392  13.042 -0.0023 -0.5323  0.3998
 6371TIP3    H140604   0.407   5.334  12.974  1.7750 -1.7204  0.4284
 6371TIP3    H240605   0.451   5.336  13.119 -1.3410  0.6357  1.4464
 6372TIP3   OH240606   3.082   0.133   2.228 -0.4710  0.4101 -0.1153
 6372TIP3    H140607   2.987   0.122   2.226 -0.4539  0.2993 -0.6098
 6372TIP3    H240608   3.104   0.167   2.141  0.1487 -1.3130 -0.6690
 6373TIP3   OH240609   1.918   0.631   1.958  0.5365 -0.2169 -0.2498
 6373TIP3    H140610   1.905   0.722   1.986 -2.3694 -1.1088  1.8382
 6373TIP3    H240611   1.845   0.613   1.900 -0.3234 -1.7954  1.2153
 6374TIP3   OH240612   4.986   5.408  11.748  0.2015 -0.1242 -0.3936
 6374TIP3    H140613   4.966   5.367  11.832  0.1704  1.3957  0.3718
 6374TIP3    H240614   4.974   5.501  11.764 -2.1538  0.0880 -2.7180
 6375TIP3   OH240615   0.460   2.751  12.272 -0.0897  0.3225  0.0829
 6375TIP3    H140616   0.519   2.683  12.241  0.3801  0.6838  0.1870
 6375TIP3    H240617   0.428   2.793  12.192  0.6864  0.8851  0.0678
 6376TIP3   OH240618   1.828   0.857   6.124  0.3599  0.1510  0.1114
 6376TIP3    H140619   1.846   0.951   6.115 -0.2554  0.1753 -1.0825
 6376TIP3    H240620   1.876   0.831   6.202 -0.1605  1.6463  0.9855
 6377TIP3   OH240621   4.234   0.945   0.380 -0.2166 -0.1945  0.2912
 6377TIP3    H140622   4.323   0.972   0.400 -0.5409  0.9233  0.2952
 6377TIP3    H240623   4.243   0.883   0.308  0.5694 -0.1601  0.3562
 6378TIP3   OH240624   1.236   5.649  15.824 -0.5543  0.1262  0.2150
 6378TIP3    H140625   1.320   5.687  15.851 -0.7628 -0.5506  1.9336
 6378TIP3    H240626   1.241   5.558  15.852 -0.6091 -0.8083 -2.5960
 6379TIP3   OH240627   3.669   0.046   5.598 -0.5406  0.2673  0.3213
 6379TIP3    H140628   3.659  -0.047   5.578  1.0272  0.3002 -0.7553
 6379TIP3    H240629   3.583   0.084   5.579 -0.9797 -0.8339  0.0465
 6380TIP3   OH240630   1.268   1.649   0.985  0.2427  0.0193 -0.5306
 6380TIP3    H140631   1.252   1.714   0.917 -2.0885  1.7018  1.4099
 6380TIP3    H240632   1.323   1.695   1.049 -1.1466  0.0415  0.7009
 6381TIP3   OH240633   5.314   0.223   0.471 -0.5033  0.0031 -0.2996
 6381TIP3    H140634   5.400   0.183   0.460 -0.3877  0.5095 -1.3041
 6381TIP3    H240635   5.254   0.148   0.477  0.2476 -0.4832  3.3534
 6382TIP3   OH240636   6.471   4.838  12.485 -0.1110  0.0091 -0.3749
 6382TIP3    H140637   6.511   4.768  12.536  1.3832  0.8326 -0.3509
 6382TIP3    H240638   6.385   4.851  12.524  0.4626 -0.3050  1.0572
 6383TIP3   OH240639   2.361   1.100   6.050  0.0452 -0.1988  0.0993
 6383TIP3    H140640   2.296   1.160   6.015 -0.0947 -0.8713 -0.8201
 6383TIP3    H240641   2.372   1.127   6.141 -1.1103  0.2677  0.1124
 6384TIP3   OH240642   5.883   3.444  12.814  0.0493 -0.4274 -0.2566
 6384TIP3    H140643   5.796   3.406  12.798  0.9891 -1.9190 -2.4357
 6384TIP3    H240644   5.930   3.375  12.862  0.9477 -0.9690 -1.8561
 6385TIP3   OH240645   2.737   2.148  16.772 -0.2548 -0.1245  0.1614
 6385TIP3    H140646   2.699   2.075  16.723  1.8252 -0.7770 -0.5564
 6385TIP3    H240647   2.731   2.222  16.712 -0.5650 -0.1645  0.1378
 6386TIP3   OH240648   5.891   0.706  15.017 -0.7234 -0.0995  0.5771
 6386TIP3    H140649   5.905   0.800  15.008  1.6187 -0.6010 -2.1250
 6386TIP3    H240650   5.960   0.665  14.964 -2.1528 -3.3366  0.9591
 6387TIP3   OH240651   4.583   4.989   5.218 -0.0446  0.2495 -0.6158
 6387TIP3    H140652   4.619   4.986   5.129  0.2282 -0.9548 -0.4845
 6387TIP3    H240653   4.658   5.009   5.274  0.4728 -2.0443 -0.3657
 6388TIP3   OH240654   2.620   2.512  11.698 -0.7097 -0.4749  0.3500
 6388TIP3    H140655   2.529   2.540  11.688  0.0161  1.9796 -0.0870
 6388TIP3    H240656   2.623   2.471  11.784 -2.2526 -0.6717  0.3306
 6389TIP3   OH240657   1.565   5.078  12.524  0.1223 -0.2954  0.1189
 6389TIP3    H140658   1.493   5.076  12.587 -1.1257  2.1455 -1.0596
 6389TIP3    H240659   1.559   4.996  12.476 -1.5784 -0.3517  0.3883
 6390TIP3   OH240660   3.863   1.495  14.356 -0.2101 -0.3092  0.1846
 6390TIP3    H140661   3.852   1.405  14.387 -0.5008 -0.6963 -0.9783
 6390TIP3    H240662   3.954   1.517  14.376  0.3847 -1.4933 -1.0418
 6391TIP3   OH240663   1.714   4.418  11.878  0.0532  0.0340  0.2393
 6391TIP3    H140664   1.731   4.503  11.920  0.0452 -0.3240  0.9787
 6391TIP3    H240665   1.620   4.416  11.864  0.0636  0.1813  0.1493
 6392TIP3   OH240666   4.435   3.225   4.676 -0.1044 -0.2005 -0.2041
 6392TIP3    H140667   4.404   3.169   4.747  0.0483  0.1058  0.1070
 6392TIP3    H240668   4.355   3.259   4.636 -0.1873  1.2603  1.1277
 6393TIP3   OH240669   5.216   1.740  15.887 -0.0498 -0.3083 -0.3304
 6393TIP3    H140670   5.260   1.760  15.804 -0.0359 -0.0524 -0.2613
 6393TIP3    H240671   5.235   1.815  15.943 -0.0817 -0.4703 -0.1027
 6394TIP3   OH240672   5.458   4.373  12.446  0.0797 -0.6086 -0.4079
 6394TIP3    H140673   5.545   4.392  12.412 -0.0832 -0.5999 -0.8230
 6394TIP3    H240674   5.472   4.304  12.511  0.3946 -0.6091 -0.4765
 6395TIP3   OH240675   4.449   2.376  13.122  0.1665  0.0954  0.3090
 6395TIP3    H140676   4.469   2.372  13.216 -0.9442 -2.2432  0.5194
 6395TIP3    H240677   4.354   2.363  13.117  0.1641  0.5294 -1.1188
 6396TIP3   OH240678   4.462   3.251  12.524 -0.1496 -0.2141 -0.2816
 6396TIP3    H140679   4.417   3.173  12.556  0.0251 -0.6807 -1.1664
 6396TIP3    H240680   4.432   3.321  12.583 -2.1365 -0.4860 -0.9084
 6397TIP3   OH240681   2.702   4.349   0.067  0.4613 -0.0525 -0.1950
 6397TIP3    H140682   2.710   4.339  -0.028 -1.0453 -0.8092 -0.2672
 6397TIP3    H240683   2.639   4.282   0.093  0.6187  0.3471  1.3113
 6398TIP3   OH240684   4.263   1.331  14.794 -0.2378  0.7142 -0.0104
 6398TIP3    H140685   4.304   1.402  14.843  0.0743 -0.6326  1.7741
 6398TIP3    H240686   4.334   1.268  14.780 -0.6903  0.3860 -0.8618
 6399TIP3   OH240687   6.289   4.759  12.856  0.5614  0.0421 -0.1750
 6399TIP3    H140688   6.203   4.799  12.870 -0.7927 -2.0361 -1.9289
 6399TIP3    H240689   6.293   4.689  12.921  0.3684 -0.6389 -0.8837
 6400TIP3   OH240690   3.979   5.081   2.181  0.4545 -0.4677 -0.1987
 6400TIP3    H140691   3.912   5.066   2.248 -0.3487 -0.6940 -1.0396
 6400TIP3    H240692   3.976   5.003   2.126 -1.6335  1.2470 -2.7943
 6401TIP3   OH240693   4.835   0.314   4.557  0.1019 -0.0644  0.4850
 6401TIP3    H140694   4.767   0.256   4.592 -0.8394  0.0852 -0.9925
 6401TIP3    H240695   4.840   0.386   4.620 -0.7807 -0.3233  0.8718
 6402TIP3   OH240696   5.790   4.926  16.838  0.0538  0.2053  0.1704
 6402TIP3    H140697   5.882   4.900  16.845 -0.2775 -1.7256 -1.5395
 6402TIP3    H240698   5.755   4.914  16.926  1.0190 -0.9421  0.4345
 6403TIP3   OH240699   0.226   2.532   2.653 -0.5119 -0.2027 -0.1647
 6403TIP3    H140700   0.299   2.564   2.707  0.0911 -0.4107 -0.8346
 6403TIP3    H240701   0.240   2.574   2.568 -1.4749  0.1563 -0.1525
 6404TIP3   OH240702   0.941   6.714  14.284 -0.1403 -0.2772  0.0602
 6404TIP3    H140703   1.004   6.703  14.355  0.1012  2.5575  0.3711
 6404TIP3    H240704   0.947   6.632  14.235  1.3128 -1.4235  1.9953
 6405TIP3   OH240705   1.987   3.125   5.094 -0.4779 -0.0926  0.3501
 6405TIP3    H140706   1.990   3.032   5.118 -2.1550  0.5128  3.4207
 6405TIP3    H240707   2.052   3.166   5.151 -0.8847  0.8143  0.1677
 6406TIP3   OH240708   0.409   0.573   5.291  0.5411 -0.1570 -0.2347
 6406TIP3    H140709   0.488   0.536   5.252  0.9536 -0.7013  1.1001
 6406TIP3    H240710   0.338   0.517   5.259  0.8739 -0.5935 -0.2102
 6407TIP3   OH240711   1.118   3.990   0.360  0.2515  0.5996 -0.3644
 6407TIP3    H140712   1.064   3.998   0.282  0.5334 -1.6272 -0.8517
 6407TIP3    H240713   1.179   4.064   0.355 -0.2114  0.8982 -1.8472
 6408TIP3   OH240714   1.527   3.794   4.955  0.0743  0.6119  0.6418
 6408TIP3    H140715   1.485   3.846   4.886 -1.6525 -0.5108  0.7988
 6408TIP3    H240716   1.523   3.850   5.033 -2.1480  0.1417  0.9116
 6409TIP3   OH240717   4.092   4.876  11.579 -0.0859 -0.0804 -0.3458
 6409TIP3    H140718   4.058   4.912  11.497 -0.4508 -0.0493 -0.1839
 6409TIP3    H240719   4.113   4.953  11.632 -1.2345 -0.0872  0.1516
 6410TIP3   OH240720   3.345   2.700  16.668  0.3135  0.3012 -0.1515
 6410TIP3    H140721   3.304   2.628  16.620 -2.4724  0.8126  1.3004
 6410TIP3    H240722   3.291   2.776  16.649  1.9498  1.5821  0.0774
 6411TIP3   OH240723   5.422   1.219   6.525 -0.0911 -0.3663  0.5649
 6411TIP3    H140724   5.394   1.310   6.515 -0.2708 -0.4553  0.2642
 6411TIP3    H240725   5.437   1.189   6.435  0.4262 -0.4885  0.6909
 6412TIP3   OH240726   5.994   5.222  11.742  0.0960  0.2713  0.5590
 6412TIP3    H140727   6.019   5.179  11.661  0.6527  0.4878  0.6122
 6412TIP3    H240728   5.999   5.316  11.722  0.6542  0.3309  0.9655
 6413TIP3   OH240729   0.551   3.208   2.379  0.4883 -0.2479  0.5185
 6413TIP3    H140730   0.641   3.242   2.385  0.0413  1.2221 -0.5030
 6413TIP3    H240731   0.498   3.286   2.363 -0.6722 -1.3535 -1.3900
 6414TIP3   OH240732   5.760   4.499  11.548 -0.1550  0.1965 -0.3601
 6414TIP3    H140733   5.748   4.591  11.524 -1.6894  0.6818  1.9508
 6414TIP3    H240734   5.691   4.452  11.502 -0.5443  0.5019 -0.0916
 6415TIP3   OH240735   1.739   5.333  13.658 -0.6428 -0.0361  0.0525
 6415TIP3    H140736   1.744   5.323  13.754  4.2161  0.7751  0.1156
 6415TIP3    H240737   1.720   5.426  13.645 -0.4217  0.0345  0.2273
 6416TIP3   OH240738   0.711   5.691  13.655  0.1622  0.4880  0.1925
 6416TIP3    H140739   0.693   5.749  13.581  1.1658  0.9679  0.2950
 6416TIP3    H240740   0.802   5.711  13.678  0.2376 -0.5056  0.7982
 6417TIP3   OH240741   5.682   2.823   3.717 -0.6263  0.2300  0.4898
 6417TIP3    H140742   5.722   2.814   3.630 -0.1812  0.7640  0.6322
 6417TIP3    H240743   5.752   2.859   3.772 -1.2985  1.2016  0.7349
 6418TIP3   OH240744   2.301   2.420   2.723 -0.1705  0.1946 -0.1512
 6418TIP3    H140745   2.211   2.452   2.717 -0.1740 -0.1574 -3.3205
 6418TIP3    H240746   2.343   2.448   2.642  3.0083  1.3593  1.6670
 6419TIP3   OH240747   1.338   4.532  16.575 -0.5632 -0.3907 -0.2327
 6419TIP3    H140748   1.393   4.530  16.654 -1.3946  0.4070  0.3871
 6419TIP3    H240749   1.261   4.481  16.598 -1.0449  0.2784 -0.3463
 6420TIP3   OH240750   3.725   5.532  13.761  0.2739 -0.3944  0.4935
 6420TIP3    H140751   3.809   5.545  13.805  0.1297  1.2831  0.3218
 6420TIP3    H240752   3.697   5.619  13.735  0.1350 -1.2616 -2.6051
 6421TIP3   OH240753   6.176   0.282   3.500  0.2559  0.2541 -0.0199
 6421TIP3    H140754   6.197   0.346   3.568  0.8627 -0.8252  0.8381
 6421TIP3    H240755   6.105   0.323   3.450 -2.1936 -0.0521  2.9229
 6422TIP3   OH240756   2.842   3.215  15.964 -0.3202 -0.6793  0.0638
 6422TIP3    H140757   2.748   3.203  15.978  0.1430 -3.7279  1.3953
 6422TIP3    H240758   2.875   3.127  15.947  2.3736  0.2275  0.1054
 6423TIP3   OH240759   2.499   2.105  17.225 -0.1849 -0.3339  0.1468
 6423TIP3    H140760   2.437   2.033  17.231 -2.4576  1.4615 -0.1740
 6423TIP3    H240761   2.562   2.077  17.158 -0.2634 -2.4556  0.8897
 6424TIP3   OH240762   0.253   6.603   2.984 -0.8880 -0.0953  0.1487
 6424TIP3    H140763   0.162   6.581   3.005 -0.6405 -0.4107  0.9345
 6424TIP3    H240764   0.279   6.538   2.918 -0.4731 -1.6384  1.7420
 6425TIP3   OH240765   3.610   3.072   2.349  0.1320 -0.2381 -0.3146
 6425TIP3    H140766   3.626   2.993   2.297  1.2112 -0.0304 -0.3166
 6425TIP3    H240767   3.573   3.039   2.431 -0.7079 -0.6362 -0.8356
 6426TIP3   OH240768   3.358   3.824  14.874  0.3044  0.1928  0.4964
 6426TIP3    H140769   3.350   3.729  14.862 -0.5469  0.5622 -2.6917
 6426TIP3    H240770   3.271   3.853  14.898  0.1396  0.3470 -0.2700
 6427TIP3   OH240771   5.591   6.543   5.877  0.4863  0.3028  0.0175
 6427TIP3    H140772   5.560   6.632   5.891 -4.1379 -1.0281 -0.1142
 6427TIP3    H240773   5.597   6.505   5.964 -0.0654  0.0842 -0.0316
 6428TIP3   OH240774   2.714   6.169   4.730 -0.4050 -0.7553 -0.1411
 6428TIP3    H140775   2.754   6.249   4.763 -2.3871  0.1767  0.1713
 6428TIP3    H240776   2.788   6.114   4.704  1.0332  0.8991  0.2397
 6429TIP3   OH240777   6.261   6.646   3.532  0.0187  0.2021  0.6261
 6429TIP3    H140778   6.354   6.626   3.522 -0.1100 -0.9304  1.5468
 6429TIP3    H240779   6.216   6.570   3.496 -0.5424  0.3819  0.9339
 6430TIP3   OH240780   5.775   4.213  11.404 -0.0392  0.3028 -0.0971
 6430TIP3    H140781   5.768   4.168  11.319 -1.8304 -0.1872  0.2657
 6430TIP3    H240782   5.820   4.150  11.460  1.2346  0.6620 -0.6647
 6431TIP3   OH240783   3.858   0.526  14.043  0.3094  0.1776 -0.0033
 6431TIP3    H140784   3.883   0.506  13.952  1.1922  0.9964  0.0340
 6431TIP3    H240785   3.888   0.451  14.093  0.4039  0.0070 -0.3099
 6432TIP3   OH240786   5.847   4.354  14.532 -0.2071  0.5434  0.1360
 6432TIP3    H140787   5.876   4.434  14.489 -0.0659  0.6706  0.4692
 6432TIP3    H240788   5.766   4.330  14.486  0.9053 -0.3499 -1.4640
 6433TIP3   OH240789   2.099   5.747  13.565 -0.1555 -0.4335 -0.1069
 6433TIP3    H140790   2.015   5.769  13.525 -0.9934 -0.0963  1.7005
 6433TIP3    H240791   2.076   5.690  13.639  1.5503 -3.4065 -1.6986
 6434TIP3   OH240792   3.976   3.601  17.241 -0.1967 -0.1993 -0.3388
 6434TIP3    H140793   3.964   3.577  17.333 -0.5388  1.4498  0.0807
 6434TIP3    H240794   3.928   3.683  17.232 -0.2168 -0.3717 -2.0203
 6435TIP3   OH240795   5.313   3.246   0.926 -0.5478 -0.1746  0.1927
 6435TIP3    H140796   5.272   3.197   0.855  0.3303  1.0016 -1.1678
 6435TIP3    H240797   5.289   3.337   0.909 -1.4280  0.0289  2.1817
 6436TIP3   OH240798   1.936   0.237  13.828 -0.3703  0.2356 -0.1083
 6436TIP3    H140799   1.968   0.283  13.750 -3.1364  1.0705 -0.8457
 6436TIP3    H240800   1.980   0.152  13.825  1.1014  0.9830 -1.4392
 6437TIP3   OH240801   1.502   4.847  15.055  0.1075 -0.0250  0.4063
 6437TIP3    H140802   1.500   4.751  15.060  0.0278  0.0288  1.6602
 6437TIP3    H240803   1.595   4.870  15.055  0.1746 -0.1447 -1.4611
 6438TIP3   OH240804   0.640   4.748  12.491 -0.5712  0.2427  0.3994
 6438TIP3    H140805   0.632   4.837  12.457  0.0047 -0.3358 -1.3421
 6438TIP3    H240806   0.684   4.759  12.576 -0.8789  1.6311  0.4098
 6439TIP3   OH240807   5.598   0.949  13.094 -0.5045  0.1921 -0.5279
 6439TIP3    H140808   5.633   1.031  13.129 -0.6864  0.0055  0.1139
 6439TIP3    H240809   5.512   0.971  13.060 -2.0618 -0.3230  2.7090
 6440TIP3   OH240810   4.426   1.912  13.203  0.3487 -0.7453  0.3946
 6440TIP3    H140811   4.380   1.852  13.145  2.3330 -1.6736 -0.2659
 6440TIP3    H240812   4.503   1.939  13.154  1.0032  0.0701  1.8169
 6441TIP3   OH240813   2.938   1.006   5.778 -0.0272  0.5092  0.1081
 6441TIP3    H140814   2.904   1.087   5.740 -3.1772 -1.0897 -0.7868
 6441TIP3    H240815   2.863   0.947   5.780  2.3188 -2.7088 -0.0596
 6442TIP3   OH240816   0.741   0.015  13.518  1.0328 -0.1364 -0.6559
 6442TIP3    H140817   0.789   0.097  13.524 -0.1853  0.6012 -0.4902
 6442TIP3    H240818   0.683   0.027  13.443  0.8655 -0.8599 -0.6484
 6443TIP3   OH240819   5.239   2.244  11.875  0.6201  0.4775  0.3326
 6443TIP3    H140820   5.285   2.312  11.926 -1.2414  0.8830  1.5586
 6443TIP3    H240821   5.192   2.292  11.807 -1.1470  0.5354  1.5407
 6444TIP3   OH240822   1.209   6.637  11.519 -0.6599  0.0398  0.4490
 6444TIP3    H140823   1.195   6.554  11.565  0.5078 -0.2550  0.3113
 6444TIP3    H240824   1.197   6.704  11.587  0.3620 -0.3581  1.0454
 6445TIP3   OH240825   2.899   6.246   2.168  0.2464  0.0610 -0.5221
 6445TIP3    H140826   2.954   6.242   2.089  1.0592 -1.0005  0.0671
 6445TIP3    H240827   2.950   6.298   2.230 -1.0110  2.1086 -1.1151
 6446TIP3   OH240828   6.749   1.015  11.514 -0.1125 -0.8945 -0.0273
 6446TIP3    H140829   6.764   1.105  11.486  0.5981 -1.0072 -0.0215
 6446TIP3    H240830   6.752   0.964  11.433  2.2051 -1.2547  0.2266
 6447TIP3   OH240831   6.807   2.624   0.833 -0.1143 -0.2339 -0.1739
 6447TIP3    H140832   6.718   2.588   0.840  0.9213 -3.2035 -0.5799
 6447TIP3    H240833   6.811   2.662   0.746 -1.1349  0.4743  0.0692
 6448TIP3   OH240834   1.446   2.366  16.807 -0.0391  0.2178 -0.0869
 6448TIP3    H140835   1.477   2.416  16.883  0.2901 -0.9465  0.5730
 6448TIP3    H240836   1.521   2.315  16.780 -0.7541 -1.0133  0.1789
 6449TIP3   OH240837   2.911   6.455   3.473 -0.5860  0.0766  0.4784
 6449TIP3    H140838   2.853   6.379   3.484  0.2468 -0.5243  0.8666
 6449TIP3    H240839   2.965   6.433   3.397 -1.6761  1.1834 -0.6632
 6450TIP3   OH240840   2.985   6.794   6.147 -0.6538  0.1157  0.2196
 6450TIP3    H140841   3.011   6.737   6.076 -0.8698  0.3737 -0.0695
 6450TIP3    H240842   2.912   6.846   6.111 -2.2718 -1.2894  1.3004
 6451TIP3   OH240843   1.694   2.550   4.289  0.6622  0.4001  0.2184
 6451TIP3    H140844   1.698   2.627   4.345 -0.9453  0.4972  0.2343
 6451TIP3    H240845   1.601   2.526   4.287  1.1696 -1.8370  0.6083
 6452TIP3   OH240846   1.817   0.589  16.952  0.0150 -0.1098 -0.3411
 6452TIP3    H140847   1.733   0.634  16.962  0.0338 -0.2348  0.4725
 6452TIP3    H240848   1.812   0.515  17.013 -0.4336 -1.8553 -2.3839
 6453TIP3   OH240849   3.033   1.166   3.156  0.0873  0.5021  0.4909
 6453TIP3    H140850   3.063   1.241   3.208  0.8358  1.0709 -0.7187
 6453TIP3    H240851   3.112   1.116   3.137  0.3894  1.8937 -2.5312
 6454TIP3   OH240852   2.509   1.638  14.961 -0.6327 -0.3555  0.2644
 6454TIP3    H140853   2.578   1.610  14.901  1.4695  0.8659  1.9817
 6454TIP3    H240854   2.513   1.577  15.034 -0.3015  0.6258  1.0878
 6455TIP3   OH240855   6.137   0.231  12.625  0.2656  0.6860 -0.2900
 6455TIP3    H140856   6.111   0.318  12.657 -0.6137  0.1653  0.4462
 6455TIP3    H240857   6.054   0.185  12.610  0.7238 -0.1141 -0.4169
 6456TIP3   OH240858   5.625   3.656  13.019 -0.2676 -0.3771  0.1417
 6456TIP3    H140859   5.702   3.690  13.064 -0.2158 -3.1853  2.4522
 6456TIP3    H240860   5.551   3.689  13.071 -0.4802 -0.1331 -0.3072
 6457TIP3   OH240861   0.801   3.598  10.987  0.3392 -0.0909 -0.4238
 6457TIP3    H140862   0.885   3.570  10.951 -0.1226  0.2644 -1.8099
 6457TIP3    H240863   0.736   3.541  10.945 -0.1707  0.0036  0.2197
 6458TIP3   OH240864   0.809   4.751   0.474 -0.1088 -0.4140 -0.0743
 6458TIP3    H140865   0.742   4.819   0.485 -0.7640 -1.1573  0.7071
 6458TIP3    H240866   0.817   4.739   0.380 -0.4634  0.2790 -0.1966
 6459TIP3   OH240867   4.308   1.471  16.379  0.2620 -0.6012  0.1837
 6459TIP3    H140868   4.312   1.382  16.415  2.1960 -0.5650  0.1496
 6459TIP3    H240869   4.217   1.496  16.389 -0.3797 -2.6577  0.0314
 6460TIP3   OH240870   4.999   5.720  11.005 -0.0610  0.1979  0.1747
 6460TIP3    H140871   4.973   5.629  11.021 -0.5686  0.1438 -0.9038
 6460TIP3    H240872   4.929   5.772  11.047  0.3247  0.1089  0.9508
 6461TIP3   OH240873   3.851   1.911   4.309 -0.0194 -0.7020 -0.5650
 6461TIP3    H140874   3.883   1.988   4.263  1.1309 -0.4930  0.5201
 6461TIP3    H240875   3.927   1.854   4.316 -0.7820 -1.8367 -1.0987
 6462TIP3   OH240876   1.187   1.759  11.450 -0.2235 -0.0418  0.4956
 6462TIP3    H140877   1.247   1.689  11.421 -0.5128  0.2425 -0.8610
 6462TIP3    H240878   1.102   1.734  11.412 -0.5511  0.5198  0.8571
 6463TIP3   OH240879   0.420   1.325   4.867  0.7231 -0.3638  0.5954
 6463TIP3    H140880   0.485   1.323   4.938  0.8714  1.5704  0.5559
 6463TIP3    H240881   0.372   1.406   4.881  0.7118  0.0398 -1.4902
 6464TIP3   OH240882   0.189   0.297  11.642 -0.1192  0.2584 -0.3323
 6464TIP3    H140883   0.212   0.384  11.676 -2.1504  0.4855  0.6340
 6464TIP3    H240884   0.258   0.277  11.579  0.3848  2.6114 -0.6432
 6465TIP3   OH240885   5.149   4.397   0.026 -0.0489 -0.2511  0.1898
 6465TIP3    H140886   5.204   4.348  -0.035 -1.0886 -1.7265  0.3921
 6465TIP3    H240887   5.061   4.364   0.012 -0.7562  1.3446  0.5987
 6466TIP3   OH240888   2.213   2.913  12.433 -0.3254 -0.2472  0.1795
 6466TIP3    H140889   2.187   2.871  12.515 -1.1933  0.1247  0.0971
 6466TIP3    H240890   2.301   2.879  12.416 -0.0342 -0.1539  1.3898
 6467TIP3   OH240891   0.333   0.081  16.945  0.8220  0.2453 -0.3435
 6467TIP3    H140892   0.272   0.040  17.008  1.0308  1.3919  0.6404
 6467TIP3    H240893   0.414   0.030  16.955  0.6254 -0.0528 -0.2336
 6468TIP3   OH240894   1.792   2.240  10.991 -0.6780 -0.3371 -0.0218
 6468TIP3    H140895   1.740   2.186  10.932 -2.8778  1.3644  0.2276
 6468TIP3    H240896   1.857   2.282  10.934 -1.6487 -0.0494 -0.9402
 6469TIP3   OH240897   3.317   5.301   2.017  0.5080 -0.3684 -0.2693
 6469TIP3    H140898   3.275   5.377   2.057  1.3392  0.9635 -1.8098
 6469TIP3    H240899   3.310   5.316   1.923  2.5365 -1.1314 -0.5975
 6470TIP3   OH240900   4.674   5.919  12.429 -0.1284  0.3784 -0.1657
 6470TIP3    H140901   4.638   5.848  12.376 -0.9078 -0.0263  0.8759
 6470TIP3    H240902   4.653   5.999  12.380 -0.3198 -0.0217 -0.7456
 6471TIP3   OH240903   6.432   3.589  12.028 -0.1353  0.3155 -0.4132
 6471TIP3    H140904   6.422   3.625  12.116 -1.1330 -2.2963  0.6631
 6471TIP3    H240905   6.348   3.606  11.986 -1.0590 -1.6045  0.5145
 6472TIP3   OH240906   6.049   0.305   5.717 -0.0556  0.3823 -0.1184
 6472TIP3    H140907   6.007   0.219   5.712 -1.9108  1.1990  0.4109
 6472TIP3    H240908   6.061   0.320   5.810  1.0240  0.3744 -0.2451
 6473TIP3   OH240909   4.083   3.520  14.982 -0.2495 -0.6130 -0.4640
 6473TIP3    H140910   4.110   3.437  14.943  1.6963 -0.4786  0.4390
 6473TIP3    H240911   4.127   3.587  14.930 -1.3386 -0.1731 -0.8338
 6474TIP3   OH240912   0.195   5.343   4.632 -0.7030 -0.1955  0.2927
 6474TIP3    H140913   0.107   5.329   4.597 -0.5259  0.9870 -0.7077
 6474TIP3    H240914   0.182   5.394   4.712 -0.8971  0.9033 -0.4184
 6475TIP3   OH240915   2.697   0.017  11.930  0.3706  0.3547  0.2659
 6475TIP3    H140916   2.790  -0.005  11.926  0.2864 -0.1139  0.7911
 6475TIP3    H240917   2.666   0.007  11.840  0.4363 -1.2744  0.3927
 6476TIP3   OH240918   4.567   1.589   5.809  0.1844 -0.1171 -0.1848
 6476TIP3    H140919   4.528   1.569   5.894 -0.1220  0.3018 -0.2275
 6476TIP3    H240920   4.547   1.512   5.756  0.7638 -0.5800  0.2484
 6477TIP3   OH240921   2.079   1.526  12.195  0.0106 -0.0077  0.0850
 6477TIP3    H140922   2.039   1.610  12.173  0.3164 -0.1950 -1.2454
 6477TIP3    H240923   2.011   1.461  12.175  0.1205 -0.1489  0.1694
 6478TIP3   OH240924   2.789   2.989  17.098  0.1937 -0.3538  0.0771
 6478TIP3    H140925   2.727   2.978  17.170  0.0137 -0.8624 -0.1538
 6478TIP3    H240926   2.870   3.018  17.140 -0.0163 -0.2977  0.4439
 6479TIP3   OH240927   4.724   3.699  13.067  0.6910  0.1068  0.4161
 6479TIP3    H140928   4.692   3.722  13.154 -0.0365  0.5993  0.0290
 6479TIP3    H240929   4.782   3.771  13.043 -1.9296  1.9249 -0.9804
 6480TIP3   OH240930   4.021   0.687  15.325 -0.0627  0.3195  0.0141
 6480TIP3    H140931   4.096   0.713  15.379  0.3829 -0.7831 -0.0439
 6480TIP3    H240932   4.021   0.750  15.254  0.4504  0.7018  0.3388
 6481TIP3   OH240933   2.109   0.108  13.380  0.2261 -0.0755  0.6491
 6481TIP3    H140934   2.053   0.065  13.316  0.9479  0.0506 -0.0803
 6481TIP3    H240935   2.198   0.077  13.359  0.3203 -1.1988  2.5122
 6482TIP3   OH240936   6.576   2.016  13.802 -0.1824  0.2884 -0.7099
 6482TIP3    H140937   6.665   2.038  13.831 -0.0180 -2.7328  1.6047
 6482TIP3    H240938   6.534   2.101  13.788  2.6462  1.8344 -0.6413
 6483TIP3   OH240939   0.247   4.110   2.636 -0.4755 -0.4089  0.1061
 6483TIP3    H140940   0.228   4.021   2.665  0.1087  0.2487  2.7994
 6483TIP3    H240941   0.318   4.099   2.572  0.2314 -1.8510  1.0630
 6484TIP3   OH240942   0.341   4.946  12.272  0.0281 -0.8001  0.0955
 6484TIP3    H140943   0.324   5.040  12.275 -0.2317 -0.6698 -2.8653
 6484TIP3    H240944   0.415   4.937  12.212 -1.9372 -2.6223 -2.2573
 6485TIP3   OH240945   6.429   5.997  13.987  0.0984  0.3356  0.2291
 6485TIP3    H140946   6.451   6.089  14.004 -1.2653  0.5470  1.0445
 6485TIP3    H240947   6.450   5.952  14.069 -0.6882  0.2228  0.3819
 6486TIP3   OH240948   0.684   3.597  14.310 -0.6901 -0.0710 -0.3283
 6486TIP3    H140949   0.765   3.626  14.268  1.0397 -0.9298  2.1732
 6486TIP3    H240950   0.639   3.677  14.334 -0.1201  0.4446 -0.9521
 6487TIP3   OH240951   3.122   5.914  11.146  0.8996 -0.3388  0.0183
 6487TIP3    H140952   3.069   5.838  11.171 -0.3001 -0.2150 -1.9649
 6487TIP3    H240953   3.063   5.989  11.156  2.1168  0.4035  2.0906
 6488TIP3   OH240954   1.676   2.424   1.098  0.5433 -0.1521  0.4016
 6488TIP3    H140955   1.718   2.455   1.178 -1.5866 -1.0678  1.9894
 6488TIP3    H240956   1.583   2.415   1.121  0.0081 -1.4662 -1.8593
 6489TIP3   OH240957   4.186   4.988   1.113  0.0076  0.0620  0.1902
 6489TIP3    H140958   4.128   4.995   1.188  1.9302  2.1708  1.5819
 6489TIP3    H240959   4.129   4.956   1.042 -2.5253  0.7797  1.7690
 6490TIP3   OH240960   5.975   0.151  12.203 -0.4246 -0.2546  0.1488
 6490TIP3    H140961   6.025   0.070  12.219 -0.1685 -0.0110  0.6010
 6490TIP3    H240962   5.995   0.173  12.112  1.9796  0.9494  0.8716
 6491TIP3   OH240963   1.716   2.860  16.636  0.5649  0.1546 -0.6257
 6491TIP3    H140964   1.751   2.946  16.660  2.8335 -0.2028 -2.3119
 6491TIP3    H240965   1.633   2.880  16.591  1.4166  1.5776 -1.6751
 6492TIP3   OH240966   5.472   0.013  13.950 -0.7076 -0.8100 -0.2164
 6492TIP3    H140967   5.450  -0.055  14.014 -0.0688 -2.3065 -1.5276
 6492TIP3    H240968   5.485   0.092  14.003 -1.7225 -1.6265  1.3258
 6493TIP3   OH240969   2.305   6.529  13.891 -0.3670  0.4175  0.4239
 6493TIP3    H140970   2.363   6.593  13.932 -1.0078  1.1547  0.1938
 6493TIP3    H240971   2.313   6.451  13.946 -1.8000  1.6073  2.4441
 6494TIP3   OH240972   3.768   5.440  15.744  0.0629 -0.5603 -0.1606
 6494TIP3    H140973   3.742   5.351  15.766 -0.4380 -0.4069 -0.1389
 6494TIP3    H240974   3.820   5.469  15.820  1.1688 -1.2149 -0.6329
 6495TIP3   OH240975   4.376   3.027  15.957 -0.1405  0.4063  0.6239
 6495TIP3    H140976   4.320   3.102  15.938  0.1782  0.7209  0.9040
 6495TIP3    H240977   4.338   2.954  15.908  0.4459  1.1048 -0.9228
 6496TIP3   OH240978   2.004   4.367  14.752  0.0484 -0.6009  0.2753
 6496TIP3    H140979   2.069   4.298  14.741  0.6104  0.0617 -0.6727
 6496TIP3    H240980   1.980   4.362  14.845  1.5866 -0.7493  0.6930
 6497TIP3   OH240981   2.659   6.110  12.206 -0.1082  0.1792 -0.0215
 6497TIP3    H140982   2.737   6.119  12.261  0.6198 -0.2725 -0.9378
 6497TIP3    H240983   2.675   6.170  12.133 -0.2374 -0.5196 -0.6284
 6498TIP3   OH240984   6.154   2.633   5.172  0.0034 -0.2868 -0.2837
 6498TIP3    H140985   6.138   2.715   5.125  1.0452  0.8597  1.2813
 6498TIP3    H240986   6.122   2.649   5.260 -0.9574 -2.0465 -0.2579
 6499TIP3   OH240987   4.388   0.453  15.903  0.5230  0.1511 -0.5252
 6499TIP3    H140988   4.351   0.408  15.979 -0.1762  0.6341 -0.5709
 6499TIP3    H240989   4.480   0.466  15.926  1.1300 -2.5069 -1.0911
 6500TIP3   OH240990   0.330   1.551  13.756  0.0589 -0.5340 -0.2557
 6500TIP3    H140991   0.297   1.488  13.819 -0.9459  0.0317 -0.1948
 6500TIP3    H240992   0.288   1.634  13.780  1.5191  0.2255 -0.1892
 6501TIP3   OH240993   4.871   3.631   0.872 -0.1569  0.1132 -0.3932
 6501TIP3    H140994   4.834   3.660   0.789  1.0262  1.0198 -0.6369
 6501TIP3    H240995   4.878   3.711   0.924 -3.2743 -0.7539  1.6389
 6502TIP3   OH240996   0.896   6.449   6.146  0.1027  0.0933  0.0935
 6502TIP3    H140997   0.937   6.528   6.114  0.7809 -0.3077 -0.0431
 6502TIP3    H240998   0.872   6.469   6.237 -0.3065  0.6601 -0.1381
 6503TIP3   OH240999   0.480   6.298  11.401  0.3494  0.2538  0.1329
 6503TIP3    H141000   0.468   6.273  11.309 -2.0273 -1.7579  0.8712
 6503TIP3    H241001   0.490   6.215  11.447  3.4509  1.2624  1.5958
 6504TIP3   OH241002   2.813   4.338   4.082  0.1158 -0.1731  0.6118
 6504TIP3    H141003   2.882   4.382   4.032 -0.8624 -0.4913 -1.0985
 6504TIP3    H241004   2.757   4.409   4.113  0.2294 -0.0380  0.5079
 6505TIP3   OH241005   6.297   2.593   0.530 -0.1314  0.2512  0.7506
 6505TIP3    H141006   6.313   2.504   0.498  2.7444 -0.1012  2.7332
 6505TIP3    H241007   6.354   2.649   0.477 -0.3737  0.6091  0.8602
 6506TIP3   OH241008   6.601   4.199  11.618 -0.4065  0.4259 -0.0135
 6506TIP3    H141009   6.595   4.228  11.709 -1.6789  0.5050 -0.1062
 6506TIP3    H241010   6.677   4.140  11.617 -0.4509  0.3196  1.1313
 6507TIP3   OH241011   0.405   2.538   4.840 -0.6116 -0.1600  0.3574
 6507TIP3    H141012   0.347   2.610   4.869 -1.3148 -0.5939  0.0627
 6507TIP3    H241013   0.356   2.496   4.769 -0.4166 -1.2220  0.8436
 6508TIP3   OH241014   4.229   2.860  16.462  0.0199 -0.0602 -0.0233
 6508TIP3    H141015   4.302   2.922  16.464 -1.2250  1.4922  0.0842
 6508TIP3    H241016   4.213   2.840  16.554 -1.9381  2.5310  0.3420
 6509TIP3   OH241017   4.728   6.496   4.744  0.1096 -0.3684 -0.0856
 6509TIP3    H141018   4.713   6.402   4.739 -0.1856 -0.3030 -0.4188
 6509TIP3    H241019   4.818   6.503   4.777 -0.7650 -0.7522  2.6667
 6510TIP3   OH241020   0.012   1.499   5.670 -0.9457 -0.0895 -0.2218
 6510TIP3    H141021  -0.044   1.476   5.744 -0.6210 -0.4096 -0.0692
 6510TIP3    H241022   0.071   1.566   5.706 -1.7441  0.8473 -0.6032
 6511TIP3   OH241023   4.695   0.896  10.473  0.6179 -0.4326 -0.4675
 6511TIP3    H141024   4.627   0.831  10.492  1.4777 -1.3362 -0.3798
 6511TIP3    H241025   4.664   0.942  10.396  0.0282 -1.0229 -0.5885
 6512TIP3   OH241026   1.218   6.293  14.764  0.4324  0.4933 -0.2256
 6512TIP3    H141027   1.150   6.228  14.782  1.4490 -0.1006  1.6922
 6512TIP3    H241028   1.287   6.275  14.828  2.4749  0.9955 -2.1310
 6513TIP3   OH241029   1.542   3.107  10.999 -0.1307 -0.5619 -0.3190
 6513TIP3    H141030   1.546   3.126  10.905 -0.6682  0.4089 -0.1589
 6513TIP3    H241031   1.606   3.166  11.038 -0.8871  0.0316  0.0542
 6514TIP3   OH241032   3.926   5.536  12.963 -0.0629 -0.2612 -0.0420
 6514TIP3    H141033   3.923   5.455  12.912 -0.5562  1.1222 -2.3697
 6514TIP3    H241034   3.868   5.520  13.037  0.4911 -2.2914  0.0121
 6515TIP3   OH241035   6.613   0.000  14.824  0.1066 -0.2123  0.7786
 6515TIP3    H141036   6.672  -0.030  14.755  0.6031 -0.2102  1.1881
 6515TIP3    H241037   6.568   0.075  14.786 -1.7974 -1.9375 -0.5663
 6516TIP3   OH241038   5.209   1.312   5.076 -0.0547 -0.2764 -0.2892
 6516TIP3    H141039   5.149   1.238   5.069  1.0225 -1.0829 -1.4138
 6516TIP3    H241040   5.175   1.376   5.014  0.2176 -0.7369 -0.9317
 6517TIP3   OH241041   3.092   5.301  14.777 -0.4859  0.6829 -0.0543
 6517TIP3    H141042   3.050   5.242  14.838  1.3487  0.4894  1.1096
 6517TIP3    H241043   3.170   5.253  14.747 -0.1594  1.6468 -0.8126
 6518TIP3   OH241044   4.633   1.882  16.420 -0.4637  0.4340  0.5769
 6518TIP3    H141045   4.697   1.828  16.373 -0.4059 -0.0786  1.2157
 6518TIP3    H241046   4.584   1.819  16.473  0.5263  1.1108  2.4216
 6519TIP3   OH241047   6.270   0.798  16.580 -0.0720 -0.0969 -0.3236
 6519TIP3    H141048   6.178   0.775  16.590  0.1254 -0.6122  0.3635
 6519TIP3    H241049   6.282   0.876  16.634 -0.1349  0.0612 -0.5348
 6520TIP3   OH241050   6.364   6.294   6.650  0.5385  0.6301  0.0027
 6520TIP3    H141051   6.447   6.297   6.602 -0.5353 -1.3318 -2.1379
 6520TIP3    H241052   6.379   6.229   6.719  1.4069  1.9085  1.0882
 6521TIP3   OH241053   5.887   6.646   0.036  0.1686 -0.6288  0.2341
 6521TIP3    H141054   5.908   6.675  -0.053 -0.5481  0.1495  0.3036
 6521TIP3    H241055   5.870   6.727   0.084  1.9599 -0.9395  1.4857
 6522TIP3   OH241056   3.915   4.732  17.220  0.2712  0.0330 -0.5340
 6522TIP3    H141057   3.854   4.660  17.203  0.8060 -0.4456 -0.4723
 6522TIP3    H241058   3.877   4.807  17.174 -1.4634  0.3035  1.1886
 6523TIP3   OH241059   5.983   6.410  16.342  0.3777  0.1309  0.0448
 6523TIP3    H141060   5.922   6.467  16.389 -0.9709 -0.0133 -1.4510
 6523TIP3    H241061   5.966   6.323  16.377 -0.8015 -0.0160 -0.8158
 6524TIP3   OH241062   0.970   2.841  14.797 -0.1231 -0.1819  0.4521
 6524TIP3    H141063   0.982   2.911  14.733 -1.2382 -0.8012 -0.4579
 6524TIP3    H241064   1.046   2.784  14.785  0.5184  0.5774  0.8366
 6525TIP3   OH241065   3.988   2.667  11.441 -0.4689 -0.4738 -0.0092
 6525TIP3    H141066   3.941   2.677  11.524 -0.5855  0.5591 -0.1878
 6525TIP3    H241067   3.944   2.727  11.381  2.5195  2.4257  0.4432
 6526TIP3   OH241068   0.429   2.562   2.036 -0.0758  0.6917 -0.1709
 6526TIP3    H141069   0.511   2.610   2.032 -0.9854  2.2085 -2.4005
 6526TIP3    H241070   0.370   2.609   1.978 -1.7379 -1.8544 -0.7280
 6527TIP3   OH241071   4.106   6.607  14.642 -0.3291 -0.4593 -0.7062
 6527TIP3    H141072   4.140   6.617  14.731 -0.9816  1.5780 -0.6240
 6527TIP3    H241073   4.080   6.515  14.636 -0.7492 -0.5240  1.3899
 6528TIP3   OH241074   4.439   1.528  14.232 -0.1984  0.1311  0.2527
 6528TIP3    H141075   4.453   1.554  14.323 -1.0140 -0.6674  0.6333
 6528TIP3    H241076   4.361   1.577  14.205  0.6752  1.1986 -0.3871
 6529TIP3   OH241077   2.230   0.095   3.405  0.0981  0.0633 -0.4164
 6529TIP3    H141078   2.158   0.033   3.407  0.7074 -0.7429 -1.8779
 6529TIP3    H241079   2.282   0.076   3.483 -0.7413  0.0285  0.1427
 6530TIP3   OH241080   1.304   0.459  16.444 -0.1658  0.1805 -0.3299
 6530TIP3    H141081   1.392   0.422  16.453  0.1269  0.8905 -0.2284
 6530TIP3    H241082   1.255   0.392  16.396  0.7272  0.2676 -1.3905
 6531TIP3   OH241083   3.090   0.137   0.081  0.5707  0.7062 -0.3967
 6531TIP3    H141084   3.067   0.080   0.154  0.9587 -0.6806 -1.3388
 6531TIP3    H241085   3.033   0.213   0.092  0.2976  0.3213  1.0793
 6532TIP3   OH241086   0.209   4.011   4.471  0.6357 -0.4505  0.4234
 6532TIP3    H141087   0.251   4.090   4.506  0.2828  0.6594 -1.5337
 6532TIP3    H241088   0.276   3.943   4.480  1.3981  0.3500  0.9772
 6533TIP3   OH241089   2.785   1.523   1.209 -0.0443 -0.2041  0.1150
 6533TIP3    H141090   2.852   1.477   1.158  0.4818 -0.7901  1.2938
 6533TIP3    H241091   2.703   1.500   1.167  0.4067 -0.3270 -0.7224
 6534TIP3   OH241092   1.201   0.258   2.579  0.5044 -0.2809  0.6985
 6534TIP3    H141093   1.223   0.352   2.585  2.9942 -0.7987  1.0676
 6534TIP3    H241094   1.106   0.256   2.569  0.4080  2.2957  0.3536
 6535TIP3   OH241095   0.271   2.767  16.591 -0.0571 -0.2402  0.2862
 6535TIP3    H141096   0.270   2.845  16.646  2.3770  0.8546 -1.0232
 6535TIP3    H241097   0.281   2.801  16.502 -2.1478 -1.9922 -0.6918
 6536TIP3   OH241098   0.253   4.984   4.048  0.2509 -0.4138  0.3444
 6536TIP3    H141099   0.290   4.916   3.992  0.2952  0.6559 -0.9748
 6536TIP3    H241100   0.186   4.939   4.099 -0.2078 -1.3147 -1.0061
 6537TIP3   OH241101   4.156   0.760  14.212 -0.4045 -0.3421 -0.0622
 6537TIP3    H141102   4.100   0.712  14.273 -0.6171 -0.2217 -0.1581
 6537TIP3    H241103   4.192   0.832  14.264  1.2959 -1.5813  0.5451
 6538TIP3   OH241104   6.453   2.159  10.431  0.2086 -0.3198 -0.3919
 6538TIP3    H141105   6.468   2.110  10.349 -0.0636 -0.7404 -0.1968
 6538TIP3    H241106   6.399   2.100  10.484  1.5030 -0.6207  0.6348
 6539TIP3   OH241107   3.198   5.954   3.552 -0.1170  0.0592 -0.0590
 6539TIP3    H141108   3.269   5.917   3.500 -0.2094  1.3318 -1.1399
 6539TIP3    H241109   3.241   6.014   3.613 -0.2161  0.3919 -0.3172
 6540TIP3   OH241110   6.235   0.823  13.294  0.0313  0.0812 -0.1167
 6540TIP3    H141111   6.324   0.790  13.300 -0.0386 -0.4664 -1.6752
 6540TIP3    H241112   6.240   0.894  13.230 -0.2521  1.6637  1.4986
 6541TIP3   OH241113   0.760   0.398  13.592  0.6467 -0.3548 -0.2303
 6541TIP3    H141114   0.802   0.332  13.537 -1.2664 -2.1114  0.2967
 6541TIP3    H241115   0.801   0.388  13.678  0.7454 -0.4923 -0.2929
 6542TIP3   OH241116   5.588   4.922  13.490  1.3081  0.1748 -0.2060
 6542TIP3    H141117   5.583   4.877  13.406  0.1190 -0.8958  0.4040
 6542TIP3    H241118   5.574   5.014  13.469 -1.2216 -0.3122 -0.9791
 6543TIP3   OH241119   0.752   2.890   5.507  0.5482  0.1196  0.0137
 6543TIP3    H141120   0.737   2.939   5.427  2.3225  0.5285 -0.1148
 6543TIP3    H241121   0.846   2.868   5.505  0.2934 -1.2625  1.1904
 6544TIP3   OH241122   4.397   4.623  14.359  0.3092 -0.3577  0.2906
 6544TIP3    H141123   4.347   4.682  14.415  0.2796  0.4743 -0.5890
 6544TIP3    H241124   4.375   4.650  14.269  0.8575 -1.2269 -0.1193
 6545TIP3   OH241125   3.075   2.329   3.973  0.1239 -0.4613  0.2256
 6545TIP3    H141126   3.051   2.252   3.921 -0.9733  2.3643 -4.0026
 6545TIP3    H241127   3.139   2.375   3.919  0.6921  1.6942  2.5499
 6546TIP3   OH241128   5.419   4.371  10.581  0.2912 -0.0940 -0.3686
 6546TIP3    H141129   5.442   4.420  10.660 -1.7239  0.2497  0.0682
 6546TIP3    H241130   5.345   4.316  10.608  0.1574 -0.6509 -1.7883
 6547TIP3   OH241131   1.983   1.269   3.746  0.1041  0.2610 -0.2473
 6547TIP3    H141132   1.985   1.200   3.813 -0.2472  1.1265  0.6776
 6547TIP3    H241133   1.932   1.230   3.674  0.4512 -0.6691 -0.0055
 6548TIP3   OH241134   1.015   3.753  14.490  0.8898 -0.0652 -0.2297
 6548TIP3    H141135   1.075   3.822  14.461 -1.2312  2.6281  1.3010
 6548TIP3    H241136   1.008   3.765  14.584 -0.3226 -1.8109 -0.0477
 6549TIP3   OH241137   1.542   6.559  12.851  0.0292 -0.5160 -0.6009
 6549TIP3    H141138   1.474   6.514  12.902 -0.9639  0.6571 -0.8547
 6549TIP3    H241139   1.531   6.525  12.762 -0.3774 -0.1785 -0.6849
 6550TIP3   OH241140   0.939   4.785   3.277  0.3856 -0.1613 -0.4839
 6550TIP3    H141141   0.924   4.862   3.222 -1.1753  0.1432  0.3272
 6550TIP3    H241142   1.009   4.812   3.337 -0.2932  0.7201 -0.0674
 6551TIP3   OH241143   0.250   3.812   5.318 -0.7005  0.3506  0.5127
 6551TIP3    H141144   0.287   3.858   5.242 -2.7113  1.0173 -0.1074
 6551TIP3    H241145   0.184   3.871   5.352 -1.6020 -1.0332  1.2421
 6552TIP3   OH241146   6.598   2.634   1.394  0.0652 -0.2384  0.1405
 6552TIP3    H141147   6.570   2.667   1.479 -1.9156  0.1968 -0.6230
 6552TIP3    H241148   6.669   2.692   1.367  1.2018 -0.7957  1.7522
 6553TIP3   OH241149   6.446   0.509  15.417  0.5226 -0.2298 -0.2566
 6553TIP3    H141150   6.361   0.465  15.406  1.1682 -1.4834 -0.4026
 6553TIP3    H241151   6.502   0.470  15.350  0.9818  1.2426 -0.7699
 6554TIP3   OH241152   0.473   1.358  14.779  0.8933 -0.0925 -0.8823
 6554TIP3    H141153   0.380   1.377  14.769  0.5966 -0.4600  0.8231
 6554TIP3    H241154   0.515   1.402  14.705 -0.3963  1.9791 -0.4573
 6555TIP3   OH241155   6.222   2.564   3.257  0.3137  0.0806  0.2043
 6555TIP3    H141156   6.222   2.654   3.225 -1.5647 -0.8741 -2.8489
 6555TIP3    H241157   6.188   2.571   3.347 -0.6223  2.3196 -0.2644
 6556TIP3   OH241158   5.383   0.686   2.961 -0.7227  0.2374  0.1548
 6556TIP3    H141159   5.330   0.751   3.008  0.2173  2.0374 -1.1329
 6556TIP3    H241160   5.436   0.738   2.901  0.8070 -1.6909 -0.2506
 6557TIP3   OH241161   1.386   2.862  14.152  0.1691  0.0139  0.4096
 6557TIP3    H141162   1.315   2.819  14.200 -0.1192  0.8487  0.7508
 6557TIP3    H241163   1.393   2.812  14.071 -1.4460  0.4542 -0.0471
 6558TIP3   OH241164   3.491   0.570   2.823  0.4676 -0.1173  0.0518
 6558TIP3    H141165   3.410   0.548   2.777 -1.0657  1.1376  1.9678
 6558TIP3    H241166   3.517   0.488   2.865 -0.2112 -0.3788 -0.0182
 6559TIP3   OH241167   1.231   4.606   0.649  0.3093  0.4612  0.0464
 6559TIP3    H141168   1.139   4.610   0.678  0.5632  0.5383  0.8760
 6559TIP3    H241169   1.255   4.697   0.634  0.4959  0.5141  0.6473
 6560TIP3   OH241170   0.393   3.946   0.595 -0.1451  0.4067 -0.1613
 6560TIP3    H141171   0.376   3.853   0.611 -1.0799  0.8044  1.3551
 6560TIP3    H241172   0.479   3.948   0.553 -0.9149 -1.2609 -1.9815
 6561TIP3   OH241173   2.819   2.364   4.903 -0.4771 -0.1615 -0.0578
 6561TIP3    H141174   2.907   2.364   4.865 -0.0796  4.0872  0.3049
 6561TIP3    H241175   2.832   2.345   4.996  0.4308  2.0413  0.3337
 6562TIP3   OH241176   3.379   0.071   2.322 -0.6951  0.3988  0.1766
 6562TIP3    H141177   3.454   0.014   2.339 -0.6535  0.1338 -0.8207
 6562TIP3    H241178   3.334   0.030   2.248 -0.2535  2.0200 -1.0522
 6563TIP3   OH241179   6.431   0.968  17.053  0.3567  0.2364  0.7836
 6563TIP3    H141180   6.421   1.061  17.037 -1.8215  0.0704  0.8836
 6563TIP3    H241181   6.485   0.963  17.132  2.3897  1.2934 -0.4495
 6564TIP3   OH241182   3.753   2.952   1.065  0.4846 -0.2145 -0.7100
 6564TIP3    H141183   3.808   2.924   1.139  1.6424  0.6286 -1.2284
 6564TIP3    H241184   3.701   2.874   1.044 -0.7243 -0.1418  1.7111
 6565TIP3   OH241185   2.166   1.348   4.176 -0.1397  0.0884  0.1952
 6565TIP3    H141186   2.091   1.359   4.118 -0.0948  2.8230  0.5423
 6565TIP3    H241187   2.234   1.309   4.121 -1.2226 -0.7292 -0.5876
 6566TIP3   OH241188   3.592   3.020   5.280  0.4830  0.3103 -0.3808
 6566TIP3    H141189   3.668   3.061   5.239 -0.1633  0.8746 -1.0420
 6566TIP3    H241190   3.583   3.066   5.364  2.2104 -1.3116  0.7562
 6567TIP3   OH241191   1.315   3.665   3.342  0.3011 -0.2233  0.1839
 6567TIP3    H141192   1.268   3.638   3.263  0.0268 -0.4203  0.4153
 6567TIP3    H241193   1.305   3.760   3.344 -2.5009 -0.4366  1.7131
 6568TIP3   OH241194   2.933   0.971   4.097 -0.2808 -0.3937 -0.2667
 6568TIP3    H141195   2.996   0.947   4.165  0.7697  2.5380 -0.0762
 6568TIP3    H241196   2.875   0.894   4.090  0.4728 -1.4031  2.8449
 6569TIP3   OH241197   6.329   1.521  13.343 -0.1357  0.0022  0.0011
 6569TIP3    H141198   6.243   1.533  13.382 -0.0062  1.1612 -0.0537
 6569TIP3    H241199   6.351   1.606  13.305  0.5701 -0.5670 -0.9224
 6570TIP3   OH241200   5.020   4.814   0.461  0.0074 -0.4721 -0.0523
 6570TIP3    H141201   4.956   4.758   0.418 -1.3984  1.5187 -0.6911
 6570TIP3    H241202   5.043   4.879   0.395  1.6801 -0.3338  0.6216
 6571TIP3   OH241203   5.377   5.282  13.203  0.4185 -0.0175 -0.4887
 6571TIP3    H141204   5.284   5.303  13.212  0.0395 -0.9800 -1.6917
 6571TIP3    H241205   5.416   5.361  13.168 -0.1628  0.0849 -0.9403
 6572TIP3   OH241206   0.548   1.260  13.294 -0.7568  0.1285  0.1796
 6572TIP3    H141207   0.519   1.192  13.233 -1.0741  0.3160  0.1145
 6572TIP3    H241208   0.517   1.342  13.255 -0.7060  0.2753  0.4433
 6573TIP3   OH241209   6.538   1.763   5.541 -0.6858 -0.3256 -0.2941
 6573TIP3    H141210   6.607   1.759   5.607 -0.5752  1.8776 -0.2141
 6573TIP3    H241211   6.459   1.734   5.586 -0.6637  1.3761  0.9403
 6574TIP3   OH241212   4.276   6.562   0.975 -0.3345  0.4381 -0.1482
 6574TIP3    H141213   4.318   6.480   0.948 -1.4253  0.1344 -1.0171
 6574TIP3    H241214   4.348   6.619   1.000  0.4382 -0.9200  0.8855
 6575TIP3   OH241215   0.947   5.244  15.344  0.1258  0.2306  0.0507
 6575TIP3    H141216   0.920   5.180  15.278 -0.4841 -0.3023  0.7962
 6575TIP3    H241217   1.041   5.255  15.331  0.4021 -1.4117  0.3968
 6576TIP3   OH241218   1.214   5.581  16.468 -0.6880  0.2018  0.5574
 6576TIP3    H141219   1.292   5.622  16.428  0.0280 -0.7438  0.9503
 6576TIP3    H241220   1.247   5.543  16.550 -1.6050 -0.0831  0.7985
 6577TIP3   OH241221   0.064   3.837   2.420  0.0362  0.1389 -0.4111
 6577TIP3    H141222   0.158   3.849   2.407  0.1114  0.3370  0.3117
 6577TIP3    H241223   0.032   3.813   2.333  1.2185 -3.1676 -0.0471
 6578TIP3   OH241224   4.872   6.377  15.618  0.1345  0.0165  0.5447
 6578TIP3    H141225   4.919   6.294  15.610 -0.9057 -0.6430  1.0888
 6578TIP3    H241226   4.872   6.396  15.711 -0.2308  0.2733  0.4932
 6579TIP3   OH241227   4.084   5.512   2.825 -0.0084 -0.0101  0.0964
 6579TIP3    H141228   4.162   5.460   2.810  0.0621 -0.1986  1.0541
 6579TIP3    H241229   4.035   5.508   2.742  1.4738  0.9635 -0.8724
 6580TIP3   OH241230   2.815   3.869  15.805  0.4040 -0.3247 -0.3941
 6580TIP3    H141231   2.835   3.776  15.813 -1.5129 -0.6247  3.1295
 6580TIP3    H241232   2.900   3.913  15.805  1.3574 -2.0044 -2.6462
 6581TIP3   OH241233   4.324   5.016  15.478 -0.5386  0.2506 -0.1577
 6581TIP3    H141234   4.345   5.017  15.572  0.4458  0.6734 -0.3759
 6581TIP3    H241235   4.373   4.942  15.444  1.0612  1.5375 -0.7592
 6582TIP3   OH241236   6.662   5.132  17.139  0.1212 -0.1041  0.0242
 6582TIP3    H141237   6.677   5.211  17.087 -2.0866  0.0839 -0.4161
 6582TIP3    H241238   6.593   5.085  17.091  0.4348 -1.6210  1.0106
 6583TIP3   OH241239   4.286   1.603   1.473 -0.1063  0.0462 -0.5433
 6583TIP3    H141240   4.303   1.697   1.467 -2.4835  0.4748 -1.8764
 6583TIP3    H241241   4.232   1.594   1.552  1.1216 -0.3980  0.2602
 6584TIP3   OH241242   0.555   3.917  17.152  0.0591 -0.0610 -0.1446
 6584TIP3    H141243   0.571   3.910  17.247  0.7945  1.1038 -0.1695
 6584TIP3    H241244   0.577   4.007  17.131  0.4227 -0.4586 -1.5321
 6585TIP3   OH241245   3.462   4.834   6.241  0.0916 -0.9613 -1.0579
 6585TIP3    H141246   3.473   4.894   6.314  0.0320 -1.6261 -0.4877
 6585TIP3    H241247   3.538   4.777   6.245  1.2694  0.3715 -2.8802
 6586TIP3   OH241248   5.650   0.779  16.723  0.0417  0.0538 -0.2539
 6586TIP3    H141249   5.603   0.706  16.682 -0.5125  0.0037  0.4396
 6586TIP3    H241250   5.727   0.792  16.668  0.4475 -1.4146 -0.0886
 6587TIP3   OH241251   1.966   1.936   5.744 -0.4302  0.1735  0.4351
 6587TIP3    H141252   1.959   1.925   5.839  0.3892  1.5176  0.6763
 6587TIP3    H241253   2.038   1.998   5.732  0.6283 -1.2733 -1.1584
 6588TIP3   OH241254   0.854   2.090   3.362  0.1872  0.3895  0.7387
 6588TIP3    H141255   0.790   2.067   3.295  0.6703  1.7495 -0.2378
 6588TIP3    H241256   0.863   2.011   3.415  0.5608 -1.1184 -1.4209
 6589TIP3   OH241257   3.655   4.641  16.166 -0.2476  0.3893  0.5757
 6589TIP3    H141258   3.651   4.604  16.254  1.0369  3.2754  1.9972
 6589TIP3    H241259   3.564   4.644  16.136 -0.7768 -0.0438  2.0898
 6590TIP3   OH241260   5.158   1.617   5.575  0.3396  0.2735  0.3028
 6590TIP3    H141261   5.144   1.680   5.504  0.4277  0.5873  0.5640
 6590TIP3    H241262   5.162   1.670   5.654 -1.0210 -0.1768  0.7097
 6591TIP3   OH241263   5.681   4.318  16.862 -0.8359  0.2932  0.1532
 6591TIP3    H141264   5.749   4.306  16.795  1.6960 -1.4529  2.8198
 6591TIP3    H241265   5.622   4.244  16.849 -1.4204  0.9662 -1.2193
 6592TIP3   OH241266   1.118   6.594   4.175 -0.0899 -0.4008  0.1667
 6592TIP3    H141267   1.144   6.513   4.218  0.3967 -0.7651 -0.7833
 6592TIP3    H241268   1.140   6.663   4.238  1.0763 -0.8817  0.3108
 6593TIP3   OH241269   1.486   2.427  16.523  0.3339  0.3052 -0.2220
 6593TIP3    H141270   1.479   2.486  16.598  0.2427  0.5847 -0.4465
 6593TIP3    H241271   1.542   2.356  16.553  0.4685  0.5222  0.0412
 6594TIP3   OH241272   5.376   6.519   2.000  0.0517  0.3288 -0.1902
 6594TIP3    H141273   5.438   6.460   2.045 -0.8420  0.6631  1.5685
 6594TIP3    H241274   5.302   6.463   1.979 -0.9915  0.8267  1.8810
 6595TIP3   OH241275   5.581   6.743   4.209  0.5828 -0.0027 -0.4925
 6595TIP3    H141276   5.559   6.717   4.298  0.5447  0.0434 -0.4884
 6595TIP3    H241277   5.502   6.725   4.158  1.2114 -1.8639 -0.9068
 6596TIP3   OH241278   4.674   6.712   3.404 -0.0869 -0.1339 -0.2301
 6596TIP3    H141279   4.599   6.710   3.463 -0.4163 -0.6673 -0.6566
 6596TIP3    H241280   4.711   6.800   3.416  0.5010 -0.5967  1.5435
 6597TIP3   OH241281   1.480   1.802  12.308 -0.1714  0.0289  0.3320
 6597TIP3    H141282   1.445   1.796  12.219  1.2800 -1.3495 -0.1947
 6597TIP3    H241283   1.436   1.878  12.346  1.2563  2.5109 -2.5278
 6598TIP3   OH241284   0.190   1.298  13.248 -0.1420  0.0272 -0.0590
 6598TIP3    H141285   0.241   1.239  13.305 -0.6975 -0.0877  0.3267
 6598TIP3    H241286   0.225   1.282  13.160 -2.8419 -3.8690 -0.6869
 6599TIP3   OH241287   5.279   3.155  16.894  0.3546  0.5102 -0.4052
 6599TIP3    H141288   5.211   3.089  16.908 -0.4022  1.4506  0.4686
 6599TIP3    H241289   5.281   3.167  16.800 -0.5936  0.3651 -0.4544
 6600TIP3   OH241290   0.477   4.771  14.239 -0.1407 -0.1160  0.5031
 6600TIP3    H141291   0.480   4.840  14.172  0.8457  0.6003  1.2550
 6600TIP3    H241292   0.509   4.813  14.318  0.0650 -1.3327  1.0847
 6601TIP3   OH241293   0.927   6.142   0.737  0.2191  0.4651 -0.0605
 6601TIP3    H141294   0.853   6.196   0.707  1.3036  1.5520 -0.8628
 6601TIP3    H241295   0.982   6.203   0.785  1.0666 -0.1194 -0.2838
 6602TIP3   OH241296   1.603   0.438   4.294 -0.1107  0.2278 -0.3527
 6602TIP3    H141297   1.696   0.463   4.290  0.4403 -1.7579 -1.2665
 6602TIP3    H241298   1.566   0.497   4.360  1.6981  1.3339 -0.2285
 6603TIP3   OH241299   3.795   0.887  16.554 -0.0658 -0.1508  0.0040
 6603TIP3    H141300   3.704   0.864  16.574  0.0724 -0.4758  0.2769
 6603TIP3    H241301   3.790   0.974  16.517 -0.3551  0.4875  1.4526
 6604TIP3   OH241302   3.960   1.013  14.476 -1.0258 -0.0266  0.3422
 6604TIP3    H141303   4.003   0.934  14.509 -2.0898 -0.3956  0.8799
 6604TIP3    H241304   3.942   1.066  14.553  0.5268  1.2154 -0.0949
 6605TIP3   OH241305   4.294   2.687  14.861 -0.2698  0.9690 -0.0312
 6605TIP3    H141306   4.315   2.625  14.931  1.5299  2.5062  0.8722
 6605TIP3    H241307   4.371   2.687  14.805 -0.7887  1.4325 -0.7613
 6606TIP3   OH241308   2.106   2.786   0.223  0.0822 -0.3464  0.0832
 6606TIP3    H141309   2.124   2.776   0.317  2.6769  0.5991 -0.2239
 6606TIP3    H241310   2.182   2.747   0.180 -0.5459  0.1886 -1.6103
 6607TIP3   OH241311   4.945   2.094  14.413  0.5552  0.8234 -0.3141
 6607TIP3    H141312   5.024   2.072  14.463 -0.0830  0.6092  0.6299
 6607TIP3    H241313   4.942   2.029  14.344 -0.4743 -1.2064  1.5177
 6608TIP3   OH241314   3.273   0.788  14.402  0.4989 -0.0379 -0.3495
 6608TIP3    H141315   3.293   0.780  14.495 -0.5378  0.4068 -0.0728
 6608TIP3    H241316   3.344   0.742  14.358  0.5528 -0.9827  0.6965
 6609TIP3   OH241317   0.097   4.306  16.216 -0.4340 -0.3901  0.1076
 6609TIP3    H141318   0.170   4.366  16.231  1.2306 -2.1757 -0.3774
 6609TIP3    H241319   0.094   4.296  16.121 -2.2310  0.6877  0.0242
 6610TIP3   OH241320   3.574   4.984  14.629  0.0414 -0.0423 -0.2075
 6610TIP3    H141321   3.576   5.027  14.543 -1.1281  1.8386  0.6439
 6610TIP3    H241322   3.665   4.981  14.656  0.3385  0.1540 -1.1388
 6611TIP3   OH241323   3.199   0.626   6.753 -0.3470  0.3538 -0.0005
 6611TIP3    H141324   3.142   0.609   6.678 -1.6874  1.6953  0.6547
 6611TIP3    H241325   3.287   0.635   6.716 -0.5450 -1.5942 -1.0667
 6612TIP3   OH241326   5.229   3.144   4.755  0.0618  0.0093  0.0475
 6612TIP3    H141327   5.177   3.068   4.783 -0.1119  0.4859  1.0367
 6612TIP3    H241328   5.256   3.122   4.666 -0.1674 -1.1237  0.2391
 6613TIP3   OH241329   3.919   2.587  13.659  0.5159 -0.2118  0.3832
 6613TIP3    H141330   3.844   2.595  13.718  0.9162  1.7856  0.6961
 6613TIP3    H241331   3.995   2.578  13.716  0.8497  1.2083  0.2018
 6614TIP3   OH241332   0.898   0.130   4.971  0.0181 -0.3133 -0.1047
 6614TIP3    H141333   0.885   0.224   4.963 -1.6792 -0.5714 -0.8201
 6614TIP3    H241334   0.884   0.111   5.063  0.1493  0.0935 -0.0010
 6615TIP3   OH241335   4.010   6.569  10.894  0.6240 -0.0671  0.6121
 6615TIP3    H141336   3.961   6.648  10.870  2.0708  0.5577 -0.4454
 6615TIP3    H241337   4.025   6.578  10.988  0.8399  0.9782  0.4950
 6616TIP3   OH241338   6.032   2.385  16.449  0.5130  0.1908 -0.3021
 6616TIP3    H141339   6.028   2.377  16.544  2.0256  0.7149 -0.1659
 6616TIP3    H241340   6.041   2.295  16.418  1.6313  0.1067  0.1848
 6617TIP3   OH241341   6.795   3.246   4.944  0.1575 -0.5805  0.9954
 6617TIP3    H141342   6.867   3.305   4.967  0.0320  0.8601 -1.8611
 6617TIP3    H241343   6.725   3.269   5.006  0.6687  1.1897  0.9839
 6618TIP3   OH241344   3.477   1.259  16.690 -0.5609  0.8034  0.0304
 6618TIP3    H141345   3.455   1.166  16.687 -0.5812  0.7915  0.4886
 6618TIP3    H241346   3.563   1.265  16.650 -1.0493  0.7430 -1.0602
 6619TIP3   OH241347   4.474   3.502  11.006  0.2900 -0.2986 -0.1914
 6619TIP3    H141348   4.532   3.426  10.995  1.4947  0.4727  0.6006
 6619TIP3    H241349   4.518   3.572  10.958  0.5171  0.5377  1.1866
 6620TIP3   OH241350   0.748   6.392  10.911  0.2262  0.0802  0.3352
 6620TIP3    H141351   0.800   6.423  10.985  0.9813  0.9853 -0.5403
 6620TIP3    H241352   0.810   6.391  10.838 -1.0087  1.2414 -0.7611
 6621TIP3   OH241353   2.599   1.455  13.350  0.5714 -0.1710 -0.5180
 6621TIP3    H141354   2.684   1.452  13.306  0.8672 -0.1357  0.0401
 6621TIP3    H241355   2.572   1.546  13.344 -0.5948 -0.6065 -2.8517
 6622TIP3   OH241356   2.464   6.690  14.707 -0.1958 -0.1790  0.0804
 6622TIP3    H141357   2.371   6.713  14.715 -0.1466  0.5515 -1.1645
 6622TIP3    H241358   2.472   6.605  14.750 -1.0331  0.6823  2.0265
 6623TIP3   OH241359   2.918   1.639  11.523 -0.1862  0.3221  0.1906
 6623TIP3    H141360   2.826   1.664  11.509  0.0051  0.3250 -1.2197
 6623TIP3    H241361   2.928   1.636  11.618 -1.8552 -0.4418  0.3778
 6624TIP3   OH241362   1.262   3.977   2.602  0.6514  0.3734  0.0377
 6624TIP3    H141363   1.241   3.972   2.695 -0.1973  2.1572 -0.0219
 6624TIP3    H241364   1.187   4.021   2.562  1.4788  0.6475 -1.3166
 6625TIP3   OH241365   6.085   1.171  12.303  0.4689 -0.1619  0.2595
 6625TIP3    H141366   6.159   1.193  12.247  0.0769 -0.3906 -0.3576
 6625TIP3    H241367   6.015   1.146  12.242  0.5645 -2.1216  0.8970
 6626TIP3   OH241368   3.964   1.208  12.849  0.1444  0.3155 -0.1570
 6626TIP3    H141369   4.006   1.200  12.763  1.9419  0.6373  0.6525
 6626TIP3    H241370   3.935   1.299  12.853 -0.0810  0.2607 -0.4635
 6627TIP3   OH241371   1.506   5.478   5.202  0.0754 -0.0268 -0.4622
 6627TIP3    H141372   1.570   5.413   5.174 -0.0093 -0.6721  0.8138
 6627TIP3    H241373   1.555   5.560   5.209  0.6366 -0.3991 -0.0464
 6628TIP3   OH241374   0.579   6.256  12.855  0.1954  0.4923 -0.0188
 6628TIP3    H141375   0.484   6.246  12.854  0.2495 -0.1084  0.3352
 6628TIP3    H241376   0.596   6.328  12.795 -0.4766  0.5423 -0.1578
 6629TIP3   OH241377   0.195   2.819   0.274  0.7048  0.4003 -0.0177
 6629TIP3    H141378   0.113   2.807   0.225 -0.3702  1.6976  1.3541
 6629TIP3    H241379   0.262   2.779   0.219 -1.1297 -2.8749 -0.1574
 6630TIP3   OH241380   4.014   6.025   1.446  0.3118  0.5896  0.6717
 6630TIP3    H141381   4.070   6.101   1.434  1.2773 -0.5525 -3.8557
 6630TIP3    H241382   3.927   6.055   1.420  0.2640  0.6515  0.9034
 6631TIP3   OH241383   1.787   2.224   5.700 -0.6005  0.0654  0.2611
 6631TIP3    H141384   1.786   2.128   5.704 -0.7298  0.1132  1.8715
 6631TIP3    H241385   1.830   2.251   5.781 -0.5063  1.3783 -0.2072
 6632TIP3   OH241386   3.340   2.138  11.487 -0.3860  0.1537 -0.2337
 6632TIP3    H141387   3.270   2.077  11.464  0.0510  0.9097 -4.3946
 6632TIP3    H241388   3.295   2.220  11.505 -0.6850 -0.0400 -0.0811
 6633TIP3   OH241389   2.725   3.209   0.633  0.3897 -0.2012  0.2721
 6633TIP3    H141390   2.736   3.277   0.567 -1.5278 -0.1383 -0.0422
 6633TIP3    H241391   2.646   3.162   0.607  0.2092 -0.8892  1.9049
 6634TIP3   OH241392   1.471   0.907  15.889  0.0276 -0.1768  0.1319
 6634TIP3    H141393   1.501   0.848  15.821 -1.0245 -0.3322 -0.2181
 6634TIP3    H241394   1.521   0.882  15.967  0.4457 -0.7254 -0.3081
 6635TIP3   OH241395   1.515   3.146   5.785  0.1226  0.6042 -0.1250
 6635TIP3    H141396   1.535   3.156   5.878  0.0606  0.4582 -0.0962
 6635TIP3    H241397   1.420   3.150   5.781  0.1559  1.6029 -0.2934
 6636TIP3   OH241398   5.830   4.370   4.560 -0.2218 -0.2350  0.0311
 6636TIP3    H141399   5.751   4.317   4.548 -1.4350  1.6954 -1.1808
 6636TIP3    H241400   5.872   4.370   4.475 -1.1588  1.9979 -0.5166
 6637TIP3   OH241401   2.980   4.377  15.171  0.1494  0.2344  0.4161
 6637TIP3    H141402   2.914   4.439  15.200  0.5748  0.1720  1.5504
 6637TIP3    H241403   2.934   4.323  15.106 -0.8237  0.3782  0.9600
 6638TIP3   OH241404   3.008   5.694   3.600  0.5614 -0.0184  0.2373
 6638TIP3    H141405   3.069   5.766   3.588  1.9811 -1.1750  0.2966
 6638TIP3    H241406   2.976   5.704   3.690 -0.1318  1.1629 -0.1176
 6639TIP3   OH241407   2.757   1.953   2.584 -0.1921 -0.1242  0.0652
 6639TIP3    H141408   2.740   2.045   2.562 -1.7555 -0.3636  0.1553
 6639TIP3    H241409   2.671   1.917   2.603  0.3335 -1.7509 -0.4670
 6640TIP3   OH241410   3.448   5.016  15.797 -0.4955  0.5503 -0.9852
 6640TIP3    H141411   3.390   4.955  15.751 -1.9027  2.3108 -1.6656
 6640TIP3    H241412   3.520   5.032  15.736  0.6375 -1.4048 -0.2592
 6641TIP3   OH241413   3.453   0.346   4.100  0.0775  0.1676  0.1687
 6641TIP3    H141414   3.494   0.367   4.184  1.1738 -0.2748 -0.2255
 6641TIP3    H241415   3.501   0.269   4.070 -1.6665 -0.9245  0.0796
 6642TIP3   OH241416   0.472   2.624   0.837 -0.2877 -0.0664 -0.5541
 6642TIP3    H141417   0.394   2.618   0.782 -0.2861  1.0617 -0.6865
 6642TIP3    H241418   0.443   2.671   0.915  0.8082  2.7676 -1.7222
 6643TIP3   OH241419   6.220   3.308  16.726 -0.1104  0.2470  0.0236
 6643TIP3    H141420   6.295   3.314  16.667 -0.3742 -0.3495 -0.3915
 6643TIP3    H241421   6.198   3.214  16.726  0.1665  0.1696  1.4273
 6644TIP3   OH241422   5.744   1.111   3.272  0.2725  0.5333  0.1220
 6644TIP3    H141423   5.824   1.149   3.307  1.6394  1.2970 -3.3629
 6644TIP3    H241424   5.774   1.041   3.213 -1.5258  1.1393 -1.6462
 6645TIP3   OH241425   0.434   0.016   0.094 -0.3437 -0.3251 -0.4279
 6645TIP3    H141426   0.354  -0.037   0.098  0.5846 -1.7529  0.0472
 6645TIP3    H241427   0.470  -0.002   0.007 -1.0813  1.2036 -1.0913
 6646TIP3   OH241428   0.916   1.049  11.344 -0.1781  0.5865 -0.0148
 6646TIP3    H141429   0.918   1.046  11.248  0.6394  0.4138 -0.0033
 6646TIP3    H241430   0.893   0.961  11.371  0.3307  0.4377 -0.0488
 6647TIP3   OH241431   3.490   0.823  12.344 -0.1993 -0.1165  0.0691
 6647TIP3    H141432   3.414   0.776  12.310  0.0627  0.3066 -1.1350
 6647TIP3    H241433   3.555   0.820  12.274  0.2057  1.1326  0.3537
 6648TIP3   OH241434   1.200   3.556  12.446  0.4135 -0.4096  0.2534
 6648TIP3    H141435   1.244   3.639  12.465 -0.1771 -0.5869  2.7198
 6648TIP3    H241436   1.263   3.489  12.474 -0.1071 -0.7245  0.6836
 6649TIP3   OH241437   4.581   4.158  10.415  0.1680  0.4019  0.1782
 6649TIP3    H141438   4.619   4.156  10.503 -2.0662  0.9401  1.2135
 6649TIP3    H241439   4.624   4.233  10.373  1.6909 -0.2148  0.5489
 6650TIP3   OH241440   1.403   1.345  12.754  0.2380  0.1010  1.0223
 6650TIP3    H141441   1.431   1.276  12.814  0.1277 -1.2840 -0.4475
 6650TIP3    H241442   1.484   1.389  12.728  0.7163 -1.5510 -0.4390
 6651TIP3   OH241443   6.679   3.900   2.836  0.5065 -0.4164  0.3997
 6651TIP3    H141444   6.715   3.969   2.892  1.0337  0.2277 -0.6937
 6651TIP3    H241445   6.743   3.829   2.841  1.0950  0.0553 -0.1928
 6652TIP3   OH241446   3.904   2.736  16.792 -0.0504 -0.7764 -0.7091
 6652TIP3    H141447   3.877   2.817  16.748  1.8453  0.8931  0.9697
 6652TIP3    H241448   3.824   2.706  16.835 -0.5897  0.8439 -0.4800
 6653TIP3   OH241449   1.169   3.987   5.054 -0.3511  0.1242 -0.3470
 6653TIP3    H141450   1.078   4.015   5.057 -0.8381 -1.2542  3.4205
 6653TIP3    H241451   1.165   3.892   5.045  0.5775 -0.0918  1.1595
 6654TIP3   OH241452   0.930   6.008  13.475 -0.0463  0.8399  0.7028
 6654TIP3    H141453   0.990   5.949  13.521  0.5954  1.6527  0.9273
 6654TIP3    H241454   0.849   6.004  13.527 -0.3310 -0.5421  0.1894
 6655TIP3   OH241455   5.796   3.067   2.629 -0.1031 -0.2344 -0.4352
 6655TIP3    H141456   5.709   3.054   2.667 -1.6055  0.5068 -3.3545
 6655TIP3    H241457   5.824   2.978   2.605 -0.9309 -0.3154 -1.1819
 6656TIP3   OH241458   0.779   5.978   2.416 -0.0659 -0.0175 -0.0899
 6656TIP3    H141459   0.834   6.024   2.480  0.1136  0.7666 -0.7867
 6656TIP3    H241460   0.805   5.886   2.424  0.0323  0.0830  0.8768
 6657TIP3   OH241461   0.134   3.516  13.586 -0.4045 -0.2642 -0.3559
 6657TIP3    H141462   0.095   3.587  13.535  1.3919 -0.0264 -1.4872
 6657TIP3    H241463   0.214   3.494  13.539  1.4847  0.0942  2.4596
 6658TIP3   OH241464   0.162   2.743  10.993 -0.4220  0.3671 -0.1517
 6658TIP3    H141465   0.209   2.814  10.948  0.1209  0.3520  0.3804
 6658TIP3    H241466   0.198   2.743  11.081  0.8132 -1.6950 -0.6073
 6659TIP3   OH241467   1.563   1.418   2.888  0.4655  0.3248  0.7361
 6659TIP3    H141468   1.568   1.512   2.904 -0.1177  0.4315  0.3118
 6659TIP3    H241469   1.485   1.390   2.934 -0.8904  0.5264 -1.3069
 6660TIP3   OH241470   3.338   5.857  13.806  0.6228 -0.1449 -0.1454
 6660TIP3    H141471   3.313   5.919  13.875 -0.5075  0.5239 -1.1148
 6660TIP3    H241472   3.283   5.780  13.823 -1.4789  0.9181 -1.6375
 6661TIP3   OH241473   2.636   0.512  15.990  0.0353 -0.2045 -0.1034
 6661TIP3    H141474   2.564   0.457  15.959 -0.5288  0.3701  0.1775
 6661TIP3    H241475   2.696   0.450  16.031  0.2560 -0.8311 -1.3156
 6662TIP3   OH241476   1.874   1.750   4.527 -0.4017 -0.7834  0.8187
 6662TIP3    H141477   1.825   1.811   4.471  2.1128 -0.3571 -1.0645
 6662TIP3    H241478   1.893   1.801   4.606 -0.1902  0.1399  0.1848
 6663TIP3   OH241479   2.192   4.978  11.466 -0.0219  0.5082  0.1971
 6663TIP3    H141480   2.141   4.904  11.433  1.1779 -0.4259  0.3998
 6663TIP3    H241481   2.147   5.004  11.547 -0.5269  0.0819  0.0557
 6664TIP3   OH241482   0.404   5.631  10.829 -0.6183 -0.1685  0.4557
 6664TIP3    H141483   0.487   5.648  10.784 -0.8529 -0.2677 -0.0174
 6664TIP3    H241484   0.351   5.709  10.811 -0.7002 -0.1952  0.5839
 6665TIP3   OH241485   2.957   4.147   1.238 -0.2477 -0.3397 -0.0852
 6665TIP3    H141486   2.975   4.230   1.193  0.2795 -0.2326  0.3071
 6665TIP3    H241487   2.926   4.173   1.325  0.7557 -0.5471  0.3462
 6666TIP3   OH241488   4.775   5.737   5.691 -0.1182 -0.2454  0.0988
 6666TIP3    H141489   4.728   5.658   5.718  0.4545 -0.5783  0.1535
 6666TIP3    H241490   4.721   5.809   5.720 -1.8839 -0.5991 -2.0629
 6667TIP3   OH241491   0.816   4.809  10.902 -0.1315  0.3831  0.1529
 6667TIP3    H141492   0.861   4.893  10.898  0.3633  0.0767 -2.2018
 6667TIP3    H241493   0.881   4.748  10.935  0.3466  0.4436 -0.6660
 6668TIP3   OH241494   2.442   4.627   4.155  0.5612 -0.1613  0.0085
 6668TIP3    H141495   2.378   4.624   4.226 -0.6172 -0.3721 -1.0411
 6668TIP3    H241496   2.391   4.618   4.075  1.9279 -0.6468 -0.8566
 6669TIP3   OH241497   1.903   4.837   1.968  0.0156 -0.6750  0.2527
 6669TIP3    H141498   1.975   4.895   1.994 -1.2600  0.9015  0.4203
 6669TIP3    H241499   1.884   4.784   2.046 -0.4160  0.4355  0.9223
 6670TIP3   OH241500   2.332   0.732  11.639 -0.4124 -0.0681  0.1302
 6670TIP3    H141501   2.263   0.778  11.591 -0.9074  0.1386  1.0021
 6670TIP3    H241502   2.291   0.651  11.669 -0.8253  0.7696  2.0154
 6671TIP3   OH241503   5.345   6.689   4.063 -0.3569 -0.5833 -0.4180
 6671TIP3    H141504   5.254   6.686   4.095 -0.2518  0.7951  0.0961
 6671TIP3    H241505   5.337   6.680   3.968 -0.6577 -5.0104 -0.1620
 6672TIP3   OH241506   4.599   3.187   3.427  0.3665 -0.1661  0.1188
 6672TIP3    H141507   4.544   3.262   3.446  2.2277  0.9450  1.4363
 6672TIP3    H241508   4.610   3.143   3.511  1.5784 -0.2717 -0.0722
 6673TIP3   OH241509   5.207   5.294   6.412 -0.6959 -0.4792 -0.5494
 6673TIP3    H141510   5.146   5.295   6.339  0.8684 -0.8527 -1.9159
 6673TIP3    H241511   5.185   5.215   6.461 -1.4044 -0.5296 -0.9465
 6674TIP3   OH241512   2.434   3.989  13.399 -0.0976  0.7838 -0.1089
 6674TIP3    H141513   2.359   4.022  13.349  0.0491  1.8634  0.3644
 6674TIP3    H241514   2.502   3.975  13.333 -0.6894 -0.1801 -0.5384
 6675TIP3   OH241515   6.602   1.911  15.322 -0.1369  0.6919  0.1920
 6675TIP3    H141516   6.685   1.930  15.365  0.5699 -0.4570 -0.5887
 6675TIP3    H241517   6.551   1.863  15.387  0.8594 -0.8917 -0.1247
 6676TIP3   OH241518   4.808   0.105  16.744 -0.2622  0.4165 -0.3360
 6676TIP3    H141519   4.836   0.172  16.682  1.4537 -0.3748 -0.4736
 6676TIP3    H241520   4.876   0.105  16.812 -0.0405 -1.3906 -0.5115
 6677TIP3   OH241521   0.062   6.776  12.550 -0.7572 -0.0382 -0.2176
 6677TIP3    H141522   0.101   6.689  12.546 -0.2137  0.1780  0.2683
 6677TIP3    H241523   0.108   6.826  12.483 -1.3227 -0.2151 -0.7505
 6678TIP3   OH241524   6.302   6.263   0.735 -0.1416  0.2040 -0.1127
 6678TIP3    H141525   6.386   6.263   0.780 -0.2696  0.0101  0.1326
 6678TIP3    H241526   6.290   6.172   0.707 -1.0396 -0.1589  1.3368
 6679TIP3   OH241527   1.060   1.676  13.428  0.2390 -0.4298  0.0579
 6679TIP3    H141528   0.985   1.733  13.413 -1.2008 -2.1459  0.4611
 6679TIP3    H241529   1.095   1.659  13.341 -0.0969  0.0360 -0.1725
 6680TIP3   OH241530   0.865   2.293   2.148  0.2139 -0.6402 -0.8376
 6680TIP3    H141531   0.779   2.274   2.111 -0.9209 -0.5137  1.5067
 6680TIP3    H241532   0.854   2.277   2.242  2.8528 -0.9146 -0.4922
 6681TIP3   OH241533   3.472   3.813   0.264  0.3110  0.2140 -0.3857
 6681TIP3    H141534   3.501   3.810   0.173 -0.8326 -1.6671 -0.7219
 6681TIP3    H241535   3.380   3.839   0.259 -0.0015 -0.7750  0.1636
 6682TIP3   OH241536   2.888   4.784   3.308  0.1446  0.1899 -0.1054
 6682TIP3    H141537   2.933   4.723   3.367  1.6609  0.3478 -1.0319
 6682TIP3    H241538   2.949   4.794   3.234 -1.7870 -0.1922 -1.8248
 6683TIP3   OH241539   6.083   6.061   4.938 -0.0810 -0.0948  0.6265
 6683TIP3    H141540   6.071   6.056   5.033 -2.1804  0.0418  0.4149
 6683TIP3    H241541   6.144   6.133   4.925 -0.5686  0.5643  1.8379
 6684TIP3   OH241542   3.369   5.694  15.519 -0.0827 -0.2666 -0.5496
 6684TIP3    H141543   3.275   5.702  15.501 -0.6303 -2.3571  0.9879
 6684TIP3    H241544   3.384   5.600  15.527  1.8332  0.0802  0.6912
 6685TIP3   OH241545   4.928   1.500  11.227 -0.4252  0.1017  0.1616
 6685TIP3    H141546   4.911   1.575  11.170  0.9744 -0.0366 -0.4758
 6685TIP3    H241547   4.879   1.428  11.187  1.4486 -0.2811 -1.6054
 6686TIP3   OH241548   6.487   1.788  13.929  0.0733 -0.4249  0.0460
 6686TIP3    H141549   6.510   1.854  13.863  1.1007 -1.1287 -0.3371
 6686TIP3    H241550   6.392   1.780  13.923 -0.2161  1.7024  0.7795
 6687TIP3   OH241551   5.537   0.607  16.109  0.6623 -0.0476 -0.0825
 6687TIP3    H141552   5.507   0.516  16.117 -0.1978  0.2038 -0.3594
 6687TIP3    H241553   5.615   0.601  16.054  1.3983 -0.7645  0.9957
 6688TIP3   OH241554   1.662   3.209   3.655 -0.3738 -0.2691  0.1772
 6688TIP3    H141555   1.700   3.130   3.693 -0.8080  0.0015  1.1832
 6688TIP3    H241556   1.703   3.216   3.569  1.5073 -0.2628  1.0269
 6689TIP3   OH241557   5.522   6.157   0.397 -0.2556 -0.0600 -0.0337
 6689TIP3    H141558   5.486   6.204   0.472  0.1977 -0.0469  0.1728
 6689TIP3    H241559   5.576   6.221   0.352  2.1324 -0.9261  1.4392
 6690TIP3   OH241560   2.885   4.412   1.172  0.0306 -0.2903  0.1694
 6690TIP3    H141561   2.924   4.446   1.092  0.1193 -0.4044  0.1646
 6690TIP3    H241562   2.889   4.486   1.233 -1.5804  0.3440 -0.4470
 6691TIP3   OH241563   4.459   0.347   2.914 -0.6281 -0.1694 -0.0613
 6691TIP3    H141564   4.394   0.390   2.859 -1.3090  0.1006  0.9324
 6691TIP3    H241565   4.536   0.403   2.907 -0.6466 -0.2199 -0.8412
 6692TIP3   OH241566   4.759   5.376   3.330  0.3021 -0.5930  0.3752
 6692TIP3    H141567   4.832   5.438   3.322  1.0261 -1.4988 -0.2356
 6692TIP3    H241568   4.734   5.356   3.240 -2.5591  1.7591  0.4804
 6693TIP3   OH241569   0.820   4.071  16.756  0.1484  0.3992 -0.2183
 6693TIP3    H141570   0.728   4.047  16.765  0.4601 -0.6151  0.4696
 6693TIP3    H241571   0.864   3.987  16.740  1.1503  0.6592  1.0834
 6694TIP3   OH241572   4.829   4.873   4.120 -0.1085 -0.1859 -0.0228
 6694TIP3    H141573   4.877   4.956   4.114  1.5581 -1.0722  0.4836
 6694TIP3    H241574   4.813   4.862   4.214  1.4563 -1.3609  0.1517
 6695TIP3   OH241575   2.990   2.306   4.268  0.2736  0.2895  0.3921
 6695TIP3    H141576   3.080   2.314   4.302  0.8650 -0.8671 -0.8178
 6695TIP3    H241577   3.001   2.292   4.174 -1.2355  1.0271  0.0688
 6696TIP3   OH241578   5.707   5.557   1.468 -0.0236  0.5189 -0.4389
 6696TIP3    H141579   5.722   5.476   1.517 -0.4888 -0.6562 -2.1628
 6696TIP3    H241580   5.637   5.601   1.516 -0.4075 -0.5548  0.0152
 6697TIP3   OH241581   1.958   5.057   2.470 -0.0554 -0.0308  0.3142
 6697TIP3    H141582   1.925   5.145   2.490 -1.5697 -0.6781  0.8237
 6697TIP3    H241583   1.970   5.016   2.556  1.8303  0.0500  0.1347
 6698TIP3   OH241584   0.624   2.545  12.135  0.4556  0.2737 -0.1730
 6698TIP3    H141585   0.673   2.464  12.150 -0.7457 -0.6891 -1.2662
 6698TIP3    H241586   0.631   2.560  12.041 -2.4593 -0.6620 -0.6116
 6699TIP3   OH241587   3.634   1.896  12.130 -0.3606 -0.0171  0.1879
 6699TIP3    H141588   3.719   1.932  12.106 -0.1433 -0.6016  0.0624
 6699TIP3    H241589   3.616   1.932  12.217  0.1083 -0.0396  0.2974
 6700TIP3   OH241590   1.351   1.565  17.081 -0.1874 -0.0152 -0.7032
 6700TIP3    H141591   1.380   1.632  17.142  0.1250 -1.7396  1.1294
 6700TIP3    H241592   1.409   1.576  17.005  1.0576  0.6520  0.2988
 6701TIP3   OH241593   1.535   0.089  14.003 -0.0958 -0.2142 -0.1932
 6701TIP3    H141594   1.562   0.002  14.031 -0.2258  0.0604  0.8202
 6701TIP3    H241595   1.593   0.110  13.929  1.8264 -0.0467  1.2974
 6702TIP3   OH241596   5.961   5.605  13.997 -0.5899 -0.4488 -0.0854
 6702TIP3    H141597   5.995   5.692  14.017 -0.3462 -0.8879  1.5127
 6702TIP3    H241598   5.915   5.616  13.913 -0.2535  1.1199 -0.0947
 6703TIP3   OH241599   2.596   1.317   0.000 -0.6377  0.4791 -0.0999
 6703TIP3    H141600   2.543   1.326  -0.079 -1.6749 -0.9602  0.3728
 6703TIP3    H241601   2.679   1.281  -0.030 -1.0132 -0.0287 -0.5451
 6704TIP3   OH241602   2.582   1.345  14.862 -0.1875  0.0909 -0.3477
 6704TIP3    H141603   2.525   1.316  14.933 -0.5852  1.2176 -0.1778
 6704TIP3    H241604   2.670   1.336  14.897 -0.2999 -0.8200 -0.2835
 6705TIP3   OH241605   6.802   0.120   4.788 -0.1339 -0.0062  0.8904
 6705TIP3    H141606   6.796   0.212   4.814  1.0681  0.8301 -1.5244
 6705TIP3    H241607   6.896   0.103   4.778 -0.3865 -1.1933  0.2929
 6706TIP3   OH241608   5.728   1.011   2.353 -0.0197  0.3296  0.4508
 6706TIP3    H141609   5.804   1.001   2.296 -1.2408  1.1864 -1.4586
 6706TIP3    H241610   5.723   1.106   2.370  0.2072  0.1077  1.8557
 6707TIP3   OH241611   2.836   4.189   4.988  0.0588 -0.5615  0.1989
 6707TIP3    H141612   2.858   4.138   5.066  1.4813 -1.5125 -0.7766
 6707TIP3    H241613   2.909   4.250   4.978 -0.3851 -0.0718 -0.0897
 6708TIP3   OH241614   2.667   1.658  15.450  0.0736  0.3019  0.2051
 6708TIP3    H141615   2.614   1.732  15.421  2.0586  0.5256 -3.5578
 6708TIP3    H241616   2.628   1.582  15.406  1.3848  0.1144 -0.7107
 6709TIP3   OH241617   2.743   3.792  12.366  0.1186 -0.4453  0.4889
 6709TIP3    H141618   2.665   3.813  12.315  1.2198 -0.0782 -1.1482
 6709TIP3    H241619   2.723   3.707  12.406 -1.3297 -0.0735  0.6223
 6710TIP3   OH241620   2.449   6.389  14.350  0.1430 -0.6623  0.2302
 6710TIP3    H141621   2.388   6.315  14.338  1.6810 -2.0160  0.4017
 6710TIP3    H241622   2.535   6.348  14.359  0.9755  1.1426  0.9743
 6711TIP3   OH241623   2.173   2.913   4.375 -1.4854 -0.3645  0.5506
 6711TIP3    H141624   2.107   2.924   4.306  0.2744  1.7772 -0.9529
 6711TIP3    H241625   2.163   2.991   4.430 -1.8264 -1.2770  1.8201
 6712TIP3   OH241626   1.922   1.374   4.024 -0.6062  0.1160 -0.6235
 6712TIP3    H141627   1.838   1.333   4.049 -0.4431  0.0499 -0.1736
 6712TIP3    H241628   1.938   1.342   3.935 -1.2435  0.4262 -0.8551
 6713TIP3   OH241629   6.808   5.881  11.348  0.2865 -0.0976  0.2106
 6713TIP3    H141630   6.857   5.821  11.291 -2.0766 -0.8149 -1.2084
 6713TIP3    H241631   6.743   5.826  11.390  0.1698  0.9535  1.4678
 6714TIP3   OH241632   0.557   5.333   4.136  0.4040  0.4924 -0.6453
 6714TIP3    H141633   0.546   5.428   4.142 -1.4386  0.2391  2.9023
 6714TIP3    H241634   0.478   5.302   4.092 -0.5398  0.4841  0.9646
 6715TIP3   OH241635   5.609   0.047   5.615 -0.3005 -0.3154 -0.0581
 6715TIP3    H141636   5.622   0.115   5.549  0.3474  0.3026  0.6900
 6715TIP3    H241637   5.571   0.094   5.690 -1.3654 -1.0718 -0.1035
 6716TIP3   OH241638   4.434   4.110  14.298 -0.6102  0.5574 -0.2242
 6716TIP3    H141639   4.452   4.204  14.297  2.3678  0.2186  2.5613
 6716TIP3    H241640   4.465   4.078  14.213 -0.2794  1.9034 -0.6243
 6717TIP3   OH241641   5.850   1.893  16.182 -0.1823  0.3772 -0.0134
 6717TIP3    H141642   5.931   1.844  16.167 -0.7784 -0.0282 -2.3572
 6717TIP3    H241643   5.820   1.864  16.268  0.6350 -1.7338 -0.3749
 6718TIP3   OH241644   3.319   0.600  11.314  0.6695 -0.7628 -0.1757
 6718TIP3    H141645   3.358   0.597  11.227  3.0143 -0.5448  0.7743
 6718TIP3    H241646   3.348   0.684  11.351  1.7213 -1.8320  1.6096
 6719TIP3   OH241647   3.295   1.462   0.833 -0.9977  0.1579  0.2588
 6719TIP3    H141648   3.230   1.394   0.853 -0.3108 -0.7744 -0.5630
 6719TIP3    H241649   3.293   1.469   0.738 -0.3457  0.5705  0.2726
 6720TIP3   OH241650   3.871   4.083   0.174 -0.2673 -0.5866 -0.3316
 6720TIP3    H141651   3.876   4.107   0.266 -2.8964 -1.8700  0.2636
 6720TIP3    H241652   3.887   4.164   0.126  0.5359  0.2227  1.2705
 6721TIP3   OH241653   6.296   2.236   2.923 -0.0028 -0.9474 -0.4463
 6721TIP3    H141654   6.202   2.236   2.903  0.2179 -0.5450 -1.5895
 6721TIP3    H241655   6.334   2.181   2.855  0.8247  0.6195 -1.2977
 6722TIP3   OH241656   5.308   0.169   2.958  0.1009 -0.0075  0.2103
 6722TIP3    H141657   5.305   0.262   2.979 -0.3240  0.1121 -0.3490
 6722TIP3    H241658   5.304   0.125   3.042  0.4277  0.4825  0.4863
 6723TIP3   OH241659   1.347   5.310  12.752 -0.1456  0.4667  1.1273
 6723TIP3    H141660   1.366   5.217  12.767  0.7246  0.3918 -0.2838
 6723TIP3    H241661   1.259   5.322  12.787  0.5191 -0.3792  3.2498
 6724TIP3   OH241662   1.917   1.657  16.353  0.1698 -0.3166 -0.3640
 6724TIP3    H141663   1.852   1.728  16.355  0.1846 -0.2862 -0.8807
 6724TIP3    H241664   1.893   1.601  16.427 -0.9144 -0.7174 -0.9903
 6725TIP3   OH241665   3.974   2.102   0.291 -0.1104  0.0421 -0.2125
 6725TIP3    H141666   3.988   2.135   0.202 -0.2479 -0.6219 -0.4921
 6725TIP3    H241667   3.908   2.160   0.328 -0.7365 -0.2172 -0.8764
 6726TIP3   OH241668   3.184   6.807  13.969  0.0663 -0.1700  0.1776
 6726TIP3    H141669   3.126   6.731  13.971 -0.0198 -0.1674  3.4722
 6726TIP3    H241670   3.268   6.773  13.939 -0.4807 -1.1475 -0.2904
 6727TIP3   OH241671   6.806   1.864  12.844 -0.4191  0.6435 -0.3397
 6727TIP3    H141672   6.898   1.876  12.868 -0.7423  0.0671  1.2648
 6727TIP3    H241673   6.771   1.953  12.840  0.0349  0.8293 -0.2412
 6728TIP3   OH241674   4.027   0.562   0.550  0.1649  0.8584 -0.2656
 6728TIP3    H141675   4.048   0.481   0.597  0.0618  0.7536 -0.3989
 6728TIP3    H241676   4.065   0.631   0.604  0.5950  0.6916 -0.3505
 6729TIP3   OH241677   2.292   5.844   0.575  0.9178  0.1729 -0.0113
 6729TIP3    H141678   2.211   5.796   0.555  0.2583  0.6777  1.3761
 6729TIP3    H241679   2.359   5.776   0.579  0.0819 -0.6071  1.4532
 6730TIP3   OH241680   4.925   4.804   1.340  0.0010 -0.2465 -0.7175
 6730TIP3    H141681   4.974   4.854   1.274  0.1603 -0.6035 -0.8691
 6730TIP3    H241682   4.974   4.816   1.421 -1.0848  1.5752 -0.2702
 6731TIP3   OH241683   1.622   4.180  13.881 -0.1875  0.0529  0.2153
 6731TIP3    H141684   1.686   4.142  13.941 -0.3339 -0.2518  0.1804
 6731TIP3    H241685   1.540   4.181  13.931 -0.5146 -1.0319 -0.2738
 6732TIP3   OH241686   6.818   1.094   3.755 -0.7524 -0.2775 -0.5899
 6732TIP3    H141687   6.901   1.120   3.794 -2.0105 -0.1656  2.3364
 6732TIP3    H241688   6.785   1.172   3.711 -0.1342  0.2404 -0.1479
 6733TIP3   OH241689   3.633   0.859  12.902  0.1971 -0.0671  0.2206
 6733TIP3    H141690   3.537   0.856  12.900  0.1424  0.6824  1.0588
 6733TIP3    H241691   3.653   0.937  12.953  1.2672  0.4685 -0.9828
 6734TIP3   OH241692   1.692   0.401   4.654 -0.4641  0.0219  0.5675
 6734TIP3    H141693   1.604   0.422   4.686 -0.8462  1.0547 -1.0262
 6734TIP3    H241694   1.720   0.326   4.706 -1.2064  1.3005  2.9191
 6735TIP3   OH241695   4.376   3.777   0.371  0.2017  0.2681  0.9229
 6735TIP3    H141696   4.338   3.732   0.447  0.0159 -0.9414  0.1373
 6735TIP3    H241697   4.371   3.713   0.300  0.4278  1.3614 -0.1046
 6736TIP3   OH241698   1.764   2.062   1.309  0.3340 -0.1298  0.3568
 6736TIP3    H141699   1.758   2.104   1.395 -1.3069  0.3623  0.0335
 6736TIP3    H241700   1.680   2.018   1.297  0.2054  0.4730 -1.3101
 6737TIP3   OH241701   5.202   4.590   2.728 -0.0228 -1.0515 -0.0243
 6737TIP3    H141702   5.137   4.635   2.783 -0.4231 -2.5113  0.7570
 6737TIP3    H241703   5.283   4.639   2.741 -0.8136  0.4913 -0.5952
 6738TIP3   OH241704   4.759   5.481  16.116  0.3910 -0.0922  0.9663
 6738TIP3    H141705   4.679   5.428  16.125  0.2475  0.3074  2.2899
 6738TIP3    H241706   4.736   5.565  16.155  0.0798  1.6204 -2.4789
 6739TIP3   OH241707   3.120   4.569  11.351  0.1406  0.3785  0.2342
 6739TIP3    H141708   3.099   4.648  11.402  0.1460  0.7912 -0.3949
 6739TIP3    H241709   3.085   4.497  11.403 -0.6889  0.8709  0.3721
 6740TIP3   OH241710   5.733   6.294  14.775 -0.1308  0.6616  0.2050
 6740TIP3    H141711   5.747   6.375  14.728 -0.9793 -0.2001 -1.6145
 6740TIP3    H241712   5.802   6.235  14.743  1.1488  0.9033  2.2762
 6741TIP3   OH241713   1.198   6.727   1.448  0.0699 -0.0205 -0.5507
 6741TIP3    H141714   1.178   6.820   1.458  1.2685  0.2693 -0.6834
 6741TIP3    H241715   1.168   6.705   1.360  0.6184  0.4750 -0.8667
 6742TIP3   OH241716   2.037   1.508   4.888 -0.2615  0.3191 -0.2889
 6742TIP3    H141717   2.076   1.558   4.960  0.7964  0.1419 -0.7196
 6742TIP3    H241718   2.099   1.518   4.816 -0.3868 -1.0253 -0.6030
 6743TIP3   OH241719   4.535   4.014  13.545 -0.0228  0.5927 -0.1392
 6743TIP3    H141720   4.613   4.010  13.490  0.6688  0.2374  0.8368
 6743TIP3    H241721   4.490   3.931  13.530 -1.1217  1.4545 -1.9518
 6744TIP3   OH241722   0.687   3.511  17.254 -0.6308  0.2898  0.7441
 6744TIP3    H141723   0.618   3.536  17.316 -0.7535  2.3302 -0.1378
 6744TIP3    H241724   0.756   3.576  17.269 -0.3293  0.3193 -0.6982
 6745TIP3   OH241725   5.428   5.783   6.746 -0.2499 -0.1993  0.4690
 6745TIP3    H141726   5.336   5.759   6.733 -0.6313  1.7065 -0.8517
 6745TIP3    H241727   5.477   5.719   6.693 -1.1855  1.3665 -2.5296
 6746TIP3   OH241728   1.758   6.819   6.356  0.5020  0.1076  0.3265
 6746TIP3    H141729   1.737   6.824   6.449 -0.8239  0.6586  0.0227
 6746TIP3    H241730   1.826   6.751   6.350  0.0870 -0.4449  1.5930
 6747TIP3   OH241731   4.140   2.725   3.883  0.4114  0.0205 -0.1166
 6747TIP3    H141732   4.156   2.635   3.914 -0.4258 -0.3537 -0.7279
 6747TIP3    H241733   4.053   2.721   3.844  0.1499  1.2369  0.3223
 6748TIP3   OH241734   0.790   5.383   5.090  0.2678  0.1743  0.2257
 6748TIP3    H141735   0.825   5.367   5.003  1.6897  1.3006  0.5511
 6748TIP3    H241736   0.740   5.304   5.111 -0.5245  0.0916 -1.7857
 6749TIP3   OH241737   0.349   2.759  14.546  0.4038 -0.2861 -0.0489
 6749TIP3    H141738   0.309   2.672  14.553 -0.6223  0.2227  0.7054
 6749TIP3    H241739   0.288   2.817  14.593  0.9643  0.8713 -0.7103
 6750TIP3   OH241740   2.244   5.431   5.023 -0.2756  0.8959 -0.2958
 6750TIP3    H141741   2.322   5.384   4.993 -1.9474 -1.1675 -1.6481
 6750TIP3    H241742   2.262   5.522   5.002  1.2428  0.3013 -1.7757
 6751TIP3   OH241743   3.338   1.058   3.906 -0.1031  0.6895  0.3098
 6751TIP3    H141744   3.290   0.979   3.931 -1.7039  0.9717 -1.5347
 6751TIP3    H241745   3.418   1.026   3.864 -1.0895 -0.0294 -1.0885
 6752TIP3   OH241746   1.377   0.860  11.101 -0.3378  0.2013  0.6439
 6752TIP3    H141747   1.330   0.787  11.142 -2.3849  2.0573  1.7618
 6752TIP3    H241748   1.448   0.880  11.163  1.2183 -1.7279 -0.3998
 6753TIP3   OH241749   5.639   3.458   4.037 -0.2754  0.3717 -0.8956
 6753TIP3    H141750   5.623   3.452   3.943 -0.0699  0.7087 -0.9528
 6753TIP3    H241751   5.604   3.376   4.073  1.5693 -0.7340 -1.5202
 6754TIP3   OH241752   4.593   0.383   0.030  0.2222 -0.2146  0.9381
 6754TIP3    H141753   4.681   0.420   0.038  0.3675 -0.8409  2.8350
 6754TIP3    H241754   4.534   0.453   0.058 -0.1910  1.1042 -2.7467
 6755TIP3   OH241755   0.466   5.125   6.075  0.3942  0.4525 -0.0333
 6755TIP3    H141756   0.407   5.160   6.142  0.3944  0.4388 -0.0261
 6755TIP3    H241757   0.544   5.100   6.123  0.4093  0.4791 -0.0441
 6756TIP3   OH241758   0.121   4.310   1.237  0.7444 -0.0677 -0.3977
 6756TIP3    H141759   0.154   4.285   1.324  0.2115 -1.6558 -0.6139
 6756TIP3    H241760   0.137   4.233   1.183 -2.7718 -0.7511 -0.6598
 6757TIP3   OH241761   6.067   4.457   1.990 -0.4725 -0.4015 -0.3482
 6757TIP3    H141762   6.096   4.508   1.914 -1.5434  0.3337 -0.2894
 6757TIP3    H241763   6.065   4.520   2.062 -1.7136 -0.5280 -0.2458
 6758TIP3   OH241764   0.319   2.497  11.318 -0.1921  0.0506  0.1913
 6758TIP3    H141765   0.387   2.507  11.384  1.9965  0.5449 -1.9759
 6758TIP3    H241766   0.297   2.587  11.292 -0.4725 -0.1459 -0.2656
 6759TIP3   OH241767   6.266   4.724  14.787 -0.2348 -0.0408  0.2199
 6759TIP3    H141768   6.310   4.787  14.844  1.0333 -1.1756  0.5378
 6759TIP3    H241769   6.260   4.644  14.839 -1.0994 -0.4326 -0.4534
 6760TIP3   OH241770   0.580   4.296   4.676  0.6612  0.0601  0.3138
 6760TIP3    H141771   0.664   4.250   4.684  1.0185  0.4265 -1.0156
 6760TIP3    H241772   0.570   4.343   4.758  1.2312 -0.8449  0.9215
 6761TIP3   OH241773   2.550   6.413   2.180 -0.0709  0.1433 -0.0863
 6761TIP3    H141774   2.643   6.407   2.160  0.0529 -1.0565  0.7771
 6761TIP3    H241775   2.527   6.505   2.163  1.7417  1.0089  1.7548
 6762TIP3   OH241776   0.571   5.190  11.932 -0.0230  0.0260 -0.1937
 6762TIP3    H141777   0.652   5.182  11.883  0.5571 -0.3891  0.8029
 6762TIP3    H241778   0.551   5.284  11.930  2.6743  0.8610  2.8505
 6763TIP3   OH241779   0.135   5.011   3.740  0.2591 -0.4559 -0.2869
 6763TIP3    H141780   0.125   4.927   3.784 -1.2775  0.4936  1.2874
 6763TIP3    H241781   0.103   5.076   3.803 -1.2332  1.0585 -2.4414
 6764TIP3   OH241782   0.266   1.850   5.090 -0.5900  0.5353  0.1809
 6764TIP3    H141783   0.231   1.868   5.177  1.5117 -0.3225  1.3015
 6764TIP3    H241784   0.325   1.924   5.072 -0.7618  0.5428 -0.3538
 6765TIP3   OH241785   3.384   4.225  14.365  0.1160 -0.1581  0.2402
 6765TIP3    H141786   3.353   4.152  14.311 -0.1976  0.8579 -0.9847
 6765TIP3    H241787   3.367   4.196  14.455  1.2629 -2.1621 -0.1216
 6766TIP3   OH241788   1.361   4.329   1.503 -0.3292 -0.4676 -0.0994
 6766TIP3    H141789   1.275   4.366   1.483 -0.1521  0.2401  0.4174
 6766TIP3    H241790   1.401   4.313   1.418 -0.3731  0.6198 -0.3367
 6767TIP3   OH241791   1.140   3.702   4.162 -0.1305 -0.1104  0.1488
 6767TIP3    H141792   1.054   3.710   4.203  0.6400 -0.2903  1.8902
 6767TIP3    H241793   1.202   3.703   4.235  1.2719 -1.4270 -0.9554
 6768TIP3   OH241794   0.522   0.601   3.134  0.5229 -0.1199  0.1764
 6768TIP3    H141795   0.504   0.513   3.168  0.1074 -0.3889 -0.7035
 6768TIP3    H241796   0.557   0.649   3.209 -0.8704 -0.5363  1.1410
 6769TIP3   OH241797   3.481   3.378  16.896  0.0762  0.4911  0.1524
 6769TIP3    H141798   3.393   3.415  16.905 -0.4695 -0.8029  0.3280
 6769TIP3    H241799   3.540   3.454  16.900 -1.0046  1.3328  0.3978
 6770TIP3   OH241800   6.363   2.828  10.882  0.4244 -0.7177 -0.0759
 6770TIP3    H141801   6.402   2.792  10.802 -0.2476 -0.5477 -0.4833
 6770TIP3    H241802   6.331   2.914  10.857 -1.6682 -1.4724 -0.1997
 6771TIP3   OH241803   1.776   1.845  13.754  0.3210  0.2823 -0.5644
 6771TIP3    H141804   1.799   1.927  13.712  0.8942 -0.3518 -1.5303
 6771TIP3    H241805   1.859   1.797  13.760 -0.1874 -0.7057 -1.1034
 6772TIP3   OH241806   0.804   3.565  13.497  0.5949 -0.5136  0.5503
 6772TIP3    H141807   0.784   3.476  13.525  0.1802 -0.8110 -0.6263
 6772TIP3    H241808   0.885   3.587  13.543 -0.1089 -0.9133  2.0405
 6773TIP3   OH241809   5.257   6.767   1.566  0.1133  0.3204 -0.2291
 6773TIP3    H141810   5.257   6.780   1.661  0.8527  0.4743 -0.2464
 6773TIP3    H241811   5.256   6.855   1.529  2.5986  0.3604 -0.3455
 6774TIP3   OH241812   2.732   5.919   1.618 -0.1107 -0.1291  0.1884
 6774TIP3    H141813   2.817   5.902   1.577  0.2556  0.0167  0.8705
 6774TIP3    H241814   2.704   5.833   1.650  0.3929  0.0320  1.0980
 6775TIP3   OH241815   3.568   3.149  14.229  0.3580  0.2139  0.0030
 6775TIP3    H141816   3.537   3.130  14.317 -1.0190  2.3986  0.0625
 6775TIP3    H241817   3.640   3.211  14.241  0.5266  0.1056 -0.4052
 6776TIP3   OH241818   1.571   4.855   2.602 -0.1237  0.1693 -0.6423
 6776TIP3    H141819   1.479   4.880   2.595  0.3470  1.4990 -2.9104
 6776TIP3    H241820   1.569   4.769   2.644 -2.3034  0.6839  0.4440
 6777TIP3   OH241821   2.239   3.469   0.466 -0.1787  0.3243  0.7507
 6777TIP3    H141822   2.149   3.451   0.439  0.0864 -1.1804  0.7932
 6777TIP3    H241823   2.289   3.470   0.384 -0.1662  0.7626  0.7620
 6778TIP3   OH241824   5.576   3.568  16.419  0.2365 -0.3600  0.1056
 6778TIP3    H141825   5.626   3.488  16.437 -1.4042 -0.8294  3.1531
 6778TIP3    H241826   5.616   3.635  16.474 -0.7857 -0.0747  0.5274
 6779TIP3   OH241827   4.869   1.189  14.499 -0.2948 -0.2405  0.2217
 6779TIP3    H141828   4.827   1.262  14.454  0.0279  0.5887  1.2289
 6779TIP3    H241829   4.808   1.116  14.488 -0.6340  0.1841 -0.7830
 6780TIP3   OH241830   2.717   2.352  16.557  0.1640  0.1552 -0.2244
 6780TIP3    H141831   2.622   2.345  16.544  0.4744 -1.2084 -2.2244
 6780TIP3    H241832   2.745   2.420  16.495  0.5864  0.0266 -0.1794
 6781TIP3   OH241833   1.679   5.900  11.802 -0.5846 -0.3222  0.3288
 6781TIP3    H141834   1.726   5.969  11.848 -1.4787  0.4796  0.0695
 6781TIP3    H241835   1.721   5.819  11.831  0.7699  0.3454  0.3033
 6782TIP3   OH241836   5.658   2.718  13.031 -1.0249  0.2133 -0.1694
 6782TIP3    H141837   5.737   2.664  13.037 -1.0871  0.2053  0.7853
 6782TIP3    H241838   5.687   2.799  12.989 -0.2025  0.7413  1.3453
 6783TIP3   OH241839   0.558   0.441  11.779 -0.1955 -0.4556 -0.0647
 6783TIP3    H141840   0.616   0.367  11.794  0.1495  0.2336  2.5371
 6783TIP3    H241841   0.615   0.517  11.780 -0.8729  0.0611  0.2370
 6784TIP3   OH241842   1.958   5.028  15.268  0.3447 -0.2215  0.6399
 6784TIP3    H141843   1.964   5.006  15.175 -2.0742 -1.2618  0.6514
 6784TIP3    H241844   1.990   4.949  15.313  1.8840  0.4241  0.7404
 6785TIP3   OH241845   6.124   0.560   1.370 -0.4311 -0.3795 -0.2545
 6785TIP3    H141846   6.203   0.507   1.367  0.8760  1.4999 -0.9611
 6785TIP3    H241847   6.156   0.650   1.376 -2.5549  0.3281  1.8310
 6786TIP3   OH241848   4.970   2.055   5.434  0.1326  0.3865 -0.2442
 6786TIP3    H141849   4.923   2.005   5.367  1.3452 -2.1589  0.6726
 6786TIP3    H241850   4.982   2.142   5.395 -1.2686 -0.2626 -2.3155
 6787TIP3   OH241851   3.448   2.273  11.971  0.6651  0.2408 -0.2764
 6787TIP3    H141852   3.522   2.214  11.962  0.7101  0.4422 -1.4556
 6787TIP3    H241853   3.397   2.261  11.891  0.2544  1.2208 -0.1880
 6788TIP3   OH241854   6.756   6.371  12.009 -0.1076  0.2344 -0.1230
 6788TIP3    H141855   6.841   6.328  11.995 -0.2746  0.7181 -3.4768
 6788TIP3    H241856   6.774   6.464  11.995 -0.7437  0.7109  1.8948
 6789TIP3   OH241857   0.757   6.328  11.343  0.9026  0.0174  0.0882
 6789TIP3    H141858   0.758   6.403  11.284 -0.4707 -1.2529 -1.6632
 6789TIP3    H241859   0.683   6.343  11.401 -0.0219 -0.4320 -0.9436
 6790TIP3   OH241860   3.134   4.968  16.754 -0.4300 -0.3763 -0.1196
 6790TIP3    H141861   3.058   5.002  16.800  1.7573  0.6237  3.0701
 6790TIP3    H241862   3.199   4.952  16.822  1.6272 -3.0264 -2.4454
 6791TIP3   OH241863   3.581   6.387  16.644  0.2092  0.2642  0.2238
 6791TIP3    H141864   3.601   6.309  16.694 -1.3451 -0.9402 -0.9297
 6791TIP3    H241865   3.492   6.373  16.612  0.1343  2.2162 -0.5580
 6792TIP3   OH241866   6.554   4.308   4.618  0.8139 -0.2420 -0.5419
 6792TIP3    H141867   6.541   4.402   4.606  0.2475 -0.2458 -0.0060
 6792TIP3    H241868   6.631   4.303   4.675  0.3663 -0.0722  0.0895
 6793TIP3   OH241869   2.125   0.947  12.243  0.0390 -0.0328 -0.7834
 6793TIP3    H141870   2.178   1.027  12.238 -0.0658  0.1282  0.3501
 6793TIP3    H241871   2.187   0.879  12.267 -0.2343  0.1478  0.5017
 6794TIP3   OH241872   6.140   3.117   4.925 -0.0685  0.1792  0.0796
 6794TIP3    H141873   6.124   3.189   4.864  0.2149 -0.1761 -0.4162
 6794TIP3    H241874   6.134   3.157   5.012 -1.3946  0.5137 -0.1388
 6795TIP3   OH241875   0.323   2.763   3.655  0.1395  0.1823  0.1902
 6795TIP3    H141876   0.238   2.722   3.669  0.7586 -0.7478  1.4179
 6795TIP3    H241877   0.370   2.702   3.598  0.3992  0.1093  0.4802
 6796TIP3   OH241878   1.408   3.527  12.116  0.4025  0.6123 -0.0644
 6796TIP3    H141879   1.379   3.579  12.041  2.1023 -1.4585 -2.3053
 6796TIP3    H241880   1.373   3.439  12.100 -1.6539  0.6512  3.1579
 6797TIP3   OH241881   4.841   4.455  12.286  0.4444 -0.2577 -0.2935
 6797TIP3    H141882   4.751   4.483  12.267 -0.2001 -1.7518  0.3921
 6797TIP3    H241883   4.896   4.518  12.240 -0.9597  0.6030 -0.8502
 6798TIP3   OH241884   4.501   5.006   0.594 -0.2185 -0.8862  0.4058
 6798TIP3    H141885   4.565   4.942   0.627 -0.7423 -0.9711  1.3119
 6798TIP3    H241886   4.438   4.953   0.545  1.2220 -0.6182 -1.8847
 6799TIP3   OH241887   0.541   2.766  11.041 -0.0923 -0.2835 -0.0566
 6799TIP3    H141888   0.568   2.735  11.127 -1.9435  0.5975  0.9150
 6799TIP3    H241889   0.495   2.692  11.002 -1.2587  0.0028  0.7126
 6800TIP3   OH241890   3.924   5.468  11.477  0.6382 -0.1855  0.5859
 6800TIP3    H141891   3.916   5.563  11.472 -2.8327 -0.4000 -0.9831
 6800TIP3    H241892   3.944   5.450  11.569  0.8345  2.0214  1.0292
 6801TIP3   OH241893   5.603   2.306   5.430  0.4247 -0.3972 -0.5076
 6801TIP3    H141894   5.537   2.302   5.498  1.8482 -0.8449  0.9001
 6801TIP3    H241895   5.554   2.294   5.348 -1.2857 -0.0359  0.4247
 6802TIP3   OH241896   3.528   1.480  14.370  0.2423  0.3011  0.7314
 6802TIP3    H141897   3.548   1.433  14.289 -0.0673  0.9064  0.2983
 6802TIP3    H241898   3.613   1.494  14.411  0.3280 -0.7313  0.9255
 6803TIP3   OH241899   1.772   3.716   2.745 -0.5282  0.4406  0.0087
 6803TIP3    H141900   1.706   3.766   2.698 -1.9421 -0.9966  0.3749
 6803TIP3    H241901   1.723   3.650   2.793  1.1927 -0.8376  0.1306
 6804TIP3   OH241902   0.044   6.189  16.204  0.3957  0.4812 -0.1015
 6804TIP3    H141903   0.097   6.222  16.132  1.2318  1.8083  1.0653
 6804TIP3    H241904   0.105   6.184  16.278 -0.5340 -0.4536  0.6378
 6805TIP3   OH241905   3.477   5.825   5.366  0.3716  0.2215 -0.3528
 6805TIP3    H141906   3.528   5.906   5.364 -0.6102  0.8248 -1.4004
 6805TIP3    H241907   3.448   5.818   5.457  0.2991  1.1547 -0.2940
 6806TIP3   OH241908   4.979   5.167   3.327 -0.2682 -0.6153  0.8298
 6806TIP3    H141909   5.047   5.100   3.337  0.3703 -0.2396 -0.7190
 6806TIP3    H241910   4.916   5.129   3.267 -1.1951 -0.7672  1.8777
 6807TIP3   OH241911   5.393   5.574  14.365 -0.3508 -0.1691  0.3196
 6807TIP3    H141912   5.344   5.650  14.397  0.3480  1.4752 -2.2396
 6807TIP3    H241913   5.373   5.570  14.272  1.6476 -1.5888 -0.1045
 6808TIP3   OH241914   5.037   3.121  15.972  0.6101  0.0924  0.2929
 6808TIP3    H141915   4.946   3.152  15.962  1.4585  2.6140 -0.3498
 6808TIP3    H241916   5.033   3.060  16.046 -1.7362 -0.5133 -0.2352
 6809TIP3   OH241917   4.480   6.113   5.921  0.0705  0.0003  0.3115
 6809TIP3    H141918   4.487   6.205   5.949  0.2718  0.5780 -1.4986
 6809TIP3    H241919   4.387   6.101   5.901 -0.3180 -0.8093  2.3995
 6810TIP3   OH241920   5.122   6.387  11.553 -0.0251  0.2442 -0.4024
 6810TIP3    H141921   5.127   6.482  11.566 -0.5908  0.2049  0.1266
 6810TIP3    H241922   5.192   6.368  11.490 -1.0215  1.2475 -1.8682
 6811TIP3   OH241923   2.805   6.819  15.822 -0.4592  0.4593  0.6717
 6811TIP3    H141924   2.884   6.871  15.806 -0.7266  0.8694  0.6779
 6811TIP3    H241925   2.787   6.776  15.738  0.3982 -0.5181  0.9611
 6812TIP3   OH241926   6.411   4.036  11.494  0.3753 -0.3611  0.1269
 6812TIP3    H141927   6.456   3.976  11.434  1.2225 -1.2033  1.5435
 6812TIP3    H241928   6.478   4.099  11.519 -0.8312  2.1149 -2.3762
 6813TIP3   OH241929   4.288   6.104   4.167  0.5201  0.4512 -0.0817
 6813TIP3    H141930   4.261   6.074   4.253 -0.7724 -0.3596 -0.7396
 6813TIP3    H241931   4.332   6.188   4.184  0.9622 -0.0441  1.4131
 6814TIP3   OH241932   0.630   3.104  10.479  0.1882  0.0553 -0.5307
 6814TIP3    H141933   0.717   3.110  10.518  0.3995  1.2084 -1.1303
 6814TIP3    H241934   0.606   3.012  10.486  1.1425 -0.1391  0.3146
 6815TIP3   OH241935   5.340   3.477   0.622 -0.9690  0.6582  0.1356
 6815TIP3    H141936   5.283   3.507   0.551  0.0804  1.8421 -0.2356
 6815TIP3    H241937   5.349   3.383   0.607  0.3372  1.0691 -2.1552
 6816TIP3   OH241938   4.536   4.554  15.913  0.2677  0.3400 -0.0982
 6816TIP3    H141939   4.571   4.567  15.825  1.6138 -1.6758  0.0578
 6816TIP3    H241940   4.543   4.640  15.955 -0.1413  1.2669 -1.8433
 6817TIP3   OH241941   1.196   6.341   3.894  0.2042 -0.0804 -0.0892
 6817TIP3    H141942   1.290   6.342   3.875  0.5491 -1.5277  1.2478
 6817TIP3    H241943   1.153   6.347   3.809  1.5526 -1.9824 -0.9737
 6818TIP3   OH241944   5.048   3.995  11.794 -0.1289  0.1783 -0.1035
 6818TIP3    H141945   5.123   3.945  11.763  0.5259  1.9362 -1.5785
 6818TIP3    H241946   5.085   4.081  11.815 -1.8852  1.5772 -2.3120
 6819TIP3   OH241947   6.150   5.420   1.810  0.0051 -0.6557  0.2345
 6819TIP3    H141948   6.203   5.341   1.820  0.3422 -0.5998 -0.8971
 6819TIP3    H241949   6.203   5.478   1.755 -0.9574 -0.3416 -0.3935
 6820TIP3   OH241950   4.826   6.513  11.505  0.4920  0.0195  0.1537
 6820TIP3    H141951   4.894   6.445  11.505 -0.0356 -0.5875  2.1213
 6820TIP3    H241952   4.862   6.583  11.560 -0.2009 -0.0373  0.6969
 6821TIP3   OH241953   5.061   6.059   1.549  0.3236 -0.3284 -0.4415
 6821TIP3    H141954   5.124   6.101   1.490 -1.3803  0.9215 -1.4865
 6821TIP3    H241955   5.113   6.000   1.603  2.3684  0.6546 -1.2442
 6822TIP3   OH241956   6.683   5.542  10.557 -1.0902  0.4348  0.1702
 6822TIP3    H141957   6.734   5.623  10.562  1.5137 -0.7695 -2.8493
 6822TIP3    H241958   6.601   5.567  10.514 -0.1965  1.4802 -1.0009
 6823TIP3   OH241959   2.208   0.338  15.068 -0.1606 -0.3629  0.0689
 6823TIP3    H141960   2.118   0.351  15.037 -0.5511  0.3050  1.4270
 6823TIP3    H241961   2.205   0.254  15.114  0.5051 -1.5358 -1.8656
 6824TIP3   OH241962   3.476   1.732   2.752  0.2556 -0.0726 -0.1336
 6824TIP3    H141963   3.381   1.742   2.758  0.3473  0.6910  0.1616
 6824TIP3    H241964   3.490   1.637   2.744 -0.4738 -0.3063  1.1116
 6825TIP3   OH241965   3.624   3.580   1.166 -0.1167  0.1954  0.0987
 6825TIP3    H141966   3.671   3.558   1.247  0.4353 -0.2103 -0.3211
 6825TIP3    H241967   3.633   3.502   1.111  0.8582  1.0305 -0.9714
 6826TIP3   OH241968   6.360   6.590   2.842 -0.1876 -0.1285 -0.0654
 6826TIP3    H141969   6.274   6.549   2.834 -0.7447  0.3525  2.5185
 6826TIP3    H241970   6.418   6.534   2.790 -1.6770 -1.6900 -0.1310
 6827TIP3   OH241971   6.420   3.374   2.638  0.3875 -0.0754 -0.5585
 6827TIP3    H141972   6.440   3.302   2.578 -0.8198 -0.5149 -0.4513
 6827TIP3    H241973   6.330   3.397   2.619 -0.4555 -1.0330  1.8742
 6828TIP3   OH241974   6.644   4.035  16.611  0.3314 -0.3304 -0.2760
 6828TIP3    H141975   6.557   3.998  16.625 -0.0023  0.6641  0.3876
 6828TIP3    H241976   6.631   4.130  16.612  1.6391 -0.1177  1.4721
 6829TIP3   OH241977   0.823   3.861   2.807  0.1530  0.5780  0.2938
 6829TIP3    H141978   0.896   3.846   2.747  0.4259 -0.4753  0.8684
 6829TIP3    H241979   0.858   3.917   2.875  0.2763  0.5137  0.2837
 6830TIP3   OH241980   4.651   5.985  10.756 -0.4453  0.1679  0.1324
 6830TIP3    H141981   4.719   5.992  10.689  0.1687 -2.0481  0.4620
 6830TIP3    H241982   4.642   5.891  10.773 -3.5858  0.3456  0.1306
 6831TIP3   OH241983   4.600   3.244   3.731  0.4446  0.1243 -0.2334
 6831TIP3    H141984   4.643   3.159   3.747 -0.6338 -0.2198  0.9425
 6831TIP3    H241985   4.508   3.229   3.753  0.2011  1.5533 -0.2183
 6832TIP3   OH241986   4.098   3.186   1.030 -0.2152 -0.1911 -0.3584
 6832TIP3    H141987   4.060   3.099   1.018  0.3080 -0.4338 -0.2846
 6832TIP3    H241988   4.024   3.241   1.056 -0.5708 -0.5877 -0.5175
 6833TIP3   OH241989   0.942   0.595   6.400 -0.2573  0.2600 -0.4883
 6833TIP3    H141990   0.985   0.680   6.403 -0.0475  0.2605 -2.1672
 6833TIP3    H241991   1.013   0.532   6.416  0.6700  0.2269 -3.8989
 6834TIP3   OH241992   3.539   3.342   4.732  0.1800 -0.4700  0.0720
 6834TIP3    H141993   3.505   3.303   4.813 -0.2799  0.1178  0.1791
 6834TIP3    H241994   3.521   3.277   4.664 -2.7066  0.4185 -0.1725
 6835TIP3   OH241995   2.159   6.215  15.380 -0.2614  0.4611  0.6980
 6835TIP3    H141996   2.188   6.303  15.406  1.5634  0.1022  0.0014
 6835TIP3    H241997   2.114   6.228  15.297  0.4269  0.6769  0.3577
 6836TIP3   OH241998   2.297   3.508   6.313  0.3448  0.3105 -0.7942
 6836TIP3    H141999   2.315   3.445   6.382 -2.7051 -0.5319 -0.6182
 6836TIP3    H242000   2.350   3.584   6.335 -0.9235  0.3151  2.8444
 6837TIP3   OH242001   4.550   3.562   2.721  0.1725 -0.5125  0.4499
 6837TIP3    H142002   4.476   3.623   2.724  1.3167  0.9135  1.0384
 6837TIP3    H242003   4.555   3.536   2.629  0.4324  1.3344 -0.1019
 6838TIP3   OH242004   6.120   4.981   0.638  0.1427 -0.6612  0.2321
 6838TIP3    H142005   6.181   4.914   0.605  0.2778 -1.6316  2.2918
 6838TIP3    H242006   6.141   4.989   0.731 -1.3724  0.6708  0.5119
 6839TIP3   OH242007   4.512   6.370   0.162  0.3744 -0.4133 -0.1982
 6839TIP3    H142008   4.601   6.356   0.195  1.2214 -0.3159 -2.2984
 6839TIP3    H242009   4.484   6.452   0.204  1.6317  0.0463 -0.2149
 6840TIP3   OH242010   3.965   5.258  15.026  0.0560 -0.7367 -0.0088
 6840TIP3    H142011   3.910   5.329  14.993 -0.2500 -2.2681 -3.0995
 6840TIP3    H242012   4.053   5.280  14.996  0.4794 -0.3304  1.4457
 6841TIP3   OH242013   6.624   0.061  17.138  0.2031 -0.2371 -0.1366
 6841TIP3    H142014   6.548   0.083  17.084  0.8826 -2.3363 -2.0983
 6841TIP3    H242015   6.692   0.122  17.111  1.0492 -2.2651 -3.0333
 6842TIP3   OH242016   4.640   5.754  14.185 -0.3749  0.3037  0.3737
 6842TIP3    H142017   4.676   5.666  14.178  0.5274  0.7148 -0.2765
 6842TIP3    H242018   4.553   5.747  14.146 -0.6243 -0.4627  1.0275
 6843TIP3   OH242019   2.845   5.165   0.654  0.8163 -0.1812  0.6811
 6843TIP3    H142020   2.878   5.076   0.644 -0.1467 -0.5220  0.3703
 6843TIP3    H242021   2.923   5.218   0.667  1.4512 -0.9893  0.3046
 6844TIP3   OH242022   6.790   6.273  13.171 -0.7135 -0.2049 -0.3193
 6844TIP3    H142023   6.729   6.340  13.138 -4.0608 -3.0643 -0.5565
 6844TIP3    H242024   6.835   6.316  13.243 -2.1375  2.5371 -0.9171
 6845TIP3   OH242025   1.209   6.250   1.337 -0.2395 -0.2172  0.2222
 6845TIP3    H142026   1.299   6.268   1.310 -0.4205 -0.2835 -0.4531
 6845TIP3    H242027   1.162   6.331   1.315 -0.7846 -0.9603 -1.5376
 6846TIP3   OH242028   2.574   3.136  14.874  0.4626  0.7857  0.2964
 6846TIP3    H142029   2.541   3.126  14.785  0.5108  0.0517  0.3531
 6846TIP3    H242030   2.591   3.229  14.884 -0.0974  0.9477 -0.2666
 6847TIP3   OH242031   5.354   5.439  13.631  0.7295  0.0711  0.0553
 6847TIP3    H142032   5.340   5.344  13.630  1.3658 -0.0568  1.4080
 6847TIP3    H242033   5.281   5.474  13.579  1.0800 -1.2002 -1.3787
 6848TIP3   OH242034   1.937   4.281  12.910  0.1512 -0.3541 -0.8431
 6848TIP3    H142035   1.912   4.305  12.999  1.8417 -1.2053 -0.0852
 6848TIP3    H242036   1.885   4.339  12.854 -1.6245 -0.4163  0.6426
 6849TIP3   OH242037   2.313   5.193  12.469 -0.0395 -0.0695 -0.5244
 6849TIP3    H142038   2.362   5.275  12.461  0.9931 -0.3546  1.9726
 6849TIP3    H242039   2.380   5.125  12.467 -0.7339 -0.7484 -1.0098
 6850TIP3   OH242040   4.235   3.827  14.473  0.4031 -0.2312  0.8432
 6850TIP3    H142041   4.219   3.891  14.541  1.1405 -0.6139  1.3923
 6850TIP3    H242042   4.184   3.750  14.500 -1.3102  0.4110 -0.3353
 6851TIP3   OH242043   4.165   3.410  12.898 -0.5193 -0.1455  0.0730
 6851TIP3    H142044   4.170   3.315  12.899 -0.4694 -0.1390  1.3748
 6851TIP3    H242045   4.106   3.432  12.970 -0.6259  0.8042 -0.2899
 6852TIP3   OH242046   5.622   6.807  15.791 -0.4789  0.2630  0.4834
 6852TIP3    H142047   5.618   6.882  15.732  0.0079  0.3621  0.5754
 6852TIP3    H242048   5.550   6.751  15.762  1.2579 -0.9172 -1.9255
 6853TIP3   OH242049   6.460   0.262  16.119  0.2431  0.0670  0.0548
 6853TIP3    H142050   6.412   0.187  16.153 -0.3295  0.6334  0.5156
 6853TIP3    H242051   6.457   0.326  16.189  1.4652  0.2144  0.0006
 6854TIP3   OH242052   4.030   1.117   3.831 -0.3159 -0.1743  0.2400
 6854TIP3    H142053   4.031   1.073   3.916 -1.6011 -0.9335 -0.1065
 6854TIP3    H242054   3.954   1.176   3.835 -1.1719 -1.1627 -0.8192
 6855TIP3   OH242055   6.112   3.390   3.176  0.2024 -0.2321 -0.3811
 6855TIP3    H142056   6.152   3.310   3.143  0.7147 -0.0951 -0.0903
 6855TIP3    H242057   6.024   3.391   3.137 -0.0573 -1.2757  0.1380
 6856TIP3   OH242058   5.046   2.309  14.679 -0.3015  0.3016 -0.2053
 6856TIP3    H142059   5.064   2.323  14.772 -1.7373  1.9610 -0.1384
 6856TIP3    H242060   4.962   2.352  14.664 -0.6376 -0.8925 -2.0434
 6857TIP3   OH242061   0.104   5.643  16.533  0.4034 -0.0173  0.0719
 6857TIP3    H142062   0.160   5.574  16.568 -0.5279 -0.3682  0.9262
 6857TIP3    H242063   0.159   5.721  16.533  0.4522  0.0160  2.4218
 6858TIP3   OH242064   2.461   5.199  11.758 -0.4392  0.3665 -0.3872
 6858TIP3    H142065   2.505   5.122  11.794  1.1803  1.1124 -0.6939
 6858TIP3    H242066   2.445   5.177  11.666  2.1674  1.2139 -1.1233
 6859TIP3   OH242067   4.252   2.537   0.869  0.6038 -0.2754 -0.3638
 6859TIP3    H142068   4.218   2.588   0.943 -0.9516 -0.6735 -0.7751
 6859TIP3    H242069   4.208   2.574   0.793  0.5170 -1.3184 -0.8289
 6860TIP3   OH242070   4.625   3.083  16.316  0.0485 -0.2617  0.4871
 6860TIP3    H142071   4.588   3.019  16.255 -0.3558  1.0903 -0.7511
 6860TIP3    H242072   4.710   3.045  16.342  1.9188  0.5603 -3.6221
 6861TIP3   OH242073   0.577   1.811  12.173 -0.2108 -0.5176 -0.3191
 6861TIP3    H142074   0.662   1.784  12.207  0.2320  0.5988 -0.4979
 6861TIP3    H242075   0.597   1.864  12.096 -0.9958  0.7771  0.3263
 6862TIP3   OH242076   6.110   2.521   1.006  0.1163 -0.3865 -0.1401
 6862TIP3    H142077   6.055   2.565   1.070  0.1066  0.3561 -0.6407
 6862TIP3    H242078   6.081   2.430   1.007 -0.4042 -0.2188  0.3458
 6863TIP3   OH242079   5.258   6.294   4.052  0.0062 -0.3569 -0.6956
 6863TIP3    H142080   5.264   6.216   3.996  0.7080 -1.4611  0.8515
 6863TIP3    H242081   5.349   6.317   4.070 -0.2104  0.0659 -0.1330
 6864TIP3   OH242082   4.539   4.205  11.830  0.8516  0.3434  0.0322
 6864TIP3    H142083   4.623   4.219  11.874  1.6164 -0.6673 -1.0513
 6864TIP3    H242084   4.556   4.228  11.739 -0.2816  0.8858 -0.0564
 6865TIP3   OH242085   6.813   4.862  12.565  0.7048 -0.4109  0.2626
 6865TIP3    H142086   6.830   4.779  12.609  1.5152  0.4411  1.6036
 6865TIP3    H242087   6.899   4.895  12.541  0.3256 -0.6254 -1.6324
 6866TIP3   OH242088   0.240   3.033  16.694 -0.4388  0.5079  0.0856
 6866TIP3    H142089   0.288   3.078  16.764  1.0428 -0.9547  0.0506
 6866TIP3    H242090   0.148   3.044  16.719 -0.0084  1.1170  1.5712
 6867TIP3   OH242091   2.633   1.205  12.550  0.4917  0.1449 -0.3038
 6867TIP3    H142092   2.559   1.144  12.554  0.0528  0.7121  0.5468
 6867TIP3    H242093   2.647   1.231  12.641  2.5382 -0.8830 -0.2641
 6868TIP3   OH242094   1.832   6.625   5.969 -0.0514 -0.0582 -0.3587
 6868TIP3    H142095   1.890   6.695   5.996 -0.2529 -0.3132  0.7709
 6868TIP3    H242096   1.749   6.644   6.013 -0.0777 -1.0596  0.0442
 6869TIP3   OH242097   0.335   1.148   3.435 -0.3322  0.0235  0.1973
 6869TIP3    H142098   0.272   1.105   3.493 -0.2408  1.7734  1.6868
 6869TIP3    H242099   0.408   1.086   3.430 -1.7104 -1.6253 -0.8196
 6870TIP3   OH242100   3.535   6.541  11.979 -0.0484  0.0662 -0.1012
 6870TIP3    H142101   3.540   6.519  11.886  0.1262  0.2021 -0.1264
 6870TIP3    H242102   3.562   6.461  12.025  0.3719  0.1544 -0.1852
 6871TIP3   OH242103   2.127   3.138   2.071  0.6018 -0.3906 -0.3055
 6871TIP3    H142104   2.190   3.098   2.131 -1.1640 -0.8246  1.3685
 6871TIP3    H242105   2.118   3.074   2.000  0.5586 -1.2910  0.4757
 6872TIP3   OH242106   2.796   1.127   0.233  0.3413  0.2950 -0.3519
 6872TIP3    H142107   2.730   1.133   0.302 -0.7398  1.1200 -1.4220
 6872TIP3    H242108   2.767   1.055   0.178 -0.1796  1.2200 -1.3202
 6873TIP3   OH242109   3.948   2.268   6.671 -1.3403 -0.0380  0.3191
 6873TIP3    H142110   3.895   2.188   6.680 -1.4662 -0.0221 -0.2257
 6873TIP3    H242111   3.999   2.272   6.752 -2.3297  0.0697  0.9542
 6874TIP3   OH242112   4.885   4.803   2.834  0.2676  0.3579 -0.7111
 6874TIP3    H142113   4.934   4.860   2.893  2.9124 -3.2359  0.9507
 6874TIP3    H242114   4.947   4.782   2.764  0.0010 -1.6741 -0.3918
 6875TIP3   OH242115   0.875   3.559  11.715 -0.5259 -0.1697 -0.2951
 6875TIP3    H142116   0.866   3.651  11.739 -2.9364 -0.5631  0.5560
 6875TIP3    H242117   0.922   3.520  11.789  1.1159  0.4416 -0.9641
 6876TIP3   OH242118   6.580   2.574   0.101 -0.5004 -0.1700 -0.8072
 6876TIP3    H142119   6.647   2.510   0.123 -0.1787 -0.0057 -1.2911
 6876TIP3    H242120   6.513   2.525   0.053 -1.8259 -0.8040  1.5161
 6877TIP3   OH242121   0.306   5.864  11.195  0.0972 -0.1118  0.4549
 6877TIP3    H142122   0.275   5.849  11.105  1.2385 -1.2258  0.2269
 6877TIP3    H242123   0.307   5.777  11.235  0.0293  0.3168  1.4153
 6878TIP3   OH242124   6.160   5.011   5.219  0.1848  0.0026  0.0988
 6878TIP3    H142125   6.227   5.068   5.181  0.9904 -0.0250  1.4244
 6878TIP3    H242126   6.082   5.028   5.167  0.6203  1.7059 -0.0533
 6879TIP3   OH242127   0.121   5.157   5.250  0.5008  0.3150 -0.4276
 6879TIP3    H142128   0.047   5.103   5.276  0.0420  0.9431 -0.4184
 6879TIP3    H242129   0.198   5.104   5.271  0.2263  1.0360  2.8703
 6880TIP3   OH242130   2.863   2.046  16.381 -0.7314 -0.0903 -0.3213
 6880TIP3    H142131   2.903   2.075  16.462 -1.3413 -0.1253 -0.0014
 6880TIP3    H242132   2.877   1.951  16.380 -2.4702 -0.4021  0.7533
 6881TIP3   OH242133   2.105   1.692   5.921 -0.5974  0.0541  0.1281
 6881TIP3    H142134   2.182   1.748   5.923  0.5776 -1.4259 -1.0516
 6881TIP3    H242135   2.108   1.651   5.834 -1.7423 -1.3553  0.7176
 6882TIP3   OH242136   1.261   1.069  10.831 -0.2577  0.1484  0.0173
 6882TIP3    H142137   1.166   1.079  10.824 -0.0531  1.8331 -0.7259
 6882TIP3    H242138   1.280   1.085  10.923 -0.7759 -1.2640  0.3978
 6883TIP3   OH242139   4.529   2.003   4.919  0.5311  0.5279 -0.7761
 6883TIP3    H142140   4.437   1.993   4.897 -0.2205  1.3088  1.6037
 6883TIP3    H242141   4.531   2.078   4.979  2.5334 -0.1978  0.1662
 6884TIP3   OH242142   0.375   6.108   4.348  0.5493 -0.1383 -0.2693
 6884TIP3    H142143   0.302   6.084   4.405 -0.6777  1.3404 -1.1501
 6884TIP3    H242144   0.334   6.143   4.269  2.2097  0.6444 -0.8405
 6885TIP3   OH242145   3.070   2.260  13.648 -0.2485 -0.1367  0.3034
 6885TIP3    H142146   3.131   2.285  13.718  1.1838 -0.8429 -0.6428
 6885TIP3    H242147   3.034   2.343  13.616  0.7190  0.3480  0.4458
 6886TIP3   OH242148   2.031   3.164   3.458 -0.3672  0.1186  0.2507
 6886TIP3    H142149   2.105   3.158   3.519  0.8966  1.5081 -1.0910
 6886TIP3    H242150   2.052   3.102   3.388  0.0622  1.2824 -0.6648
 6887TIP3   OH242151   1.374   3.220   0.626  0.2311 -0.2202  0.4444
 6887TIP3    H142152   1.312   3.174   0.683  0.1116 -0.2035  0.3293
 6887TIP3    H242153   1.420   3.281   0.684 -0.0446 -0.0449  0.4819
 6888TIP3   OH242154   3.042   0.439   4.880 -0.1863  0.4952  0.4040
 6888TIP3    H142155   3.036   0.345   4.896 -1.4562  0.1019 -1.9252
 6888TIP3    H242156   3.133   0.454   4.857  0.1781 -0.0130  1.4647
 6889TIP3   OH242157   0.563   3.784   1.322  0.3409  0.5755 -0.3279
 6889TIP3    H142158   0.649   3.774   1.280  0.4677 -0.1664  0.0919
 6889TIP3    H242159   0.510   3.715   1.282  0.0818  0.7144 -0.2213
 6890TIP3   OH242160   4.052   5.738   4.329  0.1780 -0.5218 -0.5611
 6890TIP3    H142161   4.007   5.820   4.311 -1.3305 -0.9565  0.9139
 6890TIP3    H242162   4.087   5.709   4.245  1.2323  1.8699 -1.0131
 6891TIP3   OH242163   4.637   0.588  15.968 -0.1201  0.4170 -0.4909
 6891TIP3    H142164   4.597   0.628  16.045 -0.6804  0.4176 -0.7754
 6891TIP3    H242165   4.703   0.529  16.003  1.3284  2.1915 -0.0821
 6892TIP3   OH242166   5.828   5.305  11.022  0.2843 -0.3951 -0.0729
 6892TIP3    H142167   5.886   5.255  11.080  0.6759 -0.6050 -0.6367
 6892TIP3    H242168   5.777   5.238  10.976  0.0773 -0.2355 -0.0765
 6893TIP3   OH242169   1.513   4.415   2.579 -0.1725 -0.0139 -0.2716
 6893TIP3    H142170   1.501   4.381   2.491  0.7768  1.2601 -0.9152
 6893TIP3    H242171   1.517   4.337   2.635 -0.7456 -0.8274 -1.3356
 6894TIP3   OH242172   1.135   2.510   4.841  0.5821  0.4273  0.3582
 6894TIP3    H142173   1.087   2.500   4.923 -2.7945  1.7511 -1.2708
 6894TIP3    H242174   1.109   2.434   4.788  1.9244  0.1268  0.0709
 6895TIP3   OH242175   2.827   2.288   0.283 -0.5763  0.2021  0.3683
 6895TIP3    H142176   2.922   2.295   0.293 -0.6702 -0.1055  1.7402
 6895TIP3    H242177   2.809   2.315   0.193  0.9150 -0.7943 -0.2537
 6896TIP3   OH242178   0.882   1.340   3.528  0.3597  0.1434  0.1583
 6896TIP3    H142179   0.968   1.300   3.512 -0.4331 -1.5317 -0.0929
 6896TIP3    H242180   0.897   1.400   3.602  1.5472 -0.8054  0.7241
 6897TIP3   OH242181   0.695   5.882   5.480  0.7276  0.2084 -0.3843
 6897TIP3    H142182   0.741   5.918   5.556  1.0664 -0.7666 -0.1142
 6897TIP3    H242183   0.745   5.914   5.405  1.6998 -0.5827 -0.1039
 6898TIP3   OH242184   2.473   3.172  16.884 -0.0428  0.4350 -0.2963
 6898TIP3    H142185   2.458   3.087  16.842  0.2295 -0.4895  1.3826
 6898TIP3    H242186   2.557   3.202  16.848 -0.2180  0.0838 -1.0236
 6899TIP3   OH242187   2.245   1.109  14.187  0.2104 -0.4956 -0.3135
 6899TIP3    H142188   2.335   1.078  14.180  0.9764  1.6752 -0.7906
 6899TIP3    H242189   2.214   1.117  14.097 -0.8766 -2.2335 -0.1390
 6900TIP3   OH242190   0.341   4.307   5.710 -0.4557  0.1963  0.3834
 6900TIP3    H142191   0.297   4.388   5.685  2.2275  1.8887  0.6594
 6900TIP3    H242192   0.377   4.273   5.629 -1.2670 -0.5505  0.3252
 6901TIP3   OH242193   3.346   5.547  12.549 -0.6159  0.4838  0.1687
 6901TIP3    H142194   3.377   5.570  12.637 -0.9597 -2.8082  1.2925
 6901TIP3    H242195   3.393   5.467  12.527 -2.2461 -0.0581 -1.6355
 6902TIP3   OH242196   4.488   1.633  13.955  0.1390  0.0969  0.3655
 6902TIP3    H142197   4.541   1.573  13.903 -0.2304  0.0208  0.0733
 6902TIP3    H242198   4.422   1.576  13.996 -0.0181  0.2575  0.3366
 6903TIP3   OH242199   2.758   0.858   4.564  0.5324 -0.0380  0.0686
 6903TIP3    H142200   2.722   0.782   4.519 -0.1790  0.4801 -0.2648
 6903TIP3    H242201   2.716   0.858   4.650 -0.4938  0.7043 -0.4085
 6904TIP3   OH242202   1.395   2.471  12.358  0.0953  0.6238  0.2005
 6904TIP3    H142203   1.394   2.512  12.272 -0.6541 -1.2026 -0.7297
 6904TIP3    H242204   1.335   2.523  12.411 -0.7059  0.8210 -0.8807
 6905TIP3   OH242205   3.140   0.023  12.585  0.9323 -0.1268 -0.4169
 6905TIP3    H142206   3.089   0.073  12.522  1.7166 -0.1210 -1.0743
 6905TIP3    H242207   3.187  -0.041  12.532  1.8260  0.0578  0.1210
 6906TIP3   OH242208   3.972   5.760  10.664 -0.4134 -0.0357  0.9392
 6906TIP3    H142209   3.911   5.812  10.716 -2.9309 -3.5870  1.8990
 6906TIP3    H242210   4.046   5.743  10.724 -0.9951 -0.0597  1.6623
 6907TIP3   OH242211   5.184   5.554  15.753  0.2789 -0.4804 -0.2559
 6907TIP3    H142212   5.198   5.599  15.837 -1.3798  0.3751 -0.3962
 6907TIP3    H242213   5.154   5.466  15.778 -0.8925 -0.0055  0.0910
 6908TIP3   OH242214   4.295   0.870   3.554  0.1501 -0.5375  0.1075
 6908TIP3    H142215   4.376   0.845   3.598  0.7408  0.3512 -0.4525
 6908TIP3    H242216   4.266   0.791   3.509  2.0454 -0.2509 -1.7314
 6909TIP3   OH242217   1.063   0.385  11.336 -0.2125 -0.0773 -0.4139
 6909TIP3    H142218   1.004   0.460  11.342  0.0814  0.0910  0.4158
 6909TIP3    H242219   1.006   0.312  11.312 -0.9557 -0.1403  1.4224
 6910TIP3   OH242220   0.369   6.319  14.185 -0.1306 -0.3876  0.3415
 6910TIP3    H142221   0.363   6.411  14.160  0.0279 -0.0885  1.3589
 6910TIP3    H242222   0.286   6.300  14.228 -0.0191 -0.6191  0.4602
 6911TIP3   OH242223   4.728   4.467  16.818  0.6284  0.3568 -0.4644
 6911TIP3    H142224   4.641   4.472  16.776  0.6907 -0.4849 -0.7159
 6911TIP3    H242225   4.718   4.399  16.884  0.0488  2.7718  2.1429
 6912TIP3   OH242226   0.772   0.602  14.881 -0.6447 -0.2595 -0.4127
 6912TIP3    H142227   0.716   0.642  14.815  0.3148 -0.3360 -1.2933
 6912TIP3    H242228   0.814   0.529  14.836  2.2083  1.3497 -0.6389
 6913TIP3   OH242229   6.629   1.079   2.215  0.0887 -0.1997  0.4208
 6913TIP3    H142230   6.721   1.094   2.192  1.1206 -1.2990  3.3493
 6913TIP3    H242231   6.617   0.985   2.206 -1.1858  0.0619 -1.1175
 6914TIP3   OH242232   4.304   5.759   4.614  0.5090 -0.0558  0.5112
 6914TIP3    H142233   4.247   5.690   4.578  0.0188 -0.7509  2.5236
 6914TIP3    H242234   4.392   5.724   4.605  0.8092  1.1613 -2.9317
 6915TIP3   OH242235   5.164   4.515  13.665  0.4069  0.4635 -0.6361
 6915TIP3    H142236   5.213   4.440  13.632 -0.1574  0.9972 -2.8149
 6915TIP3    H242237   5.230   4.584  13.675  0.4214  0.6452 -1.8457
 6916TIP3   OH242238   2.323   2.316  11.539  0.6471 -0.2470  0.2667
 6916TIP3    H142239   2.238   2.282  11.565  0.9537 -0.7501  0.6159
 6916TIP3    H242240   2.387   2.264  11.588  1.2316 -1.0784 -1.3029
 6917TIP3   OH242241   4.482   2.669   5.420  0.1555  0.0593 -0.1901
 6917TIP3    H142242   4.570   2.696   5.395 -0.2686  0.2216 -1.6643
 6917TIP3    H242243   4.454   2.734   5.485  0.5905  0.8791 -0.8005
 6918TIP3   OH242244   6.135   2.272   3.388  0.3449 -0.5622 -0.7207
 6918TIP3    H142245   6.128   2.254   3.294  1.2418  2.0387 -1.3882
 6918TIP3    H242246   6.229   2.270   3.405  0.2277 -0.3421 -0.0483
 6919TIP3   OH242247   2.947   2.547  15.600  0.5858  0.4632  0.1588
 6919TIP3    H142248   2.933   2.469  15.546  2.6385 -3.0086  4.0687
 6919TIP3    H242249   2.860   2.574  15.628 -0.1623 -0.6151 -1.0615
 6920TIP3   OH242250   6.744   0.750   3.093  0.5102  0.2631  0.1148
 6920TIP3    H142251   6.754   0.669   3.144 -5.1166 -0.3543  0.8482
 6920TIP3    H242252   6.734   0.721   3.003 -0.8254  0.0966  0.2909
 6921TIP3   OH242253   5.658   1.621  12.617 -0.4863 -0.1535  0.3097
 6921TIP3    H142254   5.583   1.680  12.614 -1.2194 -0.9866  1.3734
 6921TIP3    H242255   5.683   1.618  12.710  0.8788  0.1209 -0.0317
 6922TIP3   OH242256   0.542   3.551  12.005  0.2445  0.6217 -0.3973
 6922TIP3    H142257   0.474   3.532  11.940 -0.5740  1.5884  0.1462
 6922TIP3    H242258   0.547   3.472  12.059 -2.2718  1.3808  1.1272
 6923TIP3   OH242259   4.693   4.615   4.560 -0.0139  0.1051 -0.1103
 6923TIP3    H142260   4.649   4.686   4.515 -0.6088 -0.1266  0.0911
 6923TIP3    H242261   4.772   4.654   4.596 -0.3820  0.6900  0.0744
 6924TIP3   OH242262   6.250   3.709   1.523  0.9412  0.8124  0.2673
 6924TIP3    H142263   6.232   3.754   1.440 -1.0838 -0.3254 -0.0050
 6924TIP3    H242264   6.169   3.719   1.573  1.0643 -0.9735  0.8964
 6925TIP3   OH242265   3.191   3.478   4.152 -0.2203  0.2382  0.2193
 6925TIP3    H142266   3.226   3.406   4.205  0.5161  0.8011  0.4942
 6925TIP3    H242267   3.238   3.472   4.069 -1.8716 -1.0922 -0.7049
 6926TIP3   OH242268   6.678   5.399   2.797  0.6885  0.0276  0.2363
 6926TIP3    H142269   6.722   5.369   2.877  1.5654  2.4914  0.7858
 6926TIP3    H242270   6.642   5.485   2.821 -0.6405 -0.0069 -1.5037
 6927TIP3   OH242271   4.864   2.390   1.643  0.0781  0.2239 -0.3583
 6927TIP3    H142272   4.796   2.322   1.646  0.0111  0.3279  1.1368
 6927TIP3    H242273   4.899   2.392   1.732  2.3381 -0.1034 -1.1867
 6928TIP3   OH242274   5.548   3.714   2.166  0.2629  0.2059  0.2146
 6928TIP3    H142275   5.484   3.689   2.233  1.0724 -0.6073  0.7097
 6928TIP3    H242276   5.582   3.798   2.196 -0.2329  0.4201  0.1905
 6929TIP3   OH242277   0.035   0.192   0.889 -0.6435 -0.3779 -0.1669
 6929TIP3    H142278   0.040   0.239   0.806  0.4257 -2.6818 -1.5089
 6929TIP3    H242279   0.077   0.250   0.952 -1.5749  1.4789 -1.1610
 6930TIP3   OH242280   6.485   3.114  10.324  0.2590  0.2121  0.1665
 6930TIP3    H142281   6.537   3.191  10.348 -0.8490  0.7737  0.9196
 6930TIP3    H242282   6.484   3.113  10.229  1.5335  0.2426  0.1394
 6931TIP3   OH242283   0.466   2.640   3.020  0.1183  0.2222  0.2899
 6931TIP3    H142284   0.419   2.674   3.096  2.8680 -0.8787  2.6907
 6931TIP3    H242285   0.417   2.561   2.996 -0.3318  0.1091  1.4902
 6932TIP3   OH242286   5.709   0.315  17.128  0.1057 -0.1451 -0.6058
 6932TIP3    H142287   5.689   0.381  17.194  0.2690  1.4866 -2.1303
 6932TIP3    H242288   5.800   0.331  17.103 -0.1326 -0.3318 -1.6604
 6933TIP3   OH242289   4.903   5.732   0.853 -0.2693 -0.3398  0.4669
 6933TIP3    H142290   4.990   5.754   0.886 -1.4341  0.8332  3.0728
 6933TIP3    H242291   4.909   5.745   0.758  1.9235  1.4110  0.7598
 6934TIP3   OH242292   2.266   1.294  10.449 -0.2052  0.2140 -0.4195
 6934TIP3    H142293   2.332   1.261  10.511  0.5094 -0.6036 -1.5853
 6934TIP3    H242294   2.213   1.217  10.428  0.0993  0.2859 -1.4821
 6935TIP3   OH242295   0.507   5.009  12.632  0.2754  0.0308  0.2604
 6935TIP3    H142296   0.519   4.963  12.715 -0.3747 -0.7344 -0.0455
 6935TIP3    H242297   0.596   5.028  12.602  0.5537 -0.6340  0.6306
 6936TIP3   OH242298   3.821   3.540   5.111 -0.3058 -0.1857  0.3981
 6936TIP3    H142299   3.891   3.585   5.063  0.7323 -0.4651  1.6196
 6936TIP3    H242300   3.752   3.529   5.045  0.4143  0.9052 -0.5999
 6937TIP3   OH242301   5.174   4.964  16.575  0.0562  0.3243 -0.6699
 6937TIP3    H142302   5.161   5.058  16.585  0.7508  0.2739  0.9789
 6937TIP3    H242303   5.092   4.932  16.539 -1.5232  1.1048  1.9803
 6938TIP3   OH242304   1.006   0.181  13.158  0.2826  0.6850 -0.0125
 6938TIP3    H142305   0.953   0.114  13.115  1.8920  0.8223 -2.4212
 6938TIP3    H242306   0.990   0.261  13.107  0.7741  1.3851  0.8872
 6939TIP3   OH242307   1.555   1.389  13.006 -0.4723 -0.0541 -0.3557
 6939TIP3    H142308   1.587   1.305  12.975  0.8317  0.1684  0.3237
 6939TIP3    H242309   1.478   1.367  13.059 -0.8459 -0.7009 -1.1497
 6940TIP3   OH242310   0.568   2.242   5.314  0.3940 -0.0965 -0.0250
 6940TIP3    H142311   0.513   2.273   5.387 -0.2472 -0.1805 -0.4624
 6940TIP3    H242312   0.560   2.147   5.317  2.3256 -0.2778  1.2888
 6941TIP3   OH242313   6.517   2.947   4.565 -0.0816 -0.0752  0.7420
 6941TIP3    H142314   6.512   2.923   4.658 -1.4297  0.3716  0.8137
 6941TIP3    H242315   6.482   2.871   4.519  1.2225 -0.5635  0.5409
 6942TIP3   OH242316   2.024   5.298  16.991 -0.2649  0.5467  0.1166
 6942TIP3    H142317   2.028   5.227  17.056  0.2615 -2.0215 -2.5159
 6942TIP3    H242318   2.112   5.336  16.992 -0.3392  0.7386  1.0351
 6943TIP3   OH242319   4.623   0.440  11.590  0.3411 -0.0677 -0.1597
 6943TIP3    H142320   4.535   0.474  11.572  0.1965 -0.3118  0.0631
 6943TIP3    H242321   4.680   0.516  11.587  0.0137  0.2132  0.4032
 6944TIP3   OH242322   3.149   6.567   0.287 -0.2058  0.2031 -0.8948
 6944TIP3    H142323   3.161   6.553   0.193  1.1416 -0.6391 -0.6333
 6944TIP3    H242324   3.203   6.643   0.307  0.7726 -0.5573 -0.5592
 6945TIP3   OH242325   1.288   4.889   0.543  0.2842  0.5626 -0.7938
 6945TIP3    H142326   1.352   4.952   0.576  0.4669  0.9519 -1.8534
 6945TIP3    H242327   1.204   4.936   0.546  0.2420  0.4726 -0.5477
 6946TIP3   OH242328   5.778   4.176   4.151  0.3288  0.4541  0.8208
 6946TIP3    H142329   5.834   4.115   4.198 -0.0516  1.3223  2.4962
 6946TIP3    H242330   5.834   4.212   4.082  0.5939 -1.6340 -0.1364
 6947TIP3   OH242331   1.114   4.377  12.043 -0.3552  0.3687  0.9625
 6947TIP3    H142332   1.080   4.325  12.117 -1.0555 -0.8325 -0.1513
 6947TIP3    H242333   1.204   4.346  12.032 -0.7858 -0.6920  0.2698
 6948TIP3   OH242334   0.063   5.139  13.400  0.1273 -0.3591  0.6432
 6948TIP3    H142335   0.011   5.150  13.479  0.6816 -1.5944  1.2026
 6948TIP3    H242336   0.125   5.212  13.401 -1.0836  0.7257  0.3341
 6949TIP3   OH242337   5.845   5.290  10.388 -0.3865 -0.2721 -0.3739
 6949TIP3    H142338   5.888   5.205  10.395 -0.8911 -0.5080 -0.0087
 6949TIP3    H242339   5.761   5.277  10.433 -0.2877  0.5402  0.0512
 6950TIP3   OH242340   1.404   0.180   5.819 -0.1261  0.0126 -0.1113
 6950TIP3    H142341   1.337   0.127   5.863  0.9415 -2.9710 -1.7517
 6950TIP3    H242342   1.476   0.183   5.881 -0.0248 -0.9588 -0.1529
 6951TIP3   OH242343   3.699   2.401  13.108  0.1041  0.3387  0.0079
 6951TIP3    H142344   3.622   2.374  13.159 -0.1603 -0.0407 -0.5833
 6951TIP3    H242345   3.758   2.439  13.173 -1.6272  3.0668  0.1510
 6952TIP3   OH242346   4.638   0.348  11.195 -0.3540 -0.2000  0.2148
 6952TIP3    H142347   4.569   0.379  11.254  0.5968  1.6586  0.4060
 6952TIP3    H242348   4.664   0.425  11.146  0.6420 -1.1813 -0.8510
 6953TIP3   OH242349   6.141   0.876  13.548 -0.5470 -0.1316  0.7349
 6953TIP3    H142350   6.097   0.960  13.559 -2.1077 -0.9512  0.9362
 6953TIP3    H242351   6.152   0.867  13.453 -0.1274  0.3985  0.7255
 6954TIP3   OH242352   0.037   4.710  14.751  0.6985  0.6118 -0.7140
 6954TIP3    H142353   0.005   4.795  14.722 -1.2891  1.1755  2.5631
 6954TIP3    H242354   0.099   4.731  14.821  0.9701 -0.6153 -0.5743
 6955TIP3   OH242355   0.184   0.026   4.426  0.0355  0.0304  0.0083
 6955TIP3    H142356   0.131   0.057   4.353  0.4341 -0.2517 -0.3991
 6955TIP3    H242357   0.121  -0.019   4.483 -0.6471  1.8845  0.8326
 6956TIP3   OH242358   0.400   5.045  14.031 -0.2062  0.1740 -0.0799
 6956TIP3    H142359   0.432   5.131  14.003 -1.1512  0.5663  0.0268
 6956TIP3    H242360   0.315   5.035  13.988  0.8295 -1.6868 -1.9085
 6957TIP3   OH242361   2.230   5.328   0.907 -0.5085 -0.5381  0.2722
 6957TIP3    H142362   2.231   5.399   0.972 -0.1129 -0.3499  0.0680
 6957TIP3    H242363   2.264   5.369   0.827  0.0356 -1.0397  0.2407
 6958TIP3   OH242364   2.924   3.943  12.199 -0.2156 -0.7663 -0.2506
 6958TIP3    H142365   2.952   4.024  12.241  1.6371 -1.0056 -0.9139
 6958TIP3    H242366   2.861   3.904  12.261 -1.7074  1.4699 -0.2600
 6959TIP3   OH242367   5.561   1.058  14.926 -0.1694  0.0114  0.4328
 6959TIP3    H142368   5.551   1.149  14.954  0.3619  0.3634 -0.4469
 6959TIP3    H242369   5.489   1.043  14.865  0.0803  0.0380  0.1267
 6960TIP3   OH242370   6.513   0.515  11.906  0.0930 -0.1659  0.3549
 6960TIP3    H142371   6.547   0.453  11.841 -1.1733 -0.1333 -0.3802
 6960TIP3    H242372   6.419   0.497  11.909 -0.4224  2.1179 -0.3297
 6961TIP3   OH242373   6.036   5.602  14.825 -0.4412  0.1486 -0.0748
 6961TIP3    H142374   6.055   5.517  14.866  1.0502  0.3147 -0.3701
 6961TIP3    H242375   6.069   5.593  14.735 -1.8224  0.4801 -0.6307
 6962TIP3   OH242376   4.630   6.055   5.367 -0.3445 -0.5968  0.3988
 6962TIP3    H142377   4.569   6.062   5.440  0.1072  0.4670  0.6945
 6962TIP3    H242378   4.584   6.095   5.294  0.9493  2.7756  1.2699
 6963TIP3   OH242379   6.128   0.143   2.562 -0.5718 -0.3146 -0.3031
 6963TIP3    H142380   6.116   0.159   2.656 -1.7107  0.5128 -0.5750
 6963TIP3    H242381   6.164   0.225   2.528  1.4749 -1.1572 -0.3440
 6964TIP3   OH242382   5.231   6.713  13.874  0.6090  0.1179 -0.6453
 6964TIP3    H142383   5.262   6.622  13.866 -0.6894 -0.1861 -3.6479
 6964TIP3    H242384   5.310   6.766  13.865  1.0689 -0.7177 -1.8524
 6965TIP3   OH242385   6.699   3.000   6.614  0.7979  0.7224 -0.2067
 6965TIP3    H142386   6.785   3.017   6.576  0.9611  1.0300  0.2912
 6965TIP3    H242387   6.699   3.047   6.698  0.4162  0.1380  0.1354
 6966TIP3   OH242388   5.295   5.203  16.829 -0.0124 -0.1890 -0.1430
 6966TIP3    H142389   5.217   5.239  16.872 -0.5447 -1.1867 -0.2469
 6966TIP3    H242390   5.314   5.265  16.759 -0.8770 -0.0726 -0.2847
 6967TIP3   OH242391   6.497   5.863   4.955  0.0274  0.0689 -0.2875
 6967TIP3    H142392   6.460   5.892   4.872 -0.0725  0.3832 -0.1355
 6967TIP3    H242393   6.445   5.908   5.021 -0.3597 -0.7388 -0.0321
 6968TIP3   OH242394   3.425   3.640   5.002 -0.7162  0.0462 -0.6026
 6968TIP3    H142395   3.511   3.640   4.960 -0.1327  1.3863  0.5109
 6968TIP3    H242396   3.427   3.564   5.061  0.7950  1.4989  1.3913
 6969TIP3   OH242397   5.454   4.718  12.515 -0.5820 -0.0645  0.3841
 6969TIP3    H142398   5.486   4.769  12.441 -1.9952 -0.7575 -0.7553
 6969TIP3    H242399   5.530   4.668  12.545  0.1347  0.6096 -0.2574
 6970TIP3   OH242400   0.469   5.910   2.459  0.2403 -0.4981 -0.7092
 6970TIP3    H142401   0.463   5.819   2.488 -0.2853 -0.4034 -0.5106
 6970TIP3    H242402   0.549   5.943   2.500 -0.8545 -0.1469  1.3096
 6971TIP3   OH242403   6.314   0.211   3.896  0.2870 -0.4949 -0.9395
 6971TIP3    H142404   6.228   0.170   3.887  0.3177 -0.6070 -0.7177
 6971TIP3    H242405   6.375   0.146   3.862  0.5966 -1.6658  1.6113
 6972TIP3   OH242406   6.700   6.723   2.307  0.0690 -0.0992 -0.0971
 6972TIP3    H142407   6.604   6.725   2.310  0.0175 -0.5898 -0.9527
 6972TIP3    H242408   6.727   6.753   2.393 -0.8931 -2.3127  1.0695
 6973TIP3   OH242409   6.111   3.568   6.703  0.1449  0.3709 -0.3809
 6973TIP3    H142410   6.143   3.542   6.790 -1.2585 -1.2509 -0.3057
 6973TIP3    H242411   6.016   3.557   6.708  0.0397  0.2106 -2.1415
 6974TIP3   OH242412   5.581   0.753   4.668  0.1980  0.1192  0.2556
 6974TIP3    H142413   5.624   0.807   4.601  0.3526  0.0477  0.2965
 6974TIP3    H242414   5.609   0.792   4.751  0.3285 -0.0396  0.2852
 6975TIP3   OH242415   6.330   0.775  15.320  0.2251  0.1316 -0.0418
 6975TIP3    H142416   6.328   0.871  15.314 -1.2389  0.0849 -0.8786
 6975TIP3    H242417   6.422   0.752  15.305  0.5896  1.3962  0.1157
 6976TIP3   OH242418   5.512   3.000   3.125  0.5326  0.3447  0.5081
 6976TIP3    H142419   5.570   3.022   3.198  0.5930 -0.2201  0.6363
 6976TIP3    H242420   5.545   3.051   3.052 -0.0814  1.6205  1.0926
 6977TIP3   OH242421   6.393   3.621   0.262  0.4038 -0.3699 -0.0289
 6977TIP3    H142422   6.480   3.595   0.294  0.6678  2.7093  2.3179
 6977TIP3    H242423   6.411   3.681   0.190  0.6361  3.0637  2.6335
 6978TIP3   OH242424   3.689   3.582   4.061  0.0707 -0.2318  0.5823
 6978TIP3    H142425   3.740   3.560   4.139 -0.7873 -0.3364  1.1342
 6978TIP3    H242426   3.609   3.623   4.096 -1.5855 -2.7182 -0.0485
 6979TIP3   OH242427   2.489   0.801   0.458 -0.0032  0.0631  0.3953
 6979TIP3    H142428   2.513   0.735   0.393 -0.3752  1.8566 -1.6941
 6979TIP3    H242429   2.572   0.829   0.496  0.5958  0.9652 -1.4165
 6980TIP3   OH242430   5.030   5.685   4.560 -0.2669 -0.2669  0.1956
 6980TIP3    H142431   5.014   5.619   4.627  0.4862 -1.0255 -0.3438
 6980TIP3    H242432   5.116   5.721   4.582  0.2818 -0.9706 -0.6916
 6981TIP3   OH242433   2.413   4.099   3.326 -0.2487  0.0950 -0.3285
 6981TIP3    H142434   2.386   4.106   3.418 -1.2913 -0.6742 -0.5454
 6981TIP3    H242435   2.444   4.009   3.318 -1.0633 -0.1364 -0.9425
 6982TIP3   OH242436   2.345   2.386   5.886  0.4670  0.0465  0.0520
 6982TIP3    H142437   2.322   2.455   5.949  2.6241 -0.0048  0.9843
 6982TIP3    H242438   2.375   2.432   5.808  0.2509  0.1458  0.0287
 6983TIP3   OH242439   2.689   5.028   3.039 -0.2596  0.5943  0.0130
 6983TIP3    H142440   2.627   5.067   2.979  0.4645  1.6765 -0.0638
 6983TIP3    H242441   2.775   5.059   3.009  0.3334 -0.8759  0.0982
 6984TIP3   OH242442   2.663   3.007   3.794  0.0635 -0.0142  0.1204
 6984TIP3    H142443   2.736   3.054   3.753  0.7908 -0.6458  0.6473
 6984TIP3    H242444   2.703   2.925   3.825 -0.5817  0.2046  1.5921
 6985TIP3   OH242445   1.648   2.244  15.356  0.6406  0.0122 -0.1659
 6985TIP3    H142446   1.574   2.273  15.303  1.3403  0.2269 -1.0444
 6985TIP3    H242447   1.689   2.326  15.386  1.4354 -0.0702 -0.9873
 6986TIP3   OH242448   3.915   5.490   2.594 -0.2447  0.1367  0.1555
 6986TIP3    H142449   3.979   5.419   2.598 -1.5479 -1.1082 -0.2155
 6986TIP3    H242450   3.838   5.451   2.553 -1.1532  1.6655  0.3178
 6987TIP3   OH242451   3.115   5.829   5.047  0.8111  0.4362  0.0936
 6987TIP3    H142452   3.134   5.883   4.969  0.5982 -0.7557 -0.8075
 6987TIP3    H242453   3.201   5.814   5.087  0.8597  1.5502  0.4482
 6988TIP3   OH242454   5.743   3.563   5.484  0.0055 -0.3115  0.4348
 6988TIP3    H142455   5.698   3.482   5.504 -0.8762  0.5648  2.1949
 6988TIP3    H242456   5.827   3.557   5.530 -0.1548 -0.1391  0.7523
 6989TIP3   OH242457   3.519   1.753  12.367 -0.1848 -0.5313  0.3770
 6989TIP3    H142458   3.568   1.676  12.341 -1.1087 -1.1140  0.3105
 6989TIP3    H242459   3.485   1.789  12.285  0.5263  0.1619  0.3710
 6990TIP3   OH242460   3.074   4.376   6.021 -0.2744 -0.6410  0.1846
 6990TIP3    H142461   2.993   4.381   6.072  0.7734 -1.1602  2.0070
 6990TIP3    H242462   3.045   4.369   5.930 -2.2324  0.5111  0.6669
 6991TIP3   OH242463   5.214   1.155  16.661 -0.6409  0.2792 -0.5048
 6991TIP3    H142464   5.136   1.113  16.697  1.0367 -1.1467  1.7429
 6991TIP3    H242465   5.230   1.230  16.718 -0.5880  0.8370 -1.2295
 6992TIP3   OH242466   0.117   3.041  14.529  0.4510 -0.4169  0.0853
 6992TIP3    H142467   0.079   3.092  14.600  1.2059 -1.1901  1.0824
 6992TIP3    H242468   0.064   3.063  14.452  1.3971  2.6824  0.1884
 6993TIP3   OH242469   6.372   6.236  12.169 -0.2258 -0.2046  0.2026
 6993TIP3    H142470   6.300   6.222  12.108  0.2065  0.8310 -0.5787
 6993TIP3    H242471   6.378   6.331  12.178  0.3145 -0.3155  1.1399
 6994TIP3   OH242472   2.387   4.196  16.474  0.0568 -0.0327  0.3052
 6994TIP3    H142473   2.328   4.139  16.425  1.4329 -1.4419  0.2188
 6994TIP3    H242474   2.435   4.244  16.407  0.3692 -0.3079  0.3331
 6995TIP3   OH242475   2.339   0.731   5.923 -0.0226 -0.4085 -0.1589
 6995TIP3    H142476   2.306   0.783   5.996 -1.4000 -0.2760 -0.8341
 6995TIP3    H242477   2.318   0.640   5.948 -3.1485 -0.2056 -1.5454
 6996TIP3   OH242478   2.780   1.002  14.362  0.5643  0.7763  1.0169
 6996TIP3    H142479   2.787   1.013  14.267  0.9392 -0.4699  0.8863
 6996TIP3    H242480   2.709   0.940  14.375  0.9509  0.4273  1.5184
 6997TIP3   OH242481   3.552   0.990   4.596 -0.3388  0.1127 -0.2289
 6997TIP3    H142482   3.514   1.029   4.518 -1.2913 -1.2432 -0.4733
 6997TIP3    H242483   3.581   0.903   4.568 -0.1359 -0.1632  0.7727
 6998TIP3   OH242484   5.496   3.772   6.071  0.2989 -0.2262 -0.2911
 6998TIP3    H142485   5.525   3.681   6.075  0.7499 -0.0593  0.7456
 6998TIP3    H242486   5.407   3.770   6.106 -0.0251 -0.3930 -1.1209
 6999TIP3   OH242487   5.638   6.824  17.100  0.0943 -0.2929  0.5991
 6999TIP3    H142488   5.635   6.919  17.087  1.3128  0.3194  3.9015
 6999TIP3    H242489   5.547   6.799  17.119 -0.0280  0.4683  1.0552
 7000TIP3   OH242490   1.933   4.766  12.192  0.8610  0.6532  0.2880
 7000TIP3    H142491   1.978   4.820  12.126  0.6035  1.3947  0.7146
 7000TIP3    H242492   1.986   4.775  12.271  1.2056 -0.2911  0.1784
 7001TIP3   OH242493   1.908   5.683  14.884  0.0273  0.0061  0.3311
 7001TIP3    H142494   1.951   5.744  14.825  0.9325 -1.7357 -0.8985
 7001TIP3    H242495   1.971   5.670  14.955 -0.5782  1.2071  1.1201
 7002TIP3   OH242496   2.318   4.967  11.718  0.1732  0.3582 -0.5483
 7002TIP3    H142497   2.326   4.997  11.627 -0.9589 -0.7096 -1.0306
 7002TIP3    H242498   2.312   4.871  11.711  0.5586  0.2251  0.7018
 7003TIP3   OH242499   5.776   4.609   3.279 -0.1732 -0.0293  0.1281
 7003TIP3    H142500   5.838   4.638   3.212 -0.9571  0.0021 -0.5959
 7003TIP3    H242501   5.784   4.675   3.348 -1.9043  1.9770 -1.4820
 7004TIP3   OH242502   4.753   2.535   3.280 -0.5371 -0.0690  0.2688
 7004TIP3    H142503   4.662   2.554   3.300 -0.6729 -0.9698  0.5415
 7004TIP3    H242504   4.755   2.526   3.184 -0.6572  0.3008  0.2292
 7005TIP3   OH242505   3.362   0.506   0.151  0.1079  0.1057  0.0826
 7005TIP3    H142506   3.437   0.475   0.100  0.4533  1.9884 -0.6273
 7005TIP3    H242507   3.290   0.512   0.088 -0.5014 -1.1067  0.6351
 7006TIP3   OH242508   3.263   2.589  16.284 -0.3253  0.1127  0.1520
 7006TIP3    H142509   3.225   2.555  16.203  0.1530  0.7529 -0.3567
 7006TIP3    H242510   3.357   2.576  16.273 -0.1349  1.4176 -0.0024
 7007TIP3   OH242511   0.460   6.452  16.639  0.2189  0.2715 -0.6100
 7007TIP3    H142512   0.487   6.361  16.627 -1.1329 -0.1840 -0.3156
 7007TIP3    H242513   0.414   6.474  16.558  1.7646  1.1814 -1.2910
 7008TIP3   OH242514   2.887   5.258  15.723 -0.2446  0.2183  0.1025
 7008TIP3    H142515   2.920   5.171  15.747 -0.6494 -0.0878 -0.4144
 7008TIP3    H242516   2.893   5.260  15.628 -0.0705  0.8307  0.1238
 7009TIP3   OH242517   5.497   1.565  14.073 -0.2342  0.4439  0.2381
 7009TIP3    H142518   5.435   1.552  14.002 -0.4511  3.4911 -0.2367
 7009TIP3    H242519   5.447   1.545  14.152 -0.8756 -0.0943 -0.2924
 7010TIP3   OH242520   4.062   1.339   3.300 -0.1422  0.1413  0.3364
 7010TIP3    H142521   4.075   1.433   3.306  1.3661 -0.1149  2.1226
 7010TIP3    H242522   4.149   1.303   3.286 -0.9445 -0.9221 -2.7638
 7011TIP3   OH242523   5.250   2.006  11.520 -0.3288  0.0236 -0.4113
 7011TIP3    H142524   5.337   2.024  11.484  0.1940  0.4398  0.9736
 7011TIP3    H242525   5.262   2.013  11.615 -2.0475  0.8409 -0.2267
 7012TIP3   OH242526   2.376   4.525  12.795 -0.2318 -0.4756 -0.4344
 7012TIP3    H142527   2.395   4.607  12.842  1.2010  0.3666 -2.3575
 7012TIP3    H242528   2.346   4.553  12.709 -0.5043 -1.9909 -0.8528
 7013TIP3   OH242529   1.777   4.050   4.809 -0.0629 -0.2242 -0.2074
 7013TIP3    H142530   1.690   4.032   4.773  0.0499  1.0410 -1.2038
 7013TIP3    H242531   1.762   4.114   4.878  0.0022 -0.5453  0.1033
 7014TIP3   OH242532   4.854   1.291  16.886 -0.6804  0.1185 -0.3797
 7014TIP3    H142533   4.926   1.347  16.857  0.0742 -0.2607  0.7090
 7014TIP3    H242534   4.795   1.288  16.810  0.6102  0.1548 -1.4306
 7015TIP3   OH242535   2.616   3.969   2.101  0.1267 -0.0481  0.5463
 7015TIP3    H142536   2.589   3.877   2.101 -0.4301  0.1014  1.5514
 7015TIP3    H242537   2.578   4.005   2.181 -0.1124  1.1962 -0.1034
 7016TIP3   OH242538   3.862   3.375  12.010 -0.4263 -0.2775  0.9274
 7016TIP3    H142539   3.928   3.329  12.061 -1.9200 -1.5057  1.8154
 7016TIP3    H242540   3.818   3.431  12.073 -1.1697 -0.5405  0.6481
 7017TIP3   OH242541   4.216   1.197  13.466 -0.2803 -0.1850 -0.0881
 7017TIP3    H142542   4.261   1.147  13.533 -1.0847  0.0664  0.6576
 7017TIP3    H242543   4.216   1.287  13.498  1.6980  0.4673 -1.6995
 7018TIP3   OH242544   2.028   4.806   2.963  0.8722 -0.0687 -0.0913
 7018TIP3    H142545   1.956   4.782   3.020 -0.3112 -0.5912 -1.7356
 7018TIP3    H242546   2.100   4.826   3.023 -0.4873  0.0662  1.5790
 7019TIP3   OH242547   1.885   5.766   3.160 -0.2865  0.7350  0.4479
 7019TIP3    H142548   1.791   5.780   3.157 -0.6864 -1.7058 -2.0125
 7019TIP3    H242549   1.923   5.851   3.139 -1.9828  1.3911 -0.0811
 7020TIP3   OH242550   3.125   5.097   0.490 -0.6468  0.5908  0.0585
 7020TIP3    H142551   3.088   5.129   0.408 -2.5163  1.0582  1.0172
 7020TIP3    H242552   3.117   5.171   0.550 -0.5226 -0.1340  0.9937
 7021TIP3   OH242553   3.956   1.533   4.130  0.4527  0.1709 -0.3258
 7021TIP3    H142554   3.870   1.539   4.170  0.5248  0.0869 -0.1582
 7021TIP3    H242555   4.017   1.556   4.200  0.5399  0.7394 -0.5764
 7022TIP3   OH242556   5.353   2.512   3.058 -0.2982 -0.2495  0.8849
 7022TIP3    H142557   5.327   2.494   3.149 -2.6227  1.9365  0.7562
 7022TIP3    H242558   5.306   2.446   3.007 -3.7382  1.9017  0.9206
 7023TIP3   OH242559   0.167   5.445   0.919  0.2861  0.0095  0.1923
 7023TIP3    H142560   0.212   5.527   0.940  3.2937 -1.6105  0.6771
 7023TIP3    H242561   0.217   5.377   0.965 -2.8449 -2.0322  0.8685
 7024TIP3   OH242562   6.141   6.746  12.253  0.3467 -0.1333  0.1903
 7024TIP3    H142563   6.132   6.760  12.347 -0.5545  0.6028  0.0050
 7024TIP3    H242564   6.227   6.782  12.231  0.2882  0.2765  0.6252
 7025TIP3   OH242565   3.278   2.370   4.891  0.6001  0.4529  0.0214
 7025TIP3    H142566   3.324   2.445   4.928  0.0319  0.5961  0.4412
 7025TIP3    H242567   3.293   2.299   4.954  1.9021 -0.0568 -0.8147
 7026TIP3   OH242568   1.614   1.932   0.036  0.3527  0.0085  0.3779
 7026TIP3    H142569   1.529   1.891   0.024  1.5776 -2.5906 -0.1501
 7026TIP3    H242570   1.622   1.945   0.130 -1.1706  1.7083  0.3344
 7027TIP3   OH242571   0.031   5.719   5.514  0.0190 -0.0129  0.3960
 7027TIP3    H142572  -0.030   5.658   5.555 -0.7880  1.3409  1.3091
 7027TIP3    H242573  -0.014   5.751   5.437  0.3750 -0.4310  0.0084
 7028TIP3   OH242574   4.982   0.776   4.681 -0.0506 -0.6035 -0.1264
 7028TIP3    H142575   4.972   0.812   4.592 -0.2698 -0.4142 -0.0277
 7028TIP3    H242576   5.062   0.816   4.714 -0.9308  0.7958  0.4413
 7029TIP3   OH242577   0.504   4.950   3.030 -0.1595  0.1364  0.1517
 7029TIP3    H142578   0.420   4.950   2.985 -1.2655  0.3600  2.0667
 7029TIP3    H242579   0.545   4.867   3.006 -0.6535  0.2804 -1.2601
 7030TIP3   OH242580   5.260   2.476  14.539  0.0294  0.1202  0.4810
 7030TIP3    H142581   5.274   2.543  14.606 -0.6004  0.1258  0.6148
 7030TIP3    H242582   5.186   2.425  14.571 -0.2765  0.1197 -0.2095
 7031TIP3   OH242583   0.461   6.032   1.977  0.2149  0.1744  0.1980
 7031TIP3    H142584   0.502   6.085   2.045  0.6916 -1.2643  1.0743
 7031TIP3    H242585   0.384   6.083   1.951  0.8357  1.4485  0.7464
 7032TIP3   OH242586   1.613   1.561   3.765 -0.1354  0.2667 -0.3837
 7032TIP3    H142587   1.619   1.515   3.681 -1.4858  0.8118 -0.8101
 7032TIP3    H242588   1.540   1.517   3.810  0.0615  0.4998  0.1618
 7033TIP3   OH242589   4.220   2.199  11.091 -0.0371  0.3659 -0.1597
 7033TIP3    H142590   4.217   2.286  11.051  0.8210 -0.6247 -2.5482
 7033TIP3    H242591   4.130   2.165  11.082 -0.3932  0.9949  0.8525
 7034TIP3   OH242592   4.489   3.739  10.656 -0.6142  0.1383  0.3696
 7034TIP3    H142593   4.448   3.826  10.654 -1.7055 -0.3528  0.8663
 7034TIP3    H242594   4.545   3.740  10.734  0.2162  0.7427 -0.2070
 7035TIP3   OH242595   2.746   6.668   5.758  0.0629 -0.3093  0.3341
 7035TIP3    H142596   2.824   6.612   5.759  0.2745 -0.0316 -0.4727
 7035TIP3    H242597   2.779   6.755   5.736 -0.4806 -0.2105 -0.1031
 7036TIP3   OH242598   5.831   1.086  16.729 -0.1155  0.3506 -0.6803
 7036TIP3    H142599   5.909   1.141  16.716 -0.6129  0.3584 -4.5297
 7036TIP3    H242600   5.848   1.008  16.677 -1.5255 -0.9914  0.7776
 7037TIP3   OH242601   4.049   0.059  11.028  0.3757  0.3483 -0.2742
 7037TIP3    H142602   4.023   0.051  10.936  0.2867  0.1097 -0.2301
 7037TIP3    H242603   3.972   0.029  11.077  0.5596  0.1056 -0.1328
 7038TIP3   OH242604   6.196   2.231   2.538  0.2845 -0.5575 -0.5469
 7038TIP3    H142605   6.188   2.269   2.451 -1.0521 -0.5450 -0.4389
 7038TIP3    H242606   6.269   2.278   2.578  0.0796  0.3357 -1.2019
 7039TIP3   OH242607   0.972   6.076   1.750  0.2815  0.2073 -0.3490
 7039TIP3    H142608   0.943   6.166   1.737 -0.1470  0.4853  2.1010
 7039TIP3    H242609   0.891   6.026   1.760  0.5360 -0.2825 -0.6920
 7040TIP3   OH242610   6.071   2.462  14.094  0.0365  0.0201  0.0755
 7040TIP3    H142611   6.111   2.376  14.083 -0.2169 -0.2712  1.3134
 7040TIP3    H242612   5.986   2.454  14.051  0.7563  0.2401 -1.4289
 7041TIP3   OH242613   2.324   5.955   5.391 -0.6140  0.5936  0.3764
 7041TIP3    H142614   2.272   6.010   5.333  0.7721  1.4732 -0.0662
 7041TIP3    H242615   2.390   5.915   5.335 -1.1630 -1.0106  0.8161
 7042TIP3   OH242616   6.091   0.410   2.495 -0.4060 -0.0988  0.6112
 7042TIP3    H142617   6.040   0.464   2.555 -0.7920 -0.1123  0.2912
 7042TIP3    H242618   6.033   0.392   2.422 -0.1704 -0.6692  0.5553
 7043TIP3   OH242619   5.051   1.278   5.748  0.0482  0.1905 -0.6014
 7043TIP3    H142620   5.111   1.349   5.725 -1.5011  0.9636 -2.5835
 7043TIP3    H242621   5.100   1.198   5.727  0.7080  0.7659 -1.3418
 7044TIP3   OH242622   2.944   2.173   2.762  0.2509 -0.0365 -0.4243
 7044TIP3    H142623   2.903   2.260   2.760  1.7031  0.6976  0.4936
 7044TIP3    H242624   3.009   2.176   2.691  0.0217 -0.5322 -0.6591
 7045TIP3   OH242625   2.308   0.741  15.379 -0.1112 -0.2168  0.3811
 7045TIP3    H142626   2.369   0.702  15.441  1.2737  1.2956  0.0273
 7045TIP3    H242627   2.298   0.831  15.408 -3.5053 -0.7584  1.4012
 7046TIP3   OH242628   2.472   6.253   4.554  0.1893  0.1271  0.1837
 7046TIP3    H142629   2.566   6.266   4.542  0.2290 -1.2641 -1.4332
 7046TIP3    H242630   2.442   6.219   4.469 -1.0979 -2.8046  1.6683
 7047TIP3   OH242631   6.424   2.692  17.084  0.3553  0.1041 -0.0011
 7047TIP3    H142632   6.503   2.642  17.103  0.5511  0.3596 -0.1342
 7047TIP3    H242633   6.354   2.644  17.128  0.4194 -0.7321 -0.7819
 7048TIP3   OH242634   2.658   1.982   2.202  0.9977  0.0282  0.0491
 7048TIP3    H142635   2.709   2.009   2.278  0.4497  1.2947 -0.0086
 7048TIP3    H242636   2.581   1.939   2.238  0.5924  0.8924  0.2281
 7049TIP3   OH242637   4.034   4.270  11.729 -0.1777  0.0423  0.0624
 7049TIP3    H142638   4.011   4.263  11.821  0.8599 -1.6543  0.2299
 7049TIP3    H242639   4.104   4.206  11.716 -0.7418 -0.2276 -2.0513
 7050TIP3   OH242640   2.512   1.550   3.542 -0.4308 -0.0815  0.7492
 7050TIP3    H142641   2.507   1.468   3.492  1.0278 -0.4687  1.1815
 7050TIP3    H242642   2.585   1.536   3.603 -1.6108  0.6928  2.4023
 7051TIP3   OH242643   3.620   5.939   4.528 -0.3865 -0.6233 -0.2485
 7051TIP3    H142644   3.569   5.869   4.569  1.5637 -1.8760  0.1898
 7051TIP3    H242645   3.673   5.894   4.463 -0.4283  0.7645 -1.2832
 7052TIP3   OH242646   0.364   2.063   5.713  0.7510  0.2343  0.3275
 7052TIP3    H142647   0.319   2.115   5.780  1.5764  0.0509  1.0317
 7052TIP3    H242648   0.453   2.097   5.711  1.2963 -1.0942  0.7617
 7053TIP3   OH242649   4.726   4.392   2.228 -0.2452 -0.0366  0.0218
 7053TIP3    H142650   4.709   4.457   2.159  2.2757 -0.9760 -1.6550
 7053TIP3    H242651   4.668   4.319   2.206 -0.0068 -0.0258 -0.6877
 7054TIP3   OH242652   0.258   1.927  12.975  0.1023  0.2033 -0.3221
 7054TIP3    H142653   0.300   2.004  12.937 -1.3268  2.2716  1.9958
 7054TIP3    H242654   0.264   1.941  13.069 -0.4212 -2.4490  0.1707
 7055TIP3   OH242655   6.577   4.038   3.240 -0.1766 -0.2041 -0.3623
 7055TIP3    H142656   6.522   4.010   3.167  0.2947  0.0837 -0.8299
 7055TIP3    H242657   6.528   4.110   3.280 -0.4868 -0.4343 -0.3187
 7056TIP3   OH242658   0.205   0.026   1.653 -0.6280 -0.1509  0.4935
 7056TIP3    H142659   0.287   0.072   1.636 -1.1080  0.6150  0.2215
 7056TIP3    H242660   0.161   0.022   1.569 -1.6960  1.0918  0.9513
 7057TIP3   OH242661   2.872   0.838  13.273  0.4679  0.0595  0.3920
 7057TIP3    H142662   2.951   0.839  13.326 -0.3429 -1.9031  1.7630
 7057TIP3    H242663   2.867   0.749  13.238 -1.6405 -0.2072  1.2075
 7058TIP3   OH242664   3.469   6.386   4.384 -0.1977 -0.8492 -0.6166
 7058TIP3    H142665   3.395   6.416   4.331 -0.4979 -0.9078 -0.2343
 7058TIP3    H242666   3.499   6.464   4.430 -0.2884 -0.9152 -0.4481
 7059TIP3   OH242667   6.370   4.122   5.934  0.2745 -0.1561 -0.3532
 7059TIP3    H142668   6.417   4.038   5.925  0.0664 -0.4771  1.2924
 7059TIP3    H242669   6.313   4.109   6.010 -0.9417  0.9530 -1.0480
 7060TIP3   OH242670   6.619   0.765  11.117  0.3402  0.0592  0.1506
 7060TIP3    H142671   6.560   0.837  11.095  0.4161  0.2190  0.4625
 7060TIP3    H242672   6.561   0.693  11.142  0.2498 -0.1671 -0.6827
 7061TIP3   OH242673   4.145   4.942   0.571 -0.2486  0.1641 -0.1334
 7061TIP3    H142674   4.057   4.977   0.587  0.1447  0.3204  2.0438
 7061TIP3    H242675   4.197   5.019   0.547 -0.4623  0.2452 -0.3438
 7062TIP3   OH242676   6.421   0.732  11.747  0.7061 -0.2228 -0.7692
 7062TIP3    H142677   6.475   0.670  11.795 -0.2329  0.0483  0.7238
 7062TIP3    H242678   6.437   0.713  11.655 -0.3519 -3.4334 -0.4154
 7063TIP3   OH242679   0.365   1.533   1.684  0.1400 -0.0802 -0.1540
 7063TIP3    H142680   0.304   1.573   1.622 -1.6635 -0.6976  1.1426
 7063TIP3    H242681   0.337   1.442   1.691 -0.1567  0.1019  1.9930
 7064TIP3   OH242682   0.457   5.486   5.265 -0.1105 -0.2482 -0.4858
 7064TIP3    H142683   0.407   5.543   5.324 -1.2934  0.1773 -1.8469
 7064TIP3    H242684   0.452   5.529   5.180  2.7907 -0.0879 -0.6692
 7065TIP3   OH242685   6.013   6.212   0.419 -0.0507 -0.1787  0.2042
 7065TIP3    H142686   5.961   6.226   0.340 -1.7037  0.6375  1.3628
 7065TIP3    H242687   6.099   6.185   0.388 -0.2722  1.3746 -1.8897
 7066TIP3   OH242688   1.303   0.415   2.880 -0.2478  0.0179  0.2563
 7066TIP3    H142689   1.336   0.485   2.824 -0.5395  0.1752  0.2804
 7066TIP3    H242690   1.380   0.362   2.899  0.2031  0.9742  1.1722
 7067TIP3   OH242691   1.331   1.266  13.614  0.6079  0.1388  0.0931
 7067TIP3    H142692   1.379   1.309  13.544 -0.0825 -0.4985 -0.7989
 7067TIP3    H242693   1.379   1.289  13.694  1.3765  0.9199 -0.5707
 7068TIP3   OH242694   0.276   2.879  16.332 -0.0449  0.2308 -0.0085
 7068TIP3    H142695   0.276   2.855  16.240 -2.7280 -1.2353  0.2698
 7068TIP3    H242696   0.368   2.876  16.358  0.4256 -5.0015 -1.3000
 7069TIP3   OH242697   2.270   3.674   3.904  0.0086 -0.3440 -0.2572
 7069TIP3    H142698   2.230   3.658   3.990 -0.2125 -0.0746 -0.3121
 7069TIP3    H242699   2.200   3.656   3.841 -1.0530  3.1507 -0.2762
 7070TIP3   OH242700   6.255   3.743  16.936  0.1207  0.8336 -0.8234
 7070TIP3    H142701   6.242   3.662  16.886  0.0464  0.8975 -0.9061
 7070TIP3    H242702   6.229   3.720  17.025  2.0496  0.1623 -0.3789
 7071TIP3   OH242703   6.652   3.423   4.636  0.0529 -0.7102  0.1147
 7071TIP3    H142704   6.737   3.399   4.673  1.0743  0.2826 -1.4883
 7071TIP3    H242705   6.632   3.352   4.575 -0.0228 -0.6759  0.0993
 7072TIP3   OH242706   5.304   2.843  16.813 -0.3010 -0.6118 -0.4071
 7072TIP3    H142707   5.315   2.771  16.875 -0.4094 -2.1775 -2.1140
 7072TIP3    H242708   5.224   2.887  16.840 -0.4405 -1.3679  0.4541
 7073TIP3   OH242709   4.741   2.107   4.474  0.1307 -0.4524 -0.4938
 7073TIP3    H142710   4.828   2.143   4.455 -0.3757 -0.2517 -2.6707
 7073TIP3    H242711   4.734   2.111   4.570  0.5991  4.1733 -0.4064
 7074TIP3   OH242712   1.741   0.237  15.589  0.0928 -0.3574  0.1091
 7074TIP3    H142713   1.653   0.256  15.556 -0.1293  0.8304  1.3250
 7074TIP3    H242714   1.797   0.304  15.550  0.3750 -0.7737 -0.2179
 7075TIP3   OH242715   0.328   0.769  13.420 -0.4279 -0.0307 -0.3684
 7075TIP3    H142716   0.321   0.844  13.361 -1.4192 -0.0683 -0.3238
 7075TIP3    H242717   0.296   0.801  13.504  0.5937 -0.0915  0.0541
 7076TIP3   OH242718   1.744   0.654   4.958  0.3412  0.2512  0.2010
 7076TIP3    H142719   1.817   0.609   4.915  0.6042 -1.1371  1.9936
 7076TIP3    H242720   1.735   0.610   5.043 -0.7380  2.2534  1.2034
 7077TIP3   OH242721   0.201   1.141  13.674  0.0834 -0.2080 -0.2330
 7077TIP3    H142722   0.196   1.232  13.704  1.3824  0.2775 -1.3954
 7077TIP3    H242723   0.111   1.109  13.680 -0.2087  0.7851  1.2829
 7078TIP3   OH242724   5.633   5.935   4.657  0.9216 -0.2257 -0.8325
 7078TIP3    H142725   5.686   5.970   4.729 -1.4792  1.2779  0.2969
 7078TIP3    H242726   5.651   5.993   4.583 -0.0162  1.0175 -0.1081
 7079TIP3   OH242727   2.503   4.056   4.027 -0.3545 -0.2641 -0.0483
 7079TIP3    H142728   2.490   3.966   3.998  0.5325 -0.7656  1.0123
 7079TIP3    H242729   2.446   4.108   3.971  0.2848 -1.3046 -1.7382
 7080TIP3   OH242730   0.152   0.973  15.658 -0.1020  0.5126 -0.3121
 7080TIP3    H142731   0.065   0.957  15.695 -0.0404 -1.5422 -0.9235
 7080TIP3    H242732   0.138   1.038  15.590 -0.7630  1.8502  1.0385
 7081TIP3   OH242733   5.459   3.149  11.310 -0.7464 -0.4983  0.0043
 7081TIP3    H142734   5.385   3.173  11.365 -2.0023 -1.3390 -1.2653
 7081TIP3    H242735   5.439   3.061  11.279  0.3210 -0.3719 -1.1320
 7082TIP3   OH242736   5.364   6.489  11.811 -0.1398  0.5731  0.0210
 7082TIP3    H142737   5.406   6.404  11.803  0.9426  1.1446 -0.6661
 7082TIP3    H242738   5.411   6.545  11.749 -1.7636  1.3171 -0.6195
 7083TIP3   OH242739   5.178   1.225   1.962 -0.4564 -0.2076 -0.1635
 7083TIP3    H142740   5.118   1.214   1.888 -0.8817 -0.2488  0.1794
 7083TIP3    H242741   5.151   1.308   2.002  0.6587  0.5126 -0.8558
 7084TIP3   OH242742   6.790   4.961   3.261  0.1804 -0.1948 -0.2779
 7084TIP3    H142743   6.847   4.972   3.337 -0.3909 -1.6462  0.4062
 7084TIP3    H242744   6.759   4.871   3.268 -3.0595  0.8313 -0.0174
 7085TIP3   OH242745   2.695   1.996  14.551 -0.4580 -0.1472 -0.3246
 7085TIP3    H142746   2.626   2.014  14.488  0.0503 -0.2827 -0.9314
 7085TIP3    H242747   2.774   1.988  14.498  0.6484  3.1468  0.5834
 7086TIP3   OH242748   2.599   1.268  16.621  0.7857 -0.0523 -0.2206
 7086TIP3    H142749   2.613   1.214  16.544  2.1953  0.0995 -0.1076
 7086TIP3    H242750   2.512   1.306  16.609 -1.2536 -3.9253  0.6915
 7087TIP3   OH242751   1.956   2.819  16.420 -0.4135  0.4296  0.4065
 7087TIP3    H142752   1.944   2.725  16.433 -2.9098  0.5750 -0.3280
 7087TIP3    H242753   1.897   2.860  16.482 -0.5219  1.4766 -0.3473
 7088TIP3   OH242754   3.672   2.433  17.173  0.1863  0.0177 -0.0536
 7088TIP3    H142755   3.757   2.474  17.156 -0.1652  0.3453 -1.0845
 7088TIP3    H242756   3.641   2.474  17.254  0.0740  1.4271 -0.7919
 7089TIP3   OH242757   6.751   0.143   1.132 -0.2156  0.3485 -0.3161
 7089TIP3    H142758   6.762   0.164   1.039  0.4322 -0.7956 -0.5089
 7089TIP3    H242759   6.690   0.070   1.132  1.4304 -1.0743  0.0006
 7090TIP3   OH242760   6.436   5.003  10.971  0.1814  0.2668  0.2012
 7090TIP3    H142761   6.405   5.093  10.958  0.8104  0.9413  2.8104
 7090TIP3    H242762   6.448   4.969  10.883 -0.5024  2.5857 -0.8664
 7091TIP3   OH242763   2.228   1.407  10.196  0.1403 -0.2983  0.0373
 7091TIP3    H142764   2.263   1.375  10.279 -2.3088  0.3648  1.4359
 7091TIP3    H242765   2.158   1.468  10.221 -0.4947  0.1524 -2.5120
 7092TIP3   OH242766   4.075   4.322   4.582 -0.0513 -0.5632 -0.1476
 7092TIP3    H142767   4.159   4.278   4.566  0.8775  1.0160  0.0981
 7092TIP3    H242768   4.066   4.382   4.508  0.1475  0.8298  0.9137
 7093TIP3   OH242769   2.977   2.355  16.334  0.1355  0.1084 -0.0115
 7093TIP3    H142770   3.024   2.298  16.273 -1.8813 -1.1435 -0.4753
 7093TIP3    H242771   2.959   2.298  16.409 -0.5285  0.6095  0.2080
 7094TIP3   OH242772   6.277   4.691  11.131 -0.3214 -0.8775 -0.2681
 7094TIP3    H142773   6.362   4.673  11.091 -0.1006 -1.3238  0.4050
 7094TIP3    H242774   6.280   4.649  11.217 -1.3359 -1.1562 -0.3533
 7095TIP3   OH242775   1.967   1.866  14.162 -0.8956 -0.6193  0.5565
 7095TIP3    H142776   1.932   1.783  14.131 -0.9917 -1.0037  1.6306
 7095TIP3    H242777   1.889   1.919  14.181 -0.8487 -0.5755  0.6276
 7096TIP3   OH242778   6.808   5.621   5.930 -0.4421  0.1619  0.0508
 7096TIP3    H142779   6.718   5.595   5.910 -0.3769  1.2898 -1.9915
 7096TIP3    H242780   6.862   5.563   5.878 -0.1756  1.8264 -1.6391
 7097TIP3   OH242781   5.784   1.670  14.795 -0.0575  0.3679  0.1002
 7097TIP3    H142782   5.779   1.757  14.755 -0.3194  0.8863  1.2303
 7097TIP3    H242783   5.790   1.687  14.889  1.5579 -0.7949  0.2512
 7098TIP3   OH242784   5.586   1.606   3.322  0.5068 -0.3653 -0.1627
 7098TIP3    H142785   5.628   1.554   3.253 -0.0027  0.8988 -1.4791
 7098TIP3    H242786   5.494   1.581   3.318 -0.3003  2.4800 -2.7020
 7099TIP3   OH242787   4.311   5.399   2.752  0.2617  0.3369  0.2653
 7099TIP3    H142788   4.387   5.453   2.730  0.0224  1.0010  1.0033
 7099TIP3    H242789   4.347   5.325   2.800  0.6191 -0.3141 -0.9542
 7100TIP3   OH242790   1.992   5.989  14.479  0.4438  0.5482 -0.4938
 7100TIP3    H142791   2.016   5.919  14.418  0.9333  0.8892 -0.6955
 7100TIP3    H242792   1.950   5.944  14.552  2.7528 -0.2207  0.4497
 7101TIP3   OH242793   3.238   1.206   1.218 -0.4957  0.4007  0.3151
 7101TIP3    H142794   3.330   1.182   1.231 -0.2021  1.7101  0.7308
 7101TIP3    H242795   3.229   1.292   1.259 -1.6565  0.7656 -0.6504
 7102TIP3   OH242796   2.705   4.865  16.972  0.0063  0.3934 -0.5472
 7102TIP3    H142797   2.656   4.896  17.048  2.7727  3.0211  0.3413
 7102TIP3    H242798   2.638   4.851  16.905 -2.0701  3.7453  0.5584
 7103TIP3   OH242799   3.768   1.078   2.594 -0.1339  0.4084  0.7121
 7103TIP3    H142800   3.688   1.060   2.643 -1.2569  0.9840 -0.8455
 7103TIP3    H242801   3.782   1.000   2.540  0.5228  0.1945  1.1794
 7104TIP3   OH242802   4.242   6.475  15.989  0.6325 -0.0606 -0.3649
 7104TIP3    H142803   4.323   6.514  16.020  0.1423  1.3500 -0.7836
 7104TIP3    H242804   4.264   6.440  15.902  0.9020 -0.0757 -0.2908
 7105TIP3   OH242805   5.113   0.007   5.623 -0.8772 -0.7952  0.0429
 7105TIP3    H142806   5.189  -0.051   5.616 -0.2327 -0.0600  0.7961
 7105TIP3    H242807   5.101   0.019   5.717 -1.3662 -0.1712 -0.0945
 7106TIP3   OH242808   6.631   3.746   5.768  0.1284 -0.2045  0.3374
 7106TIP3    H142809   6.575   3.675   5.736  0.7712 -1.3078  1.5115
 7106TIP3    H242810   6.717   3.705   5.778  1.3527  1.6061 -2.0192
 7107TIP3   OH242811   2.664   2.527  12.435  0.1882  0.1007 -0.5563
 7107TIP3    H142812   2.713   2.495  12.360  0.7077  0.6644 -0.4656
 7107TIP3    H242813   2.730   2.562  12.494 -0.1900 -0.6042  0.3039
 7108TIP3   OH242814   5.673   5.654  16.979  0.1489 -0.5578  0.3207
 7108TIP3    H142815   5.650   5.668  17.071  1.2709 -2.4293  0.9393
 7108TIP3    H242816   5.629   5.725  16.932 -0.6399  0.3023  2.2639
 7109TIP3   OH242817   1.220   0.417   0.721 -0.0911  0.4886  0.1587
 7109TIP3    H142818   1.204   0.511   0.712 -1.0767  0.2444 -0.8420
 7109TIP3    H242819   1.303   0.403   0.677  1.0832  1.1741  2.0404
 7110TIP3   OH242820   0.579   6.776  11.540 -0.0064 -0.4182 -0.1660
 7110TIP3    H142821   0.630   6.754  11.619 -0.1967  1.2976  0.4810
 7110TIP3    H242822   0.488   6.770  11.568 -0.1570 -2.0826 -0.9314
 7111TIP3   OH242823   1.219   6.733   4.617 -0.2373 -0.0403  0.4606
 7111TIP3    H142824   1.149   6.701   4.561  0.1815  0.3643 -0.3051
 7111TIP3    H242825   1.237   6.660   4.676 -0.1214 -0.7825 -0.4735
 7112TIP3   OH242826   5.004   3.118   5.657  0.8844 -0.0698  0.2970
 7112TIP3    H142827   5.007   3.029   5.692 -0.4614  0.1708  1.0971
 7112TIP3    H242828   4.968   3.171   5.728 -1.1286  0.5875 -1.0914
 7113TIP3   OH242829   2.779   1.876   4.817  0.0167  0.1094 -0.4210
 7113TIP3    H142830   2.759   1.946   4.755 -0.9705 -0.8131 -1.1630
 7113TIP3    H242831   2.778   1.796   4.765 -1.7905 -0.8151  0.9240
 7114TIP3   OH242832   3.716   1.847  13.760 -0.4161  0.3763 -0.5004
 7114TIP3    H142833   3.705   1.795  13.839  2.1705  0.3373 -0.0509
 7114TIP3    H242834   3.628   1.869  13.732 -1.4936 -1.8913  0.8568
 7115TIP3   OH242835   3.778   4.841  15.898  0.0315  0.4281 -1.4944
 7115TIP3    H142836   3.773   4.749  15.872 -0.1065 -0.7690  2.1900
 7115TIP3    H242837   3.869   4.866  15.882  0.4134 -0.7768 -1.3048
 7116TIP3   OH242838   3.233   2.789   1.272 -0.7091 -0.1048 -0.2058
 7116TIP3    H142839   3.243   2.749   1.359  1.8326 -1.3348 -0.9530
 7116TIP3    H242840   3.147   2.762   1.242  0.3464 -4.1998 -0.1468
 7117TIP3   OH242841   0.719   0.433   6.329 -0.0286  0.2296  0.0475
 7117TIP3    H142842   0.717   0.387   6.412  1.0335  0.2023  0.0778
 7117TIP3    H242843   0.794   0.492   6.337  2.0059 -1.8817 -1.9513
 7118TIP3   OH242844   0.073   6.446   2.571  0.1238  0.6141 -0.2748
 7118TIP3    H142845   0.057   6.400   2.489  0.1032 -0.0679  0.1040
 7118TIP3    H242846   0.067   6.378   2.638  1.9192  0.8152  0.1369
 7119TIP3   OH242847   1.115   4.959  12.881 -0.1400 -0.4269  0.0971
 7119TIP3    H142848   1.025   4.980  12.908  0.6540  0.0977  2.6881
 7119TIP3    H242849   1.107   4.881  12.827 -2.1939 -0.0195 -0.2642
 7120TIP3   OH242850   6.620   0.383   4.558 -0.0686 -0.2357 -0.4060
 7120TIP3    H142851   6.631   0.389   4.463 -0.0279 -0.2279 -0.4011
 7120TIP3    H242852   6.688   0.441   4.593  0.0121 -0.3546 -0.3685
 7121TIP3   OH242853   6.578   4.831  15.335  0.4945  0.3658  0.1954
 7121TIP3    H142854   6.507   4.841  15.398 -0.9106 -1.6265 -0.9460
 7121TIP3    H242855   6.638   4.768  15.377 -0.1857 -0.5757 -0.2130
 7122TIP3   OH242856   6.489   0.276  11.307  0.1587 -0.6116  0.1426
 7122TIP3    H142857   6.423   0.208  11.295  1.5959 -2.0054 -0.1879
 7122TIP3    H242858   6.567   0.229  11.336  1.0657  0.9683  0.3941
 7123TIP3   OH242859   3.568   0.879   5.256 -0.3708 -0.4839 -0.0140
 7123TIP3    H142860   3.559   0.830   5.338 -0.7397  0.9142  0.8133
 7123TIP3    H242861   3.478   0.901   5.232 -0.1781  0.3546 -0.0040
 7124TIP3   OH242862   5.315   3.336   2.767 -0.0661  0.3088  0.1991
 7124TIP3    H142863   5.321   3.344   2.672  0.2703 -0.6589  0.1323
 7124TIP3    H242864   5.227   3.304   2.783  0.8412 -2.6875 -0.0541
 7125TIP3   OH242865   4.928   5.907  14.355 -0.0634  0.0152 -0.4240
 7125TIP3    H142866   4.924   5.814  14.332 -0.0041  0.0615 -0.6188
 7125TIP3    H242867   4.985   5.909  14.433 -1.5232 -0.3166  0.6978
 7126TIP3   OH242868   4.655   5.809  17.236 -0.3868 -0.1767  0.0365
 7126TIP3    H142869   4.596   5.804  17.311  0.4372 -3.3968  0.6231
 7126TIP3    H242870   4.603   5.776  17.163  0.0268 -1.0828  0.1344
 7127TIP3   OH242871   4.269   0.609  12.220  0.2777 -0.4006  0.1918
 7127TIP3    H142872   4.340   0.647  12.168 -0.0665 -0.4572 -0.3256
 7127TIP3    H242873   4.256   0.672  12.292  1.5720 -0.9167  0.9195
 7128TIP3   OH242874   2.017   6.253   0.094 -0.3189  0.1987 -0.5576
 7128TIP3    H142875   1.953   6.229   0.026 -0.7736  1.5738 -0.6447
 7128TIP3    H242876   1.964   6.293   0.163  0.2902 -0.0180  0.0447
 7129TIP3   OH242877   0.385   5.907   3.847 -0.0642 -0.1611  0.8351
 7129TIP3    H142878   0.421   5.827   3.809 -2.2553 -1.3077  0.9837
 7129TIP3    H242879   0.393   5.894   3.941  0.0921  0.0683  0.8548
 7130TIP3   OH242880   6.390   5.505   6.087 -0.2859  0.0441 -0.1024
 7130TIP3    H142881   6.303   5.545   6.092 -0.4232 -0.2647 -0.0496
 7130TIP3    H242882   6.409   5.477   6.177 -0.4858 -0.6496 -0.2764
 7131TIP3   OH242883   0.576   2.261  17.055 -0.1231 -0.2294  0.8918
 7131TIP3    H142884   0.648   2.221  17.103  2.1381  0.7189 -1.5120
 7131TIP3    H242885   0.533   2.188  17.010 -0.2978 -0.7161  1.8325
 7132TIP3   OH242886   4.014   0.777   4.200 -0.4495  0.5348 -0.5442
 7132TIP3    H142887   4.039   0.800   4.290  1.7379  0.2738 -1.0414
 7132TIP3    H242888   3.918   0.777   4.202 -0.4782  1.7877  1.4593
 7133TIP3   OH242889   6.065   6.089   4.011 -0.3043  0.3129  0.4933
 7133TIP3    H142890   6.120   6.128   3.942  0.5992 -1.7657 -0.0358
 7133TIP3    H242891   6.128   6.051   4.072 -1.1464  0.5982  1.5696
 7134TIP3   OH242892   4.452   3.869   0.937 -0.2609  0.9785  0.0047
 7134TIP3    H142893   4.366   3.829   0.926 -0.2350  0.6909  0.8004
 7134TIP3    H242894   4.507   3.824   0.872 -0.4656  0.4161  0.2107
 7135TIP3   OH242895   1.431   0.450   1.470  0.2273 -0.6273 -0.3234
 7135TIP3    H142896   1.446   0.527   1.525 -1.8800 -0.7104  0.4583
 7135TIP3    H242897   1.392   0.485   1.390 -1.2151 -0.8700  0.2382
 7136TIP3   OH242898   4.682   6.567   1.483 -0.2704  0.1008 -0.1311
 7136TIP3    H142899   4.768   6.609   1.478  0.0868 -0.7724 -3.3238
 7136TIP3    H242900   4.622   6.630   1.443 -0.5928 -0.4936 -0.5882
 7137TIP3   OH242901   5.173   5.690   0.927 -0.2273  0.1155  0.6830
 7137TIP3    H142902   5.237   5.698   0.856 -0.9413  2.7278  0.2458
 7137TIP3    H242903   5.165   5.595   0.941 -0.8582 -0.6347 -3.4434
 7138TIP3   OH242904   3.571   0.113   0.034 -0.1866  0.7786  0.2208
 7138TIP3    H142905   3.519   0.060   0.094 -0.6504  1.0267  0.0474
 7138TIP3    H242906   3.554   0.204   0.060  3.1913  0.8809  2.6935
 7139TIP3   OH242907   2.927   6.140  12.990  0.0112  0.3391  0.6818
 7139TIP3    H142908   3.014   6.180  12.990 -1.0029  2.7030  0.3686
 7139TIP3    H242909   2.883   6.178  13.067 -0.6403 -1.0908  1.0413
 7140TIP3   OH242910   1.407   5.039  12.756 -1.0227 -0.1641  0.0609
 7140TIP3    H142911   1.471   5.011  12.821  0.3108  1.2703 -0.5760
 7140TIP3    H242912   1.324   5.002  12.787  0.0966 -2.2392  0.8146
 7141TIP3   OH242913   5.688   2.338   3.271 -0.1017  0.7453 -0.2096
 7141TIP3    H142914   5.657   2.399   3.204  0.3480  0.1259 -1.0167
 7141TIP3    H242915   5.713   2.260   3.221 -0.8667 -0.1761  0.8236
 7142TIP3   OH242916   6.209   4.957   5.606  0.1114  0.5587 -0.4373
 7142TIP3    H142917   6.255   4.942   5.524 -0.0178 -1.9427 -0.1145
 7142TIP3    H242918   6.123   4.916   5.594  0.5145 -0.9308  1.2916
 7143TIP3   OH242919   4.394   1.936  14.779  0.1850 -0.0124 -0.6783
 7143TIP3    H142920   4.487   1.927  14.801  0.5922  1.8900 -1.4562
 7143TIP3    H242921   4.349   1.896  14.853  1.5963  0.9432  0.7753
 7144TIP3   OH242922   2.827   4.072   1.958 -0.4367  0.3366  0.4008
 7144TIP3    H142923   2.760   4.011   1.988 -1.6480  0.3911 -1.9325
 7144TIP3    H242924   2.909   4.027   1.972 -1.2669 -1.6776 -0.7686
 7145TIP3   OH242925   0.046   5.655  17.078  0.4097 -0.0770  0.3273
 7145TIP3    H142926   0.121   5.709  17.102  0.3766  0.1780 -0.1334
 7145TIP3    H242927  -0.029   5.699  17.118  0.5426 -0.5345  1.0997
 7146TIP3   OH242928   2.480   5.388  14.620  0.4831 -0.0488  0.1326
 7146TIP3    H142929   2.410   5.412  14.559  1.6359  3.1747 -0.1208
 7146TIP3    H242930   2.525   5.315  14.578 -1.9581 -1.4607 -0.2188
 7147TIP3   OH242931   6.097   1.791  16.094  0.8584 -0.3846  0.0268
 7147TIP3    H142932   6.183   1.822  16.121 -0.1299  2.5361  0.0945
 7147TIP3    H242933   6.089   1.819  16.003  0.8621 -2.8099 -0.7984
 7148TIP3   OH242934   6.104   3.446   3.995  0.6578  0.2725 -0.8206
 7148TIP3    H142935   6.183   3.391   3.995  1.1688  0.9849 -1.2111
 7148TIP3    H242936   6.138   3.536   3.995 -0.1580  0.5982  0.2431
 7149TIP3   OH242937   3.030   6.073  16.734  0.2115  0.1035  0.3979
 7149TIP3    H142938   3.014   5.991  16.687  1.7404 -0.8431  1.3980
 7149TIP3    H242939   2.964   6.074  16.804  1.7240 -1.6751  1.9870
 7150TIP3   OH242940   1.621   1.758   3.935 -0.5231 -0.5133 -0.2802
 7150TIP3    H142941   1.696   1.711   3.971 -0.4651 -0.9009 -0.9093
 7150TIP3    H242942   1.599   1.712   3.855 -1.3508 -0.3167 -0.1739
 7151TIP3   OH242943   2.227   1.748   5.477 -0.0086  0.2381  0.2365
 7151TIP3    H142944   2.153   1.692   5.455  1.1847 -0.5212 -2.2539
 7151TIP3    H242945   2.281   1.748   5.398  2.0723  1.6947  1.5572
 7152TIP3   OH242946   4.490   5.598  12.531 -0.0736  0.0732 -0.1538
 7152TIP3    H142947   4.412   5.654  12.521 -0.6227 -0.8882 -1.6346
 7152TIP3    H242948   4.523   5.618  12.618 -1.6799  0.8923  0.3068
 7153TIP3   OH242949   3.723   0.291  11.528 -0.0956  0.2351 -0.2182
 7153TIP3    H142950   3.737   0.375  11.572 -1.9311 -1.0164  3.0784
 7153TIP3    H242951   3.646   0.305  11.473 -2.2387  0.1165  2.5356
 7154TIP3   OH242952   3.553   5.190   4.455 -0.1605  0.0832 -0.6668
 7154TIP3    H142953   3.562   5.095   4.454 -2.0749 -0.1525 -0.3919
 7154TIP3    H242954   3.558   5.214   4.547 -1.2583  0.0230 -0.5724
 7155TIP3   OH242955   5.022   4.970   0.226  0.2649 -0.1234  1.0331
 7155TIP3    H142956   5.102   4.972   0.173  0.3624  1.6100  1.1866
 7155TIP3    H242957   4.967   5.039   0.188 -1.0562 -1.0944  1.1103
 7156TIP3   OH242958   3.723   1.728   5.950  0.0982  0.2625 -0.8391
 7156TIP3    H142959   3.701   1.642   5.916  1.2800  0.2238 -1.5776
 7156TIP3    H242960   3.818   1.724   5.966  0.0611  1.2202 -0.2800
 7157TIP3   OH242961   6.581   4.727   4.711  0.0522 -0.0777 -0.3575
 7157TIP3    H142962   6.535   4.689   4.636 -0.4407  1.0063 -0.6166
 7157TIP3    H242963   6.657   4.771   4.673 -0.2866  0.6109 -0.2373
 7158TIP3   OH242964   2.024   3.240   3.747  0.5967 -0.8634 -0.5530
 7158TIP3    H142965   2.090   3.198   3.691 -0.4456 -1.1399 -1.5987
 7158TIP3    H242966   2.013   3.327   3.710  0.7082 -0.6474 -0.0854
 7159TIP3   OH242967   1.558   3.484  12.402  0.0698 -0.2598  0.2593
 7159TIP3    H142968   1.549   3.498  12.496  1.1467 -1.8701  0.6403
 7159TIP3    H242969   1.492   3.418  12.381 -0.3512  0.2897 -0.1878
 7160TIP3   OH242970   3.006   2.748   2.430  0.1378 -0.6131 -0.6134
 7160TIP3    H142971   2.913   2.731   2.446  0.2294 -0.8853 -0.3693
 7160TIP3    H242972   3.024   2.830   2.475 -0.2070 -0.0759 -1.4429
 7161TIP3   OH242973   2.085   5.595   2.596  0.7645 -0.5820  0.3481
 7161TIP3    H142974   2.039   5.603   2.679  1.9894  0.9378  0.9195
 7161TIP3    H242975   2.151   5.665   2.597  1.4905 -1.1639 -1.4581
 7162TIP3   OH242976   4.763   2.603  16.663  0.6771  0.0670 -0.8206
 7162TIP3    H142977   4.809   2.541  16.607  1.1881  0.9888 -1.4666
 7162TIP3    H242978   4.789   2.689  16.628 -0.2503  0.6279 -0.1538
 7163TIP3   OH242979   1.422   0.074   1.217 -0.2378 -0.0040 -0.0553
 7163TIP3    H142980   1.435   0.004   1.281  0.3092 -0.9823 -1.2098
 7163TIP3    H242981   1.493   0.136   1.235  0.0835 -0.4146  0.0966
 7164TIP3   OH242982   2.477   1.738   3.887  0.2080 -0.0978 -0.9567
 7164TIP3    H142983   2.562   1.715   3.849  0.4734  0.5309 -0.7526
 7164TIP3    H242984   2.433   1.790   3.820  0.1892 -0.0025 -0.8712
 7165TIP3   OH242985   4.594   6.417   3.622 -0.1218 -0.2584 -0.1542
 7165TIP3    H142986   4.566   6.506   3.598  2.9229  1.4173  1.9047
 7165TIP3    H242987   4.581   6.412   3.716 -0.6790 -2.2479 -0.2877
 7166TIP3   OH242988   0.102   1.818  16.854 -0.7604 -0.1507  0.2323
 7166TIP3    H142989   0.098   1.767  16.773  0.4155 -0.2990  0.2497
 7166TIP3    H242990   0.083   1.908  16.827  2.7005  0.4158 -0.8539
 7167TIP3   OH242991   3.360   2.442   5.561  0.2979 -0.4326 -0.1896
 7167TIP3    H142992   3.433   2.459   5.501 -0.4753 -0.4694 -1.1569
 7167TIP3    H242993   3.349   2.524   5.608  2.2126 -1.0041  1.3881
 7168TIP3   OH242994   1.321   3.063  15.499  0.1910 -0.0302 -0.3432
 7168TIP3    H142995   1.377   3.040  15.424 -0.0419  0.0730 -0.5469
 7168TIP3    H242996   1.287   3.150  15.478 -2.2587 -1.1791 -1.5443
 7169TIP3   OH242997   4.079   6.567  11.166 -0.0182 -0.2941 -0.3069
 7169TIP3    H142998   4.121   6.485  11.191 -1.7218 -2.1293 -2.9046
 7169TIP3    H242999   3.992   6.562  11.205  1.0009  2.1541  2.6583
 7170TIP3   OH243000   5.387   0.278   5.994 -0.0355  0.2702 -0.4831
 7170TIP3    H143001   5.463   0.279   5.935  1.2023  0.0344  1.0360
 7170TIP3    H243002   5.425   0.273   6.081 -1.8234  0.3621  0.3415
 7171TIP3   OH243003   0.136   1.891   2.982 -0.1038  0.2032 -0.3563
 7171TIP3    H143004   0.130   1.875   3.076 -1.7495 -2.2082 -0.7943
 7171TIP3    H243005   0.227   1.873   2.959  0.2164  0.4563  0.6889
 7172TIP3   OH243006   5.735   0.735  13.663 -0.1265 -0.2134  0.1310
 7172TIP3    H143007   5.765   0.748  13.753  1.3686 -1.6222 -0.1260
 7172TIP3    H243008   5.653   0.686  13.673 -0.1895  0.0024  0.7328
 7173TIP3   OH243009   0.254   3.488  15.056  0.2168  0.3798  0.0570
 7173TIP3    H143010   0.286   3.456  14.972  0.1152  0.7635 -0.1306
 7173TIP3    H243011   0.180   3.431  15.077  0.3722  0.1522 -0.0127
 7174TIP3   OH243012   1.466   2.321  12.995  1.0204  0.1287  0.2123
 7174TIP3    H143013   1.479   2.366  12.912 -0.3969 -0.0181 -0.1239
 7174TIP3    H243014   1.409   2.247  12.973 -0.9980  1.1871  1.5891
 7175TIP3   OH243015   3.271   6.530   3.247 -0.3091  0.1800  0.0025
 7175TIP3    H143016   3.365   6.516   3.263 -0.7512 -2.5559  0.6549
 7175TIP3    H243017   3.228   6.494   3.325 -1.9645 -0.5329 -1.1924
 7176TIP3   OH243018   2.385   4.483  14.134 -0.1237  0.4129 -0.3892
 7176TIP3    H143019   2.322   4.516  14.071  1.1598  1.9637 -0.9075
 7176TIP3    H243020   2.421   4.404  14.093 -0.9081  0.1399 -0.5689
 7177TIP3   OH243021   4.556   4.885  16.767  0.2502 -0.4632  0.5513
 7177TIP3    H143022   4.638   4.837  16.753 -0.6827 -2.6294  1.8715
 7177TIP3    H243023   4.574   4.941  16.843  1.1039  0.6708 -0.4648
 7178TIP3   OH243024   1.257   0.727  14.584  0.3073  0.2367  0.3660
 7178TIP3    H143025   1.202   0.695  14.655  0.9281 -0.1201  0.6922
 7178TIP3    H243026   1.345   0.698  14.606  0.3617 -0.9032 -1.1420
 7179TIP3   OH243027   4.182   5.172  12.330  0.0678 -0.4564 -0.5998
 7179TIP3    H143028   4.259   5.125  12.362  0.0116 -0.0881  0.1078
 7179TIP3    H243029   4.112   5.146  12.389 -0.4155 -0.9826 -1.3940
 7180TIP3   OH243030   0.965   3.631   0.057 -0.0047  0.3789  0.0565
 7180TIP3    H143031   1.036   3.685   0.093  0.6161 -0.3517 -0.0406
 7180TIP3    H243032   0.986   3.624  -0.037 -0.3095  0.3143 -0.0068
 7181TIP3   OH243033   3.213   2.634   5.370 -0.7819 -0.0946 -1.1289
 7181TIP3    H143034   3.268   2.651   5.446  1.0875  0.4713 -2.5397
 7181TIP3    H243035   3.127   2.613   5.407  0.2284 -0.5418  1.1449
 7182TIP3   OH243036   3.274   4.500   1.713 -0.2523  0.4475  0.6015
 7182TIP3    H143037   3.269   4.430   1.778  0.8756 -1.1991 -0.9891
 7182TIP3    H243038   3.363   4.534   1.722 -0.4961  1.0437  0.7463
 7183TIP3   OH243039   5.691   4.411  12.318  0.1069 -0.1532 -0.4946
 7183TIP3    H143040   5.710   4.500  12.286  0.2273  0.1020  0.2673
 7183TIP3    H243041   5.775   4.366  12.313  0.5685  0.4337  1.1459
 7184TIP3   OH243042   0.489   6.685   2.089  0.0259 -0.1954 -0.0202
 7184TIP3    H143043   0.421   6.681   2.156 -0.8155 -0.4555 -0.8492
 7184TIP3    H243044   0.440   6.696   2.007  1.0718  1.7881 -0.4409
 7185TIP3   OH243045   1.694   6.057   3.858 -0.6146 -0.5121  0.5693
 7185TIP3    H143046   1.760   6.085   3.795  0.8457 -0.7726  1.9046
 7185TIP3    H243047   1.699   6.122   3.928 -2.8366  0.2848  0.0640
 7186TIP3   OH243048   4.455   2.825  12.165  0.8175 -0.1564  0.3953
 7186TIP3    H143049   4.513   2.868  12.102  1.1238 -0.3491  0.5406
 7186TIP3    H243050   4.376   2.879  12.167  0.8143 -0.1411 -0.1392
 7187TIP3   OH243051   4.802   5.401  15.602  0.9692 -0.5035  0.0666
 7187TIP3    H143052   4.872   5.405  15.536  0.9433 -2.5466 -0.1354
 7187TIP3    H243053   4.781   5.308  15.609 -1.1353 -0.0176  0.7751
 7188TIP3   OH243054   3.535   5.396  16.357  0.2836  0.0020  0.0054
 7188TIP3    H143055   3.585   5.331  16.406  0.5929 -0.1221 -0.4737
 7188TIP3    H243056   3.472   5.431  16.421  0.3985 -0.4617  0.3740
 7189TIP3   OH243057   2.785   1.614  15.949 -0.0386 -0.4850 -0.2032
 7189TIP3    H143058   2.857   1.560  15.917 -0.2630 -0.5841 -0.5419
 7189TIP3    H243059   2.736   1.556  16.007 -0.7508 -0.9139 -1.1997
 7190TIP3   OH243060   3.635   3.702   2.050 -0.3667 -0.1957  0.0777
 7190TIP3    H143061   3.580   3.713   1.972  0.8809  1.0278 -0.6713
 7190TIP3    H243062   3.722   3.682   2.015  0.4089  1.2276  1.0957
 7191TIP3   OH243063   0.049   3.398   5.687  0.0455  0.4402  0.1122
 7191TIP3    H143064   0.031   3.385   5.593 -1.5777 -0.8594  0.5553
 7191TIP3    H243065   0.128   3.346   5.703 -0.1208  0.0118 -0.3942
 7192TIP3   OH243066   3.243   1.049  15.642  0.3962  0.6203  0.0497
 7192TIP3    H143067   3.273   1.111  15.575  1.4634  0.0950  0.0216
 7192TIP3    H243068   3.199   0.981  15.593 -1.1031  1.5032  0.1076
 7193TIP3   OH243069   3.186   2.492  16.045 -0.0754  0.1961  0.0758
 7193TIP3    H143070   3.272   2.498  16.005 -0.0784 -0.5835 -0.0549
 7193TIP3    H243071   3.127   2.472  15.972 -0.3803  0.8110  0.1512
 7194TIP3   OH243072   5.181   0.912   4.817  0.1340  0.5186 -0.5617
 7194TIP3    H143073   5.216   0.977   4.878  0.8591 -0.5718  0.2444
 7194TIP3    H243074   5.252   0.848   4.808 -0.7582 -0.4554 -0.8479
 7195TIP3   OH243075   4.154   1.850   4.499  0.6873 -0.1046  0.3355
 7195TIP3    H143076   4.245   1.880   4.491  1.1607 -1.4789  0.3468
 7195TIP3    H243077   4.116   1.909   4.563  1.9060 -0.1884  1.1835
 7196TIP3   OH243078   0.368   0.850  17.256  0.0556 -0.2883 -0.0737
 7196TIP3    H143079   0.298   0.914  17.247 -0.4705 -0.7351  0.6639
 7196TIP3    H243080   0.322   0.768  17.275  0.7046 -0.9204 -1.1215
 7197TIP3   OH243081   5.378   1.366  13.084 -0.2474  0.0925 -0.5973
 7197TIP3    H143082   5.403   1.444  13.134 -1.2523  0.0290  0.0394
 7197TIP3    H243083   5.375   1.396  12.993 -0.2956  0.7133 -0.3956
 7198TIP3   OH243084   3.998   0.988   3.505  0.6908  0.0799 -0.1816
 7198TIP3    H143085   3.983   0.895   3.488 -0.8018  0.1591  0.4997
 7198TIP3    H243086   4.049   0.989   3.586  0.1624 -0.1504  0.1614
 7199TIP3   OH243087   3.423   4.705   5.192 -0.3645  0.2810  0.3291
 7199TIP3    H143088   3.491   4.649   5.230 -0.3870  0.2557  0.3316
 7199TIP3    H243089   3.472   4.772   5.144 -0.3379 -0.6163 -0.9499
 7200TIP3   OH243090   3.023   3.852   4.438 -0.0319  0.3568 -0.5272
 7200TIP3    H143091   3.058   3.768   4.407  0.7471 -0.2199  1.7745
 7200TIP3    H243092   3.089   3.916   4.411 -0.0597  0.0916 -1.2630
 7201TIP3   OH243093   4.400   3.730  15.115 -0.2298 -0.0188 -0.1361
 7201TIP3    H143094   4.310   3.752  15.092 -0.1532 -1.5809 -2.2065
 7201TIP3    H243095   4.450   3.746  15.035  1.4594  1.2727  1.0989
 7202TIP3   OH243096   5.672   2.510  15.552 -0.2170 -0.0176 -0.5374
 7202TIP3    H143097   5.604   2.555  15.501 -0.4492  0.5160  0.2288
 7202TIP3    H243098   5.677   2.423  15.512 -0.6538  0.2598 -1.2349
 7203TIP3   OH243099   0.514   3.437  12.930 -0.6135  0.0210 -0.2358
 7203TIP3    H143100   0.433   3.405  12.891 -0.6736 -0.0499 -0.0567
 7203TIP3    H243101   0.519   3.529  12.904 -0.3682 -0.1688 -0.8725
 7204TIP3   OH243102   0.043   0.941   0.728 -0.3775 -0.0444 -0.2438
 7204TIP3    H143103   0.130   0.901   0.719  0.8603  1.6213  2.7257
 7204TIP3    H243104   0.052   1.026   0.686 -0.2372  0.4657  0.7713
 7205TIP3   OH243105   5.428   4.490   2.009 -0.0161  0.5728  0.0743
 7205TIP3    H143106   5.497   4.555   2.010 -0.8459  1.4929 -0.3777
 7205TIP3    H243107   5.423   4.462   1.918 -1.4229  1.8648 -0.2967
 7206TIP3   OH243108   1.743   1.405  10.391  0.6217 -0.3104  0.0527
 7206TIP3    H143109   1.798   1.338  10.350  2.0399 -0.2419  1.7067
 7206TIP3    H243110   1.669   1.356  10.428  0.6902 -0.7026 -0.3235
 7207TIP3   OH243111   2.848   5.731   1.396 -0.2151 -0.6962  0.2671
 7207TIP3    H143112   2.805   5.682   1.466 -0.5695 -1.6022 -0.5683
 7207TIP3    H243113   2.797   5.711   1.318  1.2268 -1.1154 -0.5897
 7208TIP3   OH243114   3.064   2.443   2.541 -0.6039 -0.0509  0.1018
 7208TIP3    H143115   3.044   2.353   2.568 -1.2169  0.0618  0.0547
 7208TIP3    H243116   3.058   2.442   2.446  0.4783 -0.1998  0.0241
 7209TIP3   OH243117   4.946   1.194   6.596  0.5435 -0.1540 -0.3411
 7209TIP3    H143118   4.948   1.105   6.561  0.7106 -1.1877  2.1027
 7209TIP3    H243119   4.909   1.185   6.683 -0.4576  2.3610 -0.3966
 7210TIP3   OH243120   2.732   6.326   5.572 -0.0830  0.3360 -0.0072
 7210TIP3    H143121   2.749   6.374   5.490 -0.6757  0.5913  0.0109
 7210TIP3    H243122   2.778   6.243   5.562  0.4814  0.6723 -0.2839
 7211TIP3   OH243123   6.017   5.000  13.802 -0.0417  0.2532 -0.2184
 7211TIP3    H143124   5.950   5.005  13.734 -1.2046  0.3457  0.8919
 7211TIP3    H243125   6.025   5.089  13.836  0.0127  0.0835  0.2327
 7212TIP3   OH243126   2.966   5.590  16.381  0.0686  0.1411  0.3298
 7212TIP3    H143127   3.049   5.610  16.338  0.2749  0.5327  0.9004
 7212TIP3    H243128   2.958   5.494  16.375 -0.3995  0.2565 -1.4586
 7213TIP3   OH243129   0.026   2.564  12.040  0.2134  0.1757 -0.0605
 7213TIP3    H143130  -0.044   2.511  12.001 -0.3814  0.2944  0.8225
 7213TIP3    H243131  -0.007   2.587  12.127  0.6250  1.6726 -0.2754
 7214TIP3   OH243132   4.028   0.005   2.083  0.4442 -0.1276 -0.6729
 7214TIP3    H143133   3.975  -0.050   2.025  1.4948  0.2753 -2.0861
 7214TIP3    H243134   4.110   0.017   2.035  0.4170  2.2939 -0.2473
 7215TIP3   OH243135   3.208   5.383  11.123 -0.0215 -0.1142  0.7090
 7215TIP3    H143136   3.165   5.395  11.039 -0.5624 -0.2656  0.9561
 7215TIP3    H243137   3.301   5.377  11.103 -0.2273 -1.2216  0.0040
 7216TIP3   OH243138   5.618   5.518   1.202 -0.3846  0.0806  0.3198
 7216TIP3    H143139   5.627   5.488   1.293  2.4517  0.6698  0.3086
 7216TIP3    H243140   5.532   5.559   1.199 -0.3006  0.5962  2.9183
 7217TIP3   OH243141   1.699   6.622   0.914  0.3290 -0.2364  1.2597
 7217TIP3    H143142   1.715   6.578   0.997 -0.8957 -1.2195  1.0042
 7217TIP3    H243143   1.614   6.589   0.886  1.0525 -0.5203 -0.7659
 7218TIP3   OH243144   6.039   6.330  14.385 -0.0966 -0.1954 -0.1227
 7218TIP3    H143145   6.064   6.238  14.371 -0.4467 -0.3628  0.3015
 7218TIP3    H243146   6.122   6.377  14.388  0.1954 -0.7479  1.3134
 7219TIP3   OH243147   4.961   2.163  14.018 -0.5123 -0.6538  0.4516
 7219TIP3    H143148   4.889   2.128  14.071  0.9161 -2.6637  1.1378
 7219TIP3    H243149   4.928   2.161  13.928 -1.4724 -1.0920  0.8043
 7220TIP3   OH243150   5.100   4.341   2.657  0.0229 -0.5055 -0.0610
 7220TIP3    H143151   5.140   4.418   2.697 -2.2730  0.0777  1.3006
 7220TIP3    H243152   5.049   4.301   2.727 -0.8179 -1.8480 -1.3781
 7221TIP3   OH243153   4.418   0.766  14.422  0.3229 -0.1033 -0.2235
 7221TIP3    H143154   4.410   0.695  14.485  2.0642  3.0445  4.0353
 7221TIP3    H243155   4.511   0.766  14.397  1.2085  2.3973  2.4923
 7222TIP3   OH243156   5.982   4.520  14.822  0.3536  0.1056 -0.0133
 7222TIP3    H143157   6.014   4.578  14.891  0.0707 -0.9505  1.0339
 7222TIP3    H243158   5.901   4.562  14.791 -1.3389 -0.9976  2.5885
 7223TIP3   OH243159   6.555   1.273   0.124 -0.3461  0.2180 -0.6600
 7223TIP3    H143160   6.596   1.324   0.193  0.4333 -0.0571 -0.9068
 7223TIP3    H243161   6.462   1.272   0.146 -0.1090  0.1546  0.3638
 7224TIP3   OH243162   4.411   3.088  14.009  0.4827  0.1123  0.1309
 7224TIP3    H143163   4.368   3.170  14.034  0.1662 -0.2114  0.6802
 7224TIP3    H243164   4.504   3.104  14.027  0.2327 -0.2035  1.8458
 7225TIP3   OH243165   4.589   0.030   2.698  0.3571 -0.5820 -0.2433
 7225TIP3    H143166   4.667  -0.023   2.715  0.9834  0.6062  0.8054
 7225TIP3    H243167   4.610   0.077   2.617  0.8548 -0.0987  0.1537
 7226TIP3   OH243168   3.521   4.542  11.410 -0.5002 -0.4747  0.1860
 7226TIP3    H143169   3.601   4.591  11.429 -0.8095 -0.4970  1.6979
 7226TIP3    H243170   3.541   4.492  11.332  0.7857 -0.0823  0.2431
 7227TIP3   OH243171   5.955   2.976   6.294 -0.2337 -0.2305 -0.2145
 7227TIP3    H143172   5.994   3.061   6.275  0.5955 -0.2665  1.1491
 7227TIP3    H243173   5.953   2.972   6.390  0.2541 -1.9652 -0.2391
 7228TIP3   OH243174   3.588   5.297   1.453  0.0164  0.4412 -0.1178
 7228TIP3    H143175   3.527   5.305   1.527  1.6423  0.4901  1.2872
 7228TIP3    H243176   3.630   5.383   1.448  2.7366 -0.6482  1.5518
 7229TIP3   OH243177   1.376   1.897   4.816  0.6852 -0.0977  0.1257
 7229TIP3    H143178   1.462   1.858   4.826  0.5789 -0.2489  0.4402
 7229TIP3    H243179   1.384   1.951   4.737  0.4006 -1.9507 -1.2535
 7230TIP3   OH243180   0.425   1.318   0.077 -0.1703 -0.2296 -0.4505
 7230TIP3    H143181   0.424   1.327  -0.019 -1.6980  0.8038 -0.3771
 7230TIP3    H243182   0.402   1.227   0.092 -1.7187  0.0152 -1.0839
 7231TIP3   OH243183   5.321   6.318   0.983  0.3647  0.4893  0.4130
 7231TIP3    H143184   5.243   6.346   0.935 -0.1710  0.6456  1.3352
 7231TIP3    H243185   5.394   6.339   0.926 -0.2949 -0.1219 -0.6979
 7232TIP3   OH243186   1.729   2.902  13.369 -1.0928  0.3776  0.4017
 7232TIP3    H143187   1.723   2.955  13.289  0.5659  1.0407  0.6847
 7232TIP3    H243188   1.755   2.964  13.436 -1.8677 -0.3029  1.3562
 7233TIP3   OH243189   4.375   3.044   0.175  0.3401 -0.1553  0.2395
 7233TIP3    H143190   4.400   2.996   0.096  1.6533 -0.7228  0.9816
 7233TIP3    H243191   4.298   3.095   0.148 -0.1358 -1.4538 -0.9891
 7234TIP3   OH243192   4.734   6.439   5.439  0.3345  0.4973  0.1358
 7234TIP3    H143193   4.725   6.401   5.527 -1.4415 -0.7965 -0.5545
 7234TIP3    H243194   4.714   6.531   5.451  0.5040  0.4169  1.1602
 7235TIP3   OH243195   6.447   5.564  13.415 -0.5973 -0.2690  0.0513
 7235TIP3    H143196   6.524   5.511  13.435 -1.7824 -2.3582 -0.6292
 7235TIP3    H243197   6.441   5.626  13.488  0.4466 -1.5461  1.2924
 7236TIP3   OH243198   4.954   5.055  15.559  0.0911 -1.0291  0.1842
 7236TIP3    H143199   4.907   5.037  15.477  1.6695 -0.8846 -0.7847
 7236TIP3    H243200   4.969   5.150  15.557  1.4274 -1.2282 -0.1120
 7237TIP3   OH243201   2.580   1.890  12.103  0.9656 -0.3890 -0.1246
 7237TIP3    H143202   2.509   1.847  12.057  0.3965  0.1981  0.1815
 7237TIP3    H243203   2.547   1.902  12.192  1.6389 -0.5612  0.1504
 7238TIP3   OH243204   4.312   1.555   0.301  0.0752  0.4053 -0.2846
 7238TIP3    H143205   4.354   1.543   0.386  0.6171  1.8640 -0.3156
 7238TIP3    H243206   4.371   1.512   0.239  1.5578  2.3481 -0.3127
 7239TIP3   OH243207   0.722   3.420  10.790 -0.6839  0.8216  0.1958
 7239TIP3    H143208   0.809   3.385  10.776 -0.9166  0.5886 -0.6904
 7239TIP3    H243209   0.719   3.500  10.737 -1.6392 -0.1788 -1.3444
 7240TIP3   OH243210   1.171   0.362  10.608 -0.2232  0.0693  0.6140
 7240TIP3    H143211   1.108   0.305  10.564  0.5537 -0.3163 -0.0226
 7240TIP3    H243212   1.240   0.303  10.638 -0.5655  0.3719  2.0566
 7241TIP3   OH243213   4.105   4.225   3.298 -0.1330  0.4235 -0.6440
 7241TIP3    H143214   4.097   4.295   3.233 -0.6319  1.0131  0.0368
 7241TIP3    H243215   4.149   4.266   3.372 -1.0090  0.1944  0.0128
 7242TIP3   OH243216   3.555   3.868   0.847  0.0650  0.4184  0.0267
 7242TIP3    H143217   3.615   3.880   0.772  1.5308 -0.3032  1.0333
 7242TIP3    H243218   3.514   3.783   0.831 -0.0577  0.5278 -0.2454
 7243TIP3   OH243219   0.499   3.111  13.762 -0.0715 -0.5266  0.1493
 7243TIP3    H143220   0.428   3.126  13.825 -1.4508 -1.6279 -1.0806
 7243TIP3    H243221   0.573   3.082  13.816 -0.6672  0.2237  1.4194
 7244TIP3   OH243222   3.609   4.227  13.883 -0.3485 -0.4214  0.2002
 7244TIP3    H143223   3.681   4.203  13.825  1.1556  0.9797  1.4092
 7244TIP3    H243224   3.544   4.267  13.825  0.2764 -0.7813 -0.7709
 7245TIP3   OH243225   4.933   2.873  10.928  0.7025  0.2408  0.3492
 7245TIP3    H143226   4.858   2.933  10.922 -0.8413 -1.7329 -2.4286
 7245TIP3    H243227   4.900   2.800  10.981  1.3826  0.2535  0.8020
 7246TIP3   OH243228   1.699   1.329  16.009  0.5435 -0.4561 -0.2204
 7246TIP3    H143229   1.723   1.405  16.062 -0.0953  0.7521 -1.6173
 7246TIP3    H243230   1.607   1.313  16.030  0.6328 -0.7614 -0.0485
 7247TIP3   OH243231   4.243   5.906  13.602  0.1481 -0.2514  0.8130
 7247TIP3    H143232   4.174   5.897  13.535 -0.4386  1.5023  1.1344
 7247TIP3    H243233   4.317   5.942  13.554 -0.2602  0.9703  1.0654
 7248TIP3   OH243234   0.972   2.683  16.525  0.0643 -0.6399 -0.3332
 7248TIP3    H143235   1.054   2.695  16.573  0.2778  1.1487 -1.0456
 7248TIP3    H243236   0.998   2.648  16.440  0.4843  2.2477 -1.5314
 7249TIP3   OH243237   2.367   1.777   4.709  0.1591 -0.4415 -0.1572
 7249TIP3    H143238   2.415   1.743   4.784 -2.5445 -1.7686  1.0945
 7249TIP3    H243239   2.429   1.772   4.636  2.5786  0.0605  1.7367
 7250TIP3   OH243240   6.316   0.041  16.962 -0.0982 -0.1466  0.4242
 7250TIP3    H143241   6.396   0.015  16.916 -0.1749 -0.6002  0.5409
 7250TIP3    H243242   6.345   0.106  17.026  0.1784 -0.3070  0.4627
 7251TIP3   OH243243   0.849   5.113  15.853  0.4826  0.3099  0.3311
 7251TIP3    H143244   0.882   5.188  15.803 -1.2895  1.2868  0.5773
 7251TIP3    H243245   0.757   5.106  15.828  0.4227 -1.3132  0.9057
 7252TIP3   OH243246   3.054   6.266   4.325  0.2136 -0.1432 -0.3677
 7252TIP3    H143247   2.974   6.312   4.350 -0.2071 -0.7892 -0.5026
 7252TIP3    H243248   3.024   6.186   4.282  0.8748 -1.4782  1.5044
 7253TIP3   OH243249   3.760   4.122  14.388 -0.1717 -0.1421  0.1029
 7253TIP3    H143250   3.743   4.043  14.336 -3.0393  0.3020  0.1623
 7253TIP3    H243251   3.761   4.193  14.323 -0.9411  0.1024  0.3447
 7254TIP3   OH243252   0.553   3.854  14.614 -0.1585 -0.4192 -0.2877
 7254TIP3    H143253   0.492   3.780  14.612 -0.1397 -0.4204 -0.9805
 7254TIP3    H243254   0.498   3.930  14.634 -0.2403 -0.5510  0.0064
 7255TIP3   OH243255   3.020   1.166  15.418 -0.2780  0.2552 -0.1266
 7255TIP3    H143256   3.003   1.259  15.400  1.0495  0.7823  1.1169
 7255TIP3    H243257   3.028   1.161  15.513  2.1843 -0.6097 -0.2988
 7256TIP3   OH243258   1.225   2.220   5.436  0.1250  0.0533 -0.6826
 7256TIP3    H143259   1.264   2.229   5.349  3.4521 -4.5562 -0.0232
 7256TIP3    H243260   1.170   2.142   5.430  0.1958 -0.1859  1.2863
 7257TIP3   OH243261   1.528   0.720   2.516 -0.0292 -0.5343  0.5273
 7257TIP3    H143262   1.603   0.693   2.463 -2.0055  1.0752 -3.4267
 7257TIP3    H243263   1.533   0.815   2.518  0.8626 -0.4387  4.9938
 7258TIP3   OH243264   0.258   4.435  11.730 -0.0365  0.2963  0.0564
 7258TIP3    H143265   0.280   4.476  11.814 -0.6202  1.1212 -0.1877
 7258TIP3    H243266   0.301   4.349  11.735 -0.8625 -0.0752  1.6023
 7259TIP3   OH243267   3.445   4.029  11.556 -0.0302 -0.3188  0.4333
 7259TIP3    H143268   3.390   4.045  11.480 -1.8986  0.0035  1.7677
 7259TIP3    H243269   3.465   4.116  11.590 -2.5269 -0.4045  2.4674
 7260TIP3   OH243270   5.043   1.375   0.056 -0.2666  0.3789  0.6314
 7260TIP3    H143271   5.110   1.307   0.061  0.0019  0.5595 -0.3524
 7260TIP3    H243272   5.072   1.432  -0.016 -2.5849 -0.7721 -1.3352
 7261TIP3   OH243273   1.824   5.975  16.978  0.3372 -0.1961 -0.5554
 7261TIP3    H143274   1.773   6.048  16.943 -1.8981 -1.4670 -0.1076
 7261TIP3    H243275   1.868   5.938  16.901 -2.9219 -1.7283 -1.8371
 7262TIP3   OH243276   6.816   2.672   4.603 -0.3862  0.1777 -0.5157
 7262TIP3    H143277   6.810   2.593   4.657  2.2015  0.2541  0.0291
 7262TIP3    H243278   6.726   2.702   4.593 -1.3411 -2.2517  0.1369
 7263TIP3   OH243279   5.949   2.403  10.469 -0.6166 -0.2947  0.1284
 7263TIP3    H143280   5.961   2.315  10.504 -1.4293 -0.7316 -0.6535
 7263TIP3    H243281   5.889   2.446  10.529  1.0693  0.3134  1.4431
 7264TIP3   OH243282   4.144   0.130  12.693  0.3092  0.2558  1.0237
 7264TIP3    H143283   4.157   0.042  12.656 -2.8051 -0.2156  0.8024
 7264TIP3    H243284   4.233   0.161  12.712  1.6517 -2.0620 -0.8638
 7265TIP3   OH243285   4.533   5.712  12.292  0.8599 -0.5243  0.0585
 7265TIP3    H143286   4.527   5.683  12.383  0.2554  1.5424  0.7128
 7265TIP3    H243287   4.482   5.647  12.243  1.8148 -2.0872  1.0416
 7266TIP3   OH243288   6.538   6.025   5.720  0.4625 -0.0706 -0.0820
 7266TIP3    H143289   6.607   6.013   5.654 -0.3186 -0.4393 -0.8506
 7266TIP3    H243290   6.580   6.002   5.802  1.7755  1.4040 -0.2708
 7267TIP3   OH243291   5.441   2.102  10.778  0.6013 -0.1748  0.1566
 7267TIP3    H143292   5.527   2.060  10.770  0.6266  0.2427 -3.8708
 7267TIP3    H243293   5.379   2.036  10.746  0.0856  1.1047 -1.6292
 7268TIP3   OH243294   5.016   3.016  13.428 -0.2770  0.1674 -0.5416
 7268TIP3    H143295   5.106   2.984  13.437 -0.6524 -1.1695 -1.2068
 7268TIP3    H243296   5.009   3.041  13.335 -0.7760 -0.3624 -0.6516
 7269TIP3   OH243297   2.898   4.961  11.287 -0.0228  0.4120  0.3733
 7269TIP3    H143298   2.902   5.007  11.203 -0.7254  1.3756  0.8461
 7269TIP3    H243299   2.805   4.940  11.298  0.0021  0.6657  1.0969
 7270TIP3   OH243300   1.222   5.699  12.058  0.6306  0.0209  0.3140
 7270TIP3    H143301   1.242   5.781  12.013  3.3337 -0.9290 -0.4462
 7270TIP3    H243302   1.128   5.700  12.071  0.1299  1.7624 -2.6382
 7271TIP3   OH243303   0.001   5.261  13.954 -0.4140  0.0618 -0.3840
 7271TIP3    H143304   0.089   5.290  13.979 -1.2128  1.4670  0.9065
 7271TIP3    H243305  -0.045   5.251  14.037 -1.5783 -0.3401 -1.0665
 7272TIP3   OH243306   5.783   6.484  11.359  0.3328 -0.0557 -0.2395
 7272TIP3    H143307   5.811   6.421  11.292  2.7595  0.1799  0.4654
 7272TIP3    H243308   5.807   6.569  11.324 -2.5486  0.5567 -0.9965
 7273TIP3   OH243309   3.616   3.325   2.222 -0.3956  0.1421 -0.3806
 7273TIP3    H143310   3.634   3.246   2.271 -1.2985  0.4733  0.5086
 7273TIP3    H243311   3.689   3.384   2.244  0.2901 -0.4255 -1.0649
 7274TIP3   OH243312   4.514   6.714  14.286  0.1955 -0.6951  0.2842
 7274TIP3    H143313   4.446   6.688  14.347  0.6150 -4.0784 -0.5322
 7274TIP3    H243314   4.468   6.761  14.216 -1.5513 -3.6743 -0.7100
 7275TIP3   OH243315   5.083   5.667  16.886 -0.1275 -0.3806 -0.3423
 7275TIP3    H143316   5.036   5.605  16.831  0.6454 -0.1208 -1.3282
 7275TIP3    H243317   5.058   5.753  16.851 -0.6014 -0.1589  0.5236
 7276TIP3   OH243318   0.948   3.765   1.463  0.4911  0.1797 -0.2390
 7276TIP3    H143319   1.034   3.724   1.460 -0.0839 -1.0004 -2.6962
 7276TIP3    H243320   0.967   3.858   1.475  1.9892 -0.2355  1.0656
 7277TIP3   OH243321   4.988   6.515   4.820  0.1982 -0.0013  0.2138
 7277TIP3    H143322   5.061   6.574   4.838 -0.9038  1.3420  0.3883
 7277TIP3    H243323   4.985   6.457   4.896  0.7420  0.2808  0.4571
 7278TIP3   OH243324   2.601   5.491  11.425 -0.8464  0.1193  0.5289
 7278TIP3    H143325   2.582   5.568  11.479  2.0357  0.4722  1.2145
 7278TIP3    H243326   2.651   5.434  11.482  1.4385  0.0443 -1.4030
 7279TIP3   OH243327   0.756   0.359  14.108 -0.0616  0.3813  0.1102
 7279TIP3    H143328   0.832   0.339  14.163  0.9085  1.7616 -0.6719
 7279TIP3    H243329   0.708   0.425  14.158 -0.5628 -0.2234  0.4373
 7280TIP3   OH243330   1.175   5.988   1.929  0.4644  0.4672 -0.2905
 7280TIP3    H143331   1.175   5.894   1.909  1.3361  0.2356  0.6803
 7280TIP3    H243332   1.128   6.028   1.856 -0.5961 -0.8001 -0.3339
 7281TIP3   OH243333   0.796   5.077  14.410 -0.9012 -0.4593 -0.5273
 7281TIP3    H143334   0.722   5.029  14.373 -2.1325  1.6792 -1.0181
 7281TIP3    H243335   0.757   5.130  14.479  0.7742 -1.6855  1.4526
 7282TIP3   OH243336   6.290   3.928  14.098 -0.4101 -0.6802 -0.1189
 7282TIP3    H143337   6.349   3.857  14.074  0.7161 -0.0009  0.5296
 7282TIP3    H243338   6.244   3.896  14.176 -0.6855 -1.0903 -0.4447
 7283TIP3   OH243339   6.408   0.179  10.434 -0.5154 -0.0340 -0.3377
 7283TIP3    H143340   6.478   0.114  10.428 -0.8510 -0.4761  0.3783
 7283TIP3    H243341   6.439   0.242  10.499 -0.8562 -0.3382  0.1284
 7284TIP3   OH243342   4.996   4.212  17.145  0.3048  0.0501  0.0201
 7284TIP3    H143343   4.936   4.268  17.095 -0.1333  0.5771  1.0976
 7284TIP3    H243344   5.057   4.177  17.080  0.1978  1.2832 -0.7675
 7285TIP3   OH243345   1.677   3.534   5.526  1.0102  0.5555 -0.2756
 7285TIP3    H143346   1.732   3.490   5.590 -1.7771 -1.7977  0.7077
 7285TIP3    H243347   1.623   3.465   5.488 -0.9760  2.6102 -1.4565
 7286TIP3   OH243348   4.101   3.407   3.675 -0.9481 -0.5341  0.0230
 7286TIP3    H143349   4.033   3.353   3.717 -1.4971  0.3096  0.2338
 7286TIP3    H243350   4.156   3.436   3.748  0.8094 -2.7553 -0.3207
 7287TIP3   OH243351   1.865   6.500  11.784  0.6426 -0.0630 -0.2293
 7287TIP3    H143352   1.942   6.556  11.792 -0.1054  0.7763  1.8331
 7287TIP3    H243353   1.864   6.447  11.864 -0.6047 -0.4606 -0.4763
 7288TIP3   OH243354   1.593   1.101  10.939 -0.1313 -0.2850  0.2439
 7288TIP3    H143355   1.638   1.028  10.982 -1.3979 -1.2342 -0.0069
 7288TIP3    H243356   1.659   1.137  10.879 -0.0390 -2.4727 -1.0965
 7289TIP3   OH243357   1.273   0.723  14.165 -0.3711 -0.0926  0.0073
 7289TIP3    H143358   1.192   0.673  14.173  0.8644 -1.8730  3.6011
 7289TIP3    H243359   1.342   0.661  14.187  1.9631  1.6445 -1.8123
 7290TIP3   OH243360   6.363   3.456   4.786 -0.3277 -0.0557 -0.0178
 7290TIP3    H143361   6.360   3.368   4.749 -1.3998  0.7035 -1.8723
 7290TIP3    H243362   6.438   3.498   4.743  0.9121 -0.3692  1.7194
 7291TIP3   OH243363   0.829   0.533  11.279  0.1937 -0.0378  0.2635
 7291TIP3    H143364   0.850   0.602  11.216 -0.2998 -0.5486 -0.4735
 7291TIP3    H243365   0.765   0.478  11.234  0.2585 -0.7355  1.0048
 7292TIP3   OH243366   2.612   2.826  16.892  0.2671 -0.1449  0.2190
 7292TIP3    H143367   2.596   2.827  16.798  0.0576 -1.7544  0.2198
 7292TIP3    H243368   2.688   2.769  16.903 -1.1005 -1.8794  1.1835
 7293TIP3   OH243369   3.318   5.866  12.025  0.1348  0.0151 -0.3855
 7293TIP3    H143370   3.258   5.792  12.039 -0.9169  1.1163  1.3699
 7293TIP3    H243371   3.345   5.858  11.933 -1.8932 -1.1334 -0.9534
 7294TIP3   OH243372   3.767   4.749   4.130  0.4982  0.0855 -0.0099
 7294TIP3    H143373   3.831   4.716   4.068 -0.3375 -0.5124 -0.5724
 7294TIP3    H243374   3.819   4.786   4.201  1.4668  0.6616 -0.9902
 7295TIP3   OH243375   0.846   0.512  15.512 -0.2109  0.4126  0.0218
 7295TIP3    H143376   0.760   0.483  15.483  0.3329  1.0637 -2.4441
 7295TIP3    H243377   0.887   0.433  15.548 -0.7677 -0.6165 -1.5129
 7296TIP3   OH243378   1.178   1.313   2.495 -0.6331 -0.0154 -0.0603
 7296TIP3    H143379   1.165   1.267   2.411 -0.2107 -2.0656  0.9334
 7296TIP3    H243380   1.245   1.261   2.540 -0.4228  1.3959  1.3160
 7297TIP3   OH243381   5.293   1.310   3.371 -0.4357  0.1740 -0.2600
 7297TIP3    H143382   5.277   1.404   3.366  1.9914  0.7240  0.8197
 7297TIP3    H243383   5.345   1.290   3.294  1.2953  0.3081  0.8120
 7298TIP3   OH243384   2.397   2.075  16.213 -0.0020 -0.2724  0.0821
 7298TIP3    H143385   2.400   2.040  16.124  1.9092  0.3043 -0.1267
 7298TIP3    H243386   2.411   2.169  16.203 -0.6080 -0.0757  0.9451
 7299TIP3   OH243387   2.424   0.269  13.109 -0.2215  0.3162  0.2320
 7299TIP3    H143388   2.417   0.176  13.092 -2.0946  0.7321 -1.5536
 7299TIP3    H243389   2.466   0.305  13.031 -0.2255  1.0740  0.5665
 7300TIP3   OH243390   2.222   3.981   2.532 -0.6126  0.2560  0.0282
 7300TIP3    H143391   2.283   4.052   2.554  0.9139 -1.6436  2.5485
 7300TIP3    H243392   2.141   4.003   2.579  0.1905 -0.0692  1.6564
 7301TIP3   OH243393   3.272   0.553  13.151 -0.1930  0.2273  0.1504
 7301TIP3    H143394   3.217   0.581  13.077 -0.4415  0.3702  0.3851
 7301TIP3    H243395   3.327   0.628  13.170  0.7998 -0.2533 -0.7284
 7302TIP3   OH243396   6.452   4.923   0.125 -0.1331 -0.1442  0.0388
 7302TIP3    H143397   6.410   4.844   0.160  0.9672 -1.1292 -0.8037
 7302TIP3    H243398   6.422   4.993   0.184 -3.6006 -0.5953 -0.9337
 7303TIP3   OH243399   1.723   4.353  12.339  0.0069  0.4170  0.3223
 7303TIP3    H143400   1.730   4.355  12.435  0.5488 -0.2979  0.3097
 7303TIP3    H243401   1.812   4.373  12.309  0.2386 -1.0198 -0.0005
 7304TIP3   OH243402   6.283   1.233  12.591  0.1414  0.2721 -0.2544
 7304TIP3    H143403   6.213   1.225  12.655  1.9838 -0.3875  1.8169
 7304TIP3    H243404   6.279   1.325  12.563 -2.5322 -0.1346 -1.5277
 7305TIP3   OH243405   4.490   0.439  12.393  0.1570  0.0960  0.4839
 7305TIP3    H143406   4.439   0.487  12.458 -1.7437 -0.3408 -0.6029
 7305TIP3    H243407   4.534   0.508  12.341 -1.7253  0.6696 -0.4241
 7306TIP3   OH243408   0.231   1.650   4.107 -0.1467 -0.8438 -0.1085
 7306TIP3    H143409   0.169   1.623   4.040  0.0309 -1.2674 -0.1026
 7306TIP3    H243410   0.303   1.691   4.058 -0.1305 -0.9323 -0.1575
 7307TIP3   OH243411   6.534   6.475   2.654 -0.2158  0.6343  0.3765
 7307TIP3    H143412   6.569   6.562   2.633  1.8186  0.0249  1.0153
 7307TIP3    H243413   6.538   6.427   2.571  1.2270  0.3540  0.5850
 7308TIP3   OH243414   1.437   1.996  12.701 -0.6437 -0.5194 -0.1134
 7308TIP3    H143415   1.519   1.985  12.750 -0.2298 -1.7918 -1.0282
 7308TIP3    H243416   1.376   2.033  12.764  0.9237  1.5276  0.2927
 7309TIP3   OH243417   2.256   5.698  16.119  0.0828  0.5632  0.1267
 7309TIP3    H143418   2.216   5.776  16.079 -0.7778 -0.2701 -0.6725
 7309TIP3    H243419   2.347   5.725  16.136  0.0216  1.4929 -0.8722
 7310TIP3   OH243420   6.055   5.057  16.667  0.7785 -0.1457 -0.5329
 7310TIP3    H143421   5.992   5.079  16.599  0.4157 -0.2518 -0.2340
 7310TIP3    H243422   6.018   5.093  16.747  0.4258 -1.3724 -0.1215
 7311TIP3   OH243423   4.831   1.661   5.537  0.1119  0.0682 -0.4001
 7311TIP3    H143424   4.870   1.581   5.571 -0.9776 -0.1787  0.3055
 7311TIP3    H243425   4.796   1.706   5.614 -0.3362  0.6352 -0.9210
 7312TIP3   OH243426   4.981   1.544   4.270 -0.1477 -0.0867  0.7525
 7312TIP3    H143427   4.961   1.452   4.252 -0.6875 -0.1690  1.6888
 7312TIP3    H243428   5.074   1.544   4.293  0.4578 -0.0354 -1.4565
 7313TIP3   OH243429   6.438   4.979  10.705 -0.4542  0.0553  0.7881
 7313TIP3    H143430   6.456   5.068  10.676 -0.1658 -0.6252 -1.2510
 7313TIP3    H243431   6.515   4.929  10.679 -2.2175 -1.5477 -1.8054
 7314TIP3   OH243432   3.149   1.228  12.462 -0.4042  0.2657 -0.4091
 7314TIP3    H143433   3.156   1.147  12.513 -1.3451 -0.9668 -2.1662
 7314TIP3    H243434   3.057   1.253  12.468 -0.1897  1.0441 -0.1762
 7315TIP3   OH243435   0.846   5.157  13.270 -0.0643  0.2800 -0.1750
 7315TIP3    H143436   0.894   5.238  13.251 -1.7174  1.0802 -1.2989
 7315TIP3    H243437   0.879   5.129  13.355  0.9608  1.8362 -0.0017
 7316TIP3   OH243438   3.186   1.458   5.012  0.1237 -0.3119  0.1411
 7316TIP3    H143439   3.165   1.458   4.918 -1.1144 -1.2387  0.3939
 7316TIP3    H243440   3.224   1.372   5.028  0.7018 -0.0065  0.4271
 7317TIP3   OH243441   1.180   0.399  15.130  0.1659  0.5274 -1.1068
 7317TIP3    H143442   1.171   0.305  15.149 -1.0283  0.4806 -1.7973
 7317TIP3    H243443   1.217   0.402  15.042  1.3553  0.7297 -0.6223
 7318TIP3   OH243444   3.047   1.557   3.848  0.0189  0.6434 -0.0240
 7318TIP3    H143445   3.056   1.506   3.767  1.0635  0.4320  0.2070
 7318TIP3    H243446   3.122   1.530   3.901  2.2782  4.3133 -0.9416
 7319TIP3   OH243447   6.104   6.757   0.823 -0.4879 -0.0255  0.4038
 7319TIP3    H143448   6.118   6.678   0.771  0.5952  0.7274 -0.4881
 7319TIP3    H243449   6.188   6.803   0.820 -1.4005  1.7131 -0.0213
 7320TIP3   OH243450   2.060   3.503  12.319  0.1163  0.2075  0.3916
 7320TIP3    H143451   2.132   3.439  12.318  0.4305  0.3671  3.3567
 7320TIP3    H243452   1.982   3.451  12.338  0.0281  0.4290  0.6418
 7321TIP3   OH243453   0.606   0.983  16.412 -0.7387  0.3369 -0.2608
 7321TIP3    H143454   0.544   0.995  16.484 -0.0895 -0.4054  0.4376
 7321TIP3    H243455   0.668   0.917  16.444  0.6966  1.3957 -0.7653
 7322TIP3   OH243456   4.106   2.348   5.282 -0.8667  0.0494  0.1409
 7322TIP3    H143457   4.073   2.437   5.297  1.3843  0.7686  1.3444
 7322TIP3    H243458   4.145   2.323   5.366  1.0475 -0.9286 -0.9792
 7323TIP3   OH243459   0.516   5.513  13.650 -0.3560  0.0707 -0.1268
 7323TIP3    H143460   0.582   5.582  13.657 -2.1919  1.8479  0.5394
 7323TIP3    H243461   0.474   5.528  13.565  1.1469 -2.1352 -1.3637
 7324TIP3   OH243462   0.048   4.296   0.566  0.0220  0.1476 -0.0792
 7324TIP3    H143463   0.099   4.369   0.601 -0.4681  1.1429 -1.3546
 7324TIP3    H243464   0.105   4.258   0.499  1.0770 -1.9253  1.8680
 7325TIP3   OH243465   0.292   0.631   3.617  0.5140  0.4715 -0.5974
 7325TIP3    H143466   0.239   0.682   3.556 -2.3036  0.9289  1.9725
 7325TIP3    H243467   0.278   0.540   3.592  0.2468  0.6906 -1.2616
 7326TIP3   OH243468   4.016   0.944  12.558  0.6646  0.1950 -0.2119
 7326TIP3    H143469   3.923   0.928  12.571  1.1013 -2.9141 -0.3084
 7326TIP3    H243470   4.038   1.009  12.625 -1.8815  2.6514 -1.5227
 7327TIP3   OH243471   6.179   1.608  10.663 -0.6100  0.3706 -0.2315
 7327TIP3    H143472   6.206   1.690  10.706 -0.8863  1.2040 -1.6079
 7327TIP3    H243473   6.249   1.546  10.684 -0.5917  0.8177  1.1596
 7328TIP3   OH243474   3.126   4.909   4.451 -0.0869 -0.1200  0.1352
 7328TIP3    H143475   3.179   4.872   4.380  1.0844 -0.6039  1.2226
 7328TIP3    H243476   3.190   4.933   4.518 -0.8755  2.9749 -0.0851
 7329TIP3   OH243477   3.448   6.545   3.772  0.0544  0.5359 -0.1077
 7329TIP3    H143478   3.374   6.494   3.805  0.4206 -1.1529 -1.6819
 7329TIP3    H243479   3.511   6.545   3.844 -0.0865 -1.0748  0.0717
 7330TIP3   OH243480   1.025   2.662  14.450  0.2246  0.0399  0.4134
 7330TIP3    H143481   1.087   2.684  14.519 -0.9835 -1.4260  2.0635
 7330TIP3    H243482   0.962   2.603  14.492 -1.4026  0.2360 -1.5777
 7331TIP3   OH243483   3.125   2.282   0.325  0.7684  0.0729 -0.0885
 7331TIP3    H143484   3.110   2.245   0.238  0.7252  0.3565 -0.2022
 7331TIP3    H243485   3.175   2.215   0.371 -1.1625 -1.1015  0.4412
 7332TIP3   OH243486   5.486   3.351  12.008  0.7129  0.0714  0.0405
 7332TIP3    H143487   5.447   3.399  11.935 -1.7214  1.0593  1.8205
 7332TIP3    H243488   5.532   3.418  12.059 -0.8213  0.1993  1.3483
 7333TIP3   OH243489   3.643   3.869  16.330  0.5073  0.1433 -0.7884
 7333TIP3    H143490   3.714   3.805  16.326  0.3880 -0.0051 -0.5313
 7333TIP3    H243491   3.596   3.848  16.411  0.6035  0.6946 -0.5847
 7334TIP3   OH243492   6.491   3.953   4.753  0.2688  0.5385 -0.4775
 7334TIP3    H143493   6.450   3.893   4.814  0.9053  0.3172 -0.2610
 7334TIP3    H243494   6.481   3.911   4.667 -1.5147  1.3157 -0.7007
 7335TIP3   OH243495   4.630   1.002  11.940  0.1285  0.6632  0.3464
 7335TIP3    H143496   4.576   1.035  12.013 -0.1540  0.6287  0.1553
 7335TIP3    H243497   4.712   1.051  11.947 -0.3496  1.5522 -0.0464
 7336TIP3   OH243498   5.126   1.135  11.317 -0.2642  0.1805  0.3406
 7336TIP3    H143499   5.123   1.064  11.253  1.3418  0.0028  0.4157
 7336TIP3    H243500   5.036   1.144  11.347 -0.4935 -1.9081  0.4234
 7337TIP3   OH243501   6.528   5.051  11.496 -0.0269 -0.5691 -1.2522
 7337TIP3    H143502   6.598   5.054  11.561 -1.6215  1.2155  0.5217
 7337TIP3    H243503   6.506   5.143  11.480 -2.6011 -1.0630 -0.9651
 7338TIP3   OH243504   1.058   6.745   2.622 -0.0595  0.2338 -0.6231
 7338TIP3    H143505   1.128   6.759   2.558 -1.0540 -3.5475 -2.8752
 7338TIP3    H243506   1.102   6.745   2.707  2.2342  0.3704 -1.7356
 7339TIP3   OH243507   3.142   0.463  17.244  0.1771  0.4619 -0.1954
 7339TIP3    H143508   3.056   0.430  17.268 -0.2597  1.3849 -0.4421
 7339TIP3    H243509   3.133   0.487  17.151  0.8066  0.2335 -0.3231
 7340TIP3   OH243510   0.348   3.373  14.834  0.0106 -0.3516 -0.3354
 7340TIP3    H143511   0.306   3.294  14.800  1.9483 -1.6625  0.1836
 7340TIP3    H243512   0.437   3.347  14.854 -0.6523  0.3483  5.1497
 7341TIP3   OH243513   1.202   5.227   5.670  0.5602  0.0566 -0.0158
 7341TIP3    H143514   1.157   5.310   5.686 -1.9510 -1.1290 -0.4879
 7341TIP3    H243515   1.165   5.167   5.734  1.3650 -1.0447 -0.5551
 7342TIP3   OH243516   3.885   6.601   2.030 -0.7760  0.2467  0.1348
 7342TIP3    H143517   3.805   6.591   2.081 -0.7516 -2.5502 -0.2429
 7342TIP3    H243518   3.854   6.616   1.941 -0.8586  0.7011  0.2385
 7343TIP3   OH243519   5.876   3.615   3.902  0.2897  0.5982  0.3760
 7343TIP3    H143520   5.943   3.593   3.967  0.5574  0.2526 -0.0074
 7343TIP3    H243521   5.811   3.666   3.950 -0.0283 -0.5105  1.1576
 7344TIP3   OH243522   6.716   3.131   6.302  0.3562  0.1928 -0.3974
 7344TIP3    H143523   6.740   3.040   6.319 -0.6530 -0.0786 -0.3210
 7344TIP3    H243524   6.700   3.134   6.208 -0.7115  0.0007 -0.2336
 7345TIP3   OH243525   4.987   3.548   0.062  0.6853 -0.4347 -0.0438
 7345TIP3    H143526   4.972   3.572  -0.029  2.7195 -0.8370 -0.5276
 7345TIP3    H243527   5.046   3.615   0.095  0.2256 -0.4802  0.9043
 7346TIP3   OH243528   0.039   4.058  14.537  0.6217 -0.0400  0.8660
 7346TIP3    H143529   0.103   4.129  14.535 -0.1442  0.6561  0.0963
 7346TIP3    H243530  -0.022   4.083  14.606  0.0595  0.3451  0.2523
 7347TIP3   OH243531   3.318   1.455   1.310 -0.4296  0.0294  0.1967
 7347TIP3    H143532   3.413   1.447   1.298 -0.0278  1.8329  1.6762
 7347TIP3    H243533   3.308   1.488   1.399 -2.4967 -0.5950  0.2346
 7348TIP3   OH243534   3.635   2.753  15.510 -0.5860 -0.0094  0.1503
 7348TIP3    H143535   3.577   2.817  15.468 -0.4734  0.9138  1.3525
 7348TIP3    H243536   3.642   2.782  15.601  2.5393  0.5464 -0.1389
 7349TIP3   OH243537   4.356   0.033  15.021  0.2017 -0.8039 -0.5471
 7349TIP3    H143538   4.433   0.080  15.054  1.5086 -1.9711 -1.8208
 7349TIP3    H243539   4.289   0.101  15.012  1.5292  0.5243 -0.7774
 7350TIP3   OH243540   5.673   5.316  15.165 -0.3913 -0.3791  0.0023
 7350TIP3    H143541   5.584   5.349  15.150 -0.2706 -0.1132 -0.1234
 7350TIP3    H243542   5.728   5.366  15.104 -0.1721 -0.6264 -0.0038
 7351TIP3   OH243543   2.154   6.324   6.054 -0.1217  0.1749 -0.3225
 7351TIP3    H143544   2.080   6.330   5.994 -0.2255 -0.5287 -0.2814
 7351TIP3    H243545   2.126   6.372   6.132 -0.9581 -0.9161  0.0873
 7352TIP3   OH243546   3.620   0.952   3.994  0.0197 -0.2728 -0.4833
 7352TIP3    H143547   3.591   0.950   3.902 -0.0970  0.4553 -0.4683
 7352TIP3    H243548   3.636   1.044   4.011  2.1225 -0.6148 -0.4139
 7353TIP3   OH243549   0.192   3.133  15.365  0.5225 -0.3236  0.2069
 7353TIP3    H143550   0.144   3.201  15.318  1.4425 -1.1719 -2.1702
 7353TIP3    H243551   0.157   3.050  15.331  0.6525 -1.0185  1.6902
 7354TIP3   OH243552   2.899   0.433   0.773 -0.6929 -0.6031 -0.1019
 7354TIP3    H143553   2.877   0.432   0.866 -1.1627  0.8144 -0.1717
 7354TIP3    H243554   2.994   0.420   0.771 -0.8825 -2.3471  0.4470
 7355TIP3   OH243555   4.359   0.159  14.186 -0.0135  0.9048  0.1525
 7355TIP3    H143556   4.406   0.170  14.269  1.5498  0.7263 -0.6770
 7355TIP3    H243557   4.383   0.235  14.134  0.8046 -0.0733 -0.9471
 7356TIP3   OH243558   1.129   1.563  12.641  0.2609 -0.5756 -0.9355
 7356TIP3    H143559   1.208   1.615  12.623  1.8990 -3.1508 -1.8378
 7356TIP3    H243560   1.139   1.536  12.732  0.1484 -0.4877 -0.8971
 7357TIP3   OH243561   0.613   1.210  12.375  0.0931  0.0021  0.1738
 7357TIP3    H143562   0.581   1.271  12.308  1.5248  0.5600 -0.0543
 7357TIP3    H243563   0.546   1.142  12.379  0.0740 -0.2084 -2.0498
 7358TIP3   OH243564   5.329   0.231   0.789 -0.6888  0.1587 -0.4670
 7358TIP3    H143565   5.417   0.245   0.822 -0.0708 -0.9816 -1.5307
 7358TIP3    H243566   5.329   0.272   0.702 -1.0276 -0.2834 -0.6812
 7359TIP3   OH243567   6.505   4.647   6.821  0.0235 -0.6662  0.2656
 7359TIP3    H143568   6.567   4.610   6.759 -0.0140 -0.4641  0.1072
 7359TIP3    H243569   6.535   4.737   6.834 -1.2153 -0.0125 -1.1269
 7360TIP3   OH243570   3.138   4.351   2.050  0.6054 -0.4923  0.3959
 7360TIP3    H143571   3.229   4.349   2.080  0.7530  0.1090  0.0145
 7360TIP3    H243572   3.093   4.288   2.105  1.1745 -0.4986  0.8650
 7361TIP3   OH243573   2.292   6.097   1.211  0.0724 -0.2792 -0.0425
 7361TIP3    H143574   2.265   6.182   1.246 -1.1446 -0.5118 -0.3875
 7361TIP3    H243575   2.281   6.037   1.285 -0.1467 -0.3392 -0.1251
 7362TIP3   OH243576   5.535   2.285  13.303 -0.4638 -0.4287 -0.7056
 7362TIP3    H143577   5.626   2.278  13.276 -0.7786 -2.0298 -1.4768
 7362TIP3    H243578   5.487   2.296  13.221 -0.8176  3.3234 -0.1694
 7363TIP3   OH243579   0.231   1.575  17.163  0.0418  0.0160 -0.4422
 7363TIP3    H143580   0.310   1.590  17.215 -0.4096  0.3991  0.1540
 7363TIP3    H243581   0.252   1.610  17.077  0.7183 -0.4039 -0.4541
 7364TIP3   OH243582   5.763   1.597  13.176  0.2895  0.4813 -0.2929
 7364TIP3    H143583   5.803   1.615  13.090  1.5561  2.4550  0.6229
 7364TIP3    H243584   5.825   1.539  13.220  1.2690  1.9579  0.3828
 7365TIP3   OH243585   0.315   0.127  14.433  0.1343 -0.4213 -0.4063
 7365TIP3    H143586   0.380   0.197  14.442 -1.5107  0.9236  1.9301
 7365TIP3    H243587   0.243   0.167  14.384 -0.8380 -0.4072  0.9781
 7366TIP3   OH243588   3.407   5.234  12.965 -0.6193  0.3022  0.2835
 7366TIP3    H143589   3.382   5.144  12.946 -0.4003  0.5876 -1.5132
 7366TIP3    H243590   3.324   5.280  12.976 -0.7285 -0.2261  1.9281
 7367TIP3   OH243591   4.783   3.985  16.958  0.0487 -0.4354 -0.2457
 7367TIP3    H143592   4.823   3.945  16.881  1.5774 -1.6291  1.1089
 7367TIP3    H243593   4.731   3.916  16.997  0.4769 -0.3059  0.5863
 7368TIP3   OH243594   3.885   5.732   4.922  0.3433  0.4494 -0.0715
 7368TIP3    H143595   3.822   5.669   4.888 -1.3988  2.1681 -0.1862
 7368TIP3    H243596   3.965   5.715   4.873 -0.6558 -0.3573 -1.4842
 7369TIP3   OH243597   0.116   2.828   5.906  0.5178  0.2121  0.7033
 7369TIP3    H143598   0.157   2.868   5.983 -0.9355 -1.5236  2.4829
 7369TIP3    H243599   0.068   2.753   5.940  1.2701 -1.7517 -2.1564
 7370TIP3   OH243600   5.269   3.272   1.819 -0.5184  0.3377 -0.9093
 7370TIP3    H143601   5.175   3.264   1.801 -0.5439 -0.5720 -0.4251
 7370TIP3    H243602   5.273   3.287   1.913 -0.1217 -1.3847 -0.6148
 7371TIP3   OH243603   1.558   2.193  13.254  0.1912 -0.1847  0.3159
 7371TIP3    H143604   1.527   2.269  13.204 -1.1159  0.5231  2.0904
 7371TIP3    H243605   1.489   2.128  13.244 -0.7139  0.4266  2.1420
 7372TIP3   OH243606   0.602   0.446   6.087 -0.0604 -0.2814  0.0536
 7372TIP3    H143607   0.645   0.430   6.171  0.7880  1.5675  0.0055
 7372TIP3    H243608   0.533   0.510   6.108 -0.9536 -1.0759 -0.3850
 7373TIP3   OH243609   2.262   2.727   1.669 -0.0813  0.3282 -0.1909
 7373TIP3    H143610   2.309   2.745   1.750  0.6890  1.7224 -0.9005
 7373TIP3    H243611   2.225   2.640   1.681  2.4972 -0.7739  0.5041
 7374TIP3   OH243612   6.681   0.317   1.336  0.6624  0.3803  0.0188
 7374TIP3    H143613   6.680   0.275   1.250 -0.4788 -1.0472  0.6922
 7374TIP3    H243614   6.774   0.338   1.351  0.9152  0.3795 -1.4169
 7375TIP3   OH243615   2.438   0.863   1.095  0.1092 -0.4547  0.0300
 7375TIP3    H143616   2.345   0.880   1.080 -0.1146 -1.4234  0.2178
 7375TIP3    H243617   2.484   0.913   1.028 -0.5552 -0.1043 -0.1670
 7376TIP3   OH243618   4.536   0.512   5.685  0.5209 -0.1373 -0.3281
 7376TIP3    H143619   4.547   0.603   5.659  2.0229  0.3334  1.6670
 7376TIP3    H243620   4.615   0.468   5.653  0.7268 -0.3009  0.3874
 7377TIP3   OH243621   4.163   6.412   3.141  0.2622 -0.2554 -0.2398
 7377TIP3    H143622   4.215   6.467   3.201  1.2519 -1.5983  0.1922
 7377TIP3    H243623   4.099   6.369   3.197  0.6798 -0.9179 -0.2599
 7378TIP3   OH243624   3.413   4.336   1.079  0.3111 -0.1012  0.1078
 7378TIP3    H143625   3.462   4.257   1.055 -0.2874 -0.2433 -0.6431
 7378TIP3    H243626   3.476   4.387   1.131  0.9202 -0.7599  0.0384
 7379TIP3   OH243627   1.169   0.858   5.688 -0.1527 -0.8265  0.0722
 7379TIP3    H143628   1.156   0.870   5.593 -0.2817 -0.2913  0.1513
 7379TIP3    H243629   1.205   0.942   5.717  0.0856 -1.0666  0.4623
 7380TIP3   OH243630   3.114   5.363  15.596 -0.8461 -0.8729  0.0004
 7380TIP3    H143631   3.197   5.387  15.553 -1.2216 -1.4055 -1.0507
 7380TIP3    H243632   3.085   5.285  15.549 -1.7932 -0.8710  0.5735
 7381TIP3   OH243633   2.151   4.181  14.382  0.3667 -0.4633 -0.2629
 7381TIP3    H143634   2.214   4.123  14.423  1.2020  0.7592  0.2468
 7381TIP3    H243635   2.067   4.158  14.421  0.8399 -0.6806  0.6447
 7382TIP3   OH243636   2.718   5.930  14.375 -0.0840  0.1989  0.4373
 7382TIP3    H143637   2.756   5.942  14.463  1.0766  0.8137 -0.1221
 7382TIP3    H243638   2.655   5.859  14.386 -0.0492  0.3488  1.8006
 7383TIP3   OH243639   2.244   0.862  12.836 -0.3462 -0.0606 -1.1027
 7383TIP3    H143640   2.197   0.834  12.914 -1.5525  0.4357 -1.6276
 7383TIP3    H243641   2.238   0.957  12.837  0.1660 -0.0197 -1.4744
 7384TIP3   OH243642   6.249   1.754  13.540  0.0899  0.6244  0.3511
 7384TIP3    H143643   6.228   1.783  13.451  0.9387 -2.0811 -0.8324
 7384TIP3    H243644   6.164   1.736  13.580 -0.2716  1.1065 -0.1758
 7385TIP3   OH243645   0.516   2.393   0.042 -0.8174  0.3234  0.0646
 7385TIP3    H143646   0.528   2.361  -0.047  2.2580  0.1724  0.4225
 7385TIP3    H243647   0.539   2.486   0.037  0.0213  0.1623  0.7943
 7386TIP3   OH243648   3.161   3.121   0.396  0.2587  0.1848  0.2427
 7386TIP3    H143649   3.096   3.129   0.327  0.8177  0.8820 -0.2307
 7386TIP3    H243650   3.207   3.205   0.395 -0.2854  0.5516  2.0572
 7387TIP3   OH243651   2.176   4.053  12.122  0.0543 -0.3963 -0.2148
 7387TIP3    H143652   2.259   4.035  12.077  1.0644  0.9109  1.0434
 7387TIP3    H243653   2.125   3.973  12.110  0.4491 -0.3221 -3.2213
 7388TIP3   OH243654   0.534   0.603   1.468 -0.1378  0.1422  0.1570
 7388TIP3    H143655   0.602   0.654   1.513 -0.4022 -0.1342  0.8829
 7388TIP3    H243656   0.577   0.520   1.448 -0.2645 -0.0552  0.6690
 7389TIP3   OH243657   5.822   5.035  13.604  0.0926  0.1271  0.2022
 7389TIP3    H143658   5.745   5.002  13.556  0.2553 -0.2499  0.1980
 7389TIP3    H243659   5.879   5.071  13.536  0.3347 -0.4306  0.1009
 7390TIP3   OH243660   5.394   5.657  14.090 -0.2557  0.0419 -0.1185
 7390TIP3    H143661   5.349   5.615  14.016 -0.1678 -0.4726  0.1143
 7390TIP3    H243662   5.481   5.616  14.092 -0.8742 -1.3117  1.3864
 7391TIP3   OH243663   6.189   1.860   1.074 -0.5853 -0.1154 -0.2962
 7391TIP3    H143664   6.154   1.799   1.009  2.1396 -1.6377 -0.5045
 7391TIP3    H243665   6.246   1.806   1.129  2.0302  2.1887 -0.5246
 7392TIP3   OH243666   6.065   4.849  16.504  0.8759 -0.1798  0.1253
 7392TIP3    H143667   6.067   4.921  16.566  0.6430 -1.9884  2.3839
 7392TIP3    H243668   5.977   4.812  16.513  1.7759 -2.2687  0.9723
 7393TIP3   OH243669   2.365   0.023  13.702 -0.5787  0.4400  0.0964
 7393TIP3    H143670   2.455   0.029  13.672 -0.4829  2.9516  0.6230
 7393TIP3    H243671   2.332  -0.058  13.665  1.0545  0.8389 -2.4537
 7394TIP3   OH243672   1.528   3.872   2.143  0.2882 -0.2293  0.2525
 7394TIP3    H143673   1.473   3.853   2.066  2.0438  1.1355 -1.4458
 7394TIP3    H243674   1.467   3.906   2.208 -1.1467 -0.5955 -0.8307
 7395TIP3   OH243675   6.232   6.454  13.629  0.3388 -0.2628  0.2757
 7395TIP3    H143676   6.251   6.372  13.676 -1.7226  0.5693  2.7662
 7395TIP3    H243677   6.276   6.522  13.680  0.8511  0.3732 -0.9684
 7396TIP3   OH243678   6.712   3.688   4.659 -0.0156  0.8529  0.0243
 7396TIP3    H143679   6.735   3.741   4.735 -0.7568  1.0904  0.0916
 7396TIP3    H243680   6.699   3.600   4.695 -1.4222  1.1719  0.3806
 7397TIP3   OH243681   0.484   2.745  13.596  0.1696 -0.0107  0.2165
 7397TIP3    H143682   0.568   2.762  13.554 -0.5260 -0.7151 -1.5734
 7397TIP3    H243683   0.421   2.795  13.544 -0.8772 -1.8592 -0.3762
 7398TIP3   OH243684   2.481   6.629  12.426  0.3421  0.3557 -0.5829
 7398TIP3    H143685   2.441   6.543  12.411  1.0588 -0.2538  0.8212
 7398TIP3    H243686   2.407   6.689  12.434 -0.2000 -0.2728 -0.7752
 7399TIP3   OH243687   3.396   2.906   4.667 -0.0212  0.1180  0.0083
 7399TIP3    H143688   3.464   2.857   4.621 -0.0636  0.3443 -0.2930
 7399TIP3    H243689   3.326   2.842   4.680 -0.0513  0.0812 -0.3333
 7400TIP3   OH243690   6.810   5.357  13.144  0.0445  0.0693 -0.4069
 7400TIP3    H143691   6.850   5.443  13.134  1.5012 -0.5570 -0.1938
 7400TIP3    H243692   6.784   5.333  13.055 -0.0331  0.5603 -0.5213
 7401TIP3   OH243693   5.627   2.676   2.354  0.1693 -0.2429 -0.6460
 7401TIP3    H143694   5.560   2.611   2.331  0.4001 -0.8708  0.4219
 7401TIP3    H243695   5.622   2.740   2.283 -3.2445  1.0522  0.5810
 7402TIP3   OH243696   6.303   4.530   4.808  0.0858  0.0242 -0.1542
 7402TIP3    H143697   6.366   4.583   4.858 -1.0579  0.4888  0.8646
 7402TIP3    H243698   6.269   4.467   4.872  1.5116 -2.1191 -1.3666
 7403TIP3   OH243699   4.904   2.021   5.696 -0.0535 -0.0189 -0.2197
 7403TIP3    H143700   4.927   2.008   5.604  1.5425  1.1005 -0.0064
 7403TIP3    H243701   4.865   1.937   5.723 -2.4142  0.2433 -2.4032
 7404TIP3   OH243702   6.793   1.307   5.036 -0.2529 -0.3933 -0.0770
 7404TIP3    H143703   6.754   1.298   4.949 -0.9970  0.6675  0.1279
 7404TIP3    H243704   6.837   1.391   5.034 -0.3470 -0.3209  0.6024
 7405TIP3   OH243705   1.522   6.360  13.399 -0.3335 -0.9024 -0.1885
 7405TIP3    H143706   1.486   6.320  13.477  0.0675 -0.2315  0.3525
 7405TIP3    H243707   1.601   6.310  13.380 -1.4678 -2.3414 -1.3464
 7406TIP3   OH243708   4.514   6.295   2.022  0.2887  0.2738 -0.3006
 7406TIP3    H143709   4.451   6.293   2.095  1.7569 -3.0941  1.0837
 7406TIP3    H243710   4.464   6.330   1.949 -2.6861 -0.5165  1.1782
 7407TIP3   OH243711   3.666   6.209   2.554  0.3039  0.2069  0.1610
 7407TIP3    H143712   3.747   6.256   2.573 -0.2706  1.7502 -0.9857
 7407TIP3    H243713   3.668   6.196   2.459 -0.5227 -0.2806  0.1990
 7408TIP3   OH243714   1.884   5.395  11.848 -0.0567 -0.7893  0.5080
 7408TIP3    H143715   1.929   5.365  11.769 -0.0152 -2.0506  0.9709
 7408TIP3    H243716   1.923   5.342  11.918  3.1044  3.1950  2.1963
 7409TIP3   OH243717   2.563   5.801   2.611 -0.5263 -0.5523  0.6235
 7409TIP3    H143718   2.532   5.842   2.531 -1.2489 -1.7344  0.2734
 7409TIP3    H243719   2.488   5.752   2.644 -0.2255 -0.1026  2.0149
 7410TIP3   OH243720   1.263   3.707   2.295  0.4533  0.0483 -0.6343
 7410TIP3    H143721   1.206   3.756   2.236  0.5464 -1.5338 -2.1126
 7410TIP3    H243722   1.220   3.623   2.306  0.3511  0.3437  1.7600
 7411TIP3   OH243723   3.754   4.015   3.561  0.0349  0.0222 -0.7616
 7411TIP3    H143724   3.799   3.938   3.526 -0.0089 -0.0646 -0.6276
 7411TIP3    H243725   3.665   3.984   3.581 -0.9063  0.7795 -3.3470
 7412TIP3   OH243726   1.728   0.456   1.193  0.0254  0.4309  0.3985
 7412TIP3    H143727   1.801   0.474   1.133 -2.0634  0.8788 -2.1783
 7412TIP3    H243728   1.716   0.538   1.241 -0.9756  1.6508 -1.7662
 7413TIP3   OH243729   1.523   2.856  17.212 -0.2782 -0.8214  0.2840
 7413TIP3    H143730   1.475   2.837  17.293  0.4803 -0.9876  0.7005
 7413TIP3    H243731   1.540   2.950  17.216 -1.7297 -0.4896 -0.5204
 7414TIP3   OH243732   0.291   2.884   2.761  0.4088 -0.1328  0.7036
 7414TIP3    H143733   0.337   2.968   2.771  0.0688  0.0950  0.3822
 7414TIP3    H243734   0.198   2.906   2.771  0.1595 -0.1486 -1.1674
 7415TIP3   OH243735   1.164   1.173   4.580 -0.1789  0.4403 -0.0541
 7415TIP3    H143736   1.203   1.086   4.587 -1.9818 -0.3740  0.2751
 7415TIP3    H243737   1.220   1.219   4.516  1.0723 -0.7686  0.1275
 7416TIP3   OH243738   6.497   3.847   0.531 -0.0989  0.3967 -0.0432
 7416TIP3    H143739   6.429   3.788   0.499 -0.0922  0.2314  0.2466
 7416TIP3    H243740   6.561   3.852   0.460 -0.6438  0.9181 -0.5057
 7417TIP3   OH243741   1.993   1.654   0.969  0.5207  0.2253  0.0288
 7417TIP3    H143742   1.942   1.590   0.921  2.1060  0.2903 -1.8484
 7417TIP3    H243743   1.936   1.731   0.974  0.5630  0.5145 -2.5420
 7418TIP3   OH243744   1.353   1.759   5.514 -0.5376  0.0719  0.2102
 7418TIP3    H143745   1.373   1.851   5.499  1.9091 -0.1300  1.7598
 7418TIP3    H243746   1.262   1.758   5.544 -0.7234  1.9175 -0.2250
 7419TIP3   OH243747   2.352   5.003  16.090  0.1188  0.1239  0.1763
 7419TIP3    H143748   2.332   5.001  15.997  2.1565 -1.3580 -0.2920
 7419TIP3    H243749   2.442   4.973  16.096  0.5874  1.7086  2.5167
 7420TIP3   OH243750   1.907   6.365  12.531  0.1380  0.1511 -0.2632
 7420TIP3    H143751   1.815   6.383  12.551  0.6470  1.5304  1.0454
 7420TIP3    H243752   1.912   6.270  12.523 -0.8333 -0.2939  3.0232
 7421TIP3   OH243753   4.648   2.580   4.965 -0.0921  0.2611  0.2174
 7421TIP3    H143754   4.627   2.658   4.914 -1.3464  1.1633  2.0239
 7421TIP3    H243755   4.644   2.508   4.901 -1.0122  1.4013 -1.0650
 7422TIP3   OH243756   5.478   4.236  13.413 -0.2847  0.0564  0.4662
 7422TIP3    H143757   5.512   4.235  13.502 -1.9376  1.8055  1.1839
 7422TIP3    H243758   5.383   4.237  13.423 -0.5094  0.3106 -1.3068
 7423TIP3   OH243759   5.563   2.811   1.219  0.5340 -0.5350  0.2559
 7423TIP3    H143760   5.529   2.898   1.239 -1.5160 -1.4192  0.8736
 7423TIP3    H243761   5.559   2.805   1.123  1.1892  0.2196  0.1724
 7424TIP3   OH243762   3.816   4.784  14.183 -0.1488 -0.0378 -0.1420
 7424TIP3    H143763   3.720   4.790  14.187 -0.0701  0.5435  2.3170
 7424TIP3    H243764   3.835   4.692  14.199 -0.2832 -0.0349  0.0369
 7425TIP3   OH243765   2.295   1.895   2.955  0.1028 -0.1013  0.0114
 7425TIP3    H143766   2.269   1.987   2.968  1.1589  0.3495 -0.9007
 7425TIP3    H243767   2.369   1.882   3.014  1.0379  0.1662 -1.0596
 7426TIP3   OH243768   1.234   0.245  11.870  0.1208  0.0783 -0.1592
 7426TIP3    H143769   1.219   0.193  11.950  0.7640 -0.3766 -0.3175
 7426TIP3    H243770   1.159   0.226  11.815  1.2610 -2.2991 -1.0271
 7427TIP3   OH243771   6.264   2.770  13.127 -0.0813 -0.2031 -0.7487
 7427TIP3    H143772   6.180   2.816  13.128 -0.6341 -1.1976 -0.4546
 7427TIP3    H243773   6.278   2.745  13.218  1.5531  1.7209 -0.4037
 7428TIP3   OH243774   3.791   2.119   0.062  0.2193  0.0867 -0.3858
 7428TIP3    H143775   3.855   2.051   0.040  0.6440  0.0743  0.8115
 7428TIP3    H243776   3.844   2.188   0.103 -0.7512 -1.0291  3.1445
 7429TIP3   OH243777   2.914   3.511  14.316 -0.1691 -0.1927  0.1344
 7429TIP3    H143778   2.993   3.464  14.288 -0.5739 -0.2825 -0.9151
 7429TIP3    H243779   2.943   3.563  14.391  0.5844 -1.1626  0.5450
 7430TIP3   OH243780   4.001   0.387   1.839  0.1813 -0.8040  0.4232
 7430TIP3    H143781   4.043   0.389   1.925 -0.3441 -0.2051  0.6800
 7430TIP3    H243782   4.065   0.426   1.780 -0.3606  1.0666  0.9924
 7431TIP3   OH243783   6.812   2.041  16.787  0.1019 -0.1741 -0.7043
 7431TIP3    H143784   6.865   2.121  16.789 -0.3047  0.1514 -1.8667
 7431TIP3    H243785   6.752   2.051  16.860 -0.4392  0.9652 -1.2746
 7432TIP3   OH243786   5.414   2.740  17.092  0.2409  0.3064 -0.0535
 7432TIP3    H143787   5.408   2.824  17.136 -1.4424  0.2146 -0.0306
 7432TIP3    H243788   5.323   2.709  17.086  0.5127 -0.2691 -2.4315
 7433TIP3   OH243789   0.899   1.332   2.108 -0.0698  0.3301 -0.6542
 7433TIP3    H143790   0.827   1.340   2.045 -1.0610 -0.5673  0.3300
 7433TIP3    H243791   0.884   1.404   2.170  0.3751  0.6524 -0.9160
 7434TIP3   OH243792   3.237   5.691   0.735 -0.2545  0.3535 -0.2367
 7434TIP3    H143793   3.239   5.740   0.653 -0.6127 -0.7408 -0.9271
 7434TIP3    H243794   3.307   5.627   0.727 -0.9842 -0.4738 -0.1578
 7435TIP3   OH243795   5.423   4.315  14.684  0.7830 -0.4629  0.1205
 7435TIP3    H143796   5.502   4.324  14.738  0.9697  0.0722 -0.2315
 7435TIP3    H243797   5.367   4.254  14.732  0.2637  1.2188  1.7256
 7436TIP3   OH243798   3.052   2.417   2.282 -0.2151  0.5700  0.1290
 7436TIP3    H143799   3.120   2.351   2.270  0.7966  1.4447  0.9453
 7436TIP3    H243800   3.056   2.471   2.202 -1.6497 -0.8348 -0.9610
 7437TIP3   OH243801   0.422   3.265  11.613 -0.0314 -0.2091 -0.0452
 7437TIP3    H143802   0.507   3.299  11.587  0.4841 -0.4402  1.2623
 7437TIP3    H243803   0.365   3.283  11.539  1.4672 -1.2926 -1.5362
 7438TIP3   OH243804   5.586   1.856   3.084  0.2207 -0.1105 -0.1834
 7438TIP3    H143805   5.629   1.774   3.061 -2.4050 -1.7541  0.4323
 7438TIP3    H243806   5.589   1.860   3.180 -1.2681 -0.4744 -0.0933
 7439TIP3   OH243807   6.136   6.111  14.835  0.6943 -0.0342 -0.4020
 7439TIP3    H143808   6.179   6.026  14.842  1.1301  0.2036 -0.1972
 7439TIP3    H243809   6.062   6.095  14.776  1.9371 -0.0943 -2.0077
 7440TIP3   OH243810   4.563   2.985   5.929 -0.5094 -0.1507 -0.5420
 7440TIP3    H143811   4.476   2.956   5.903 -0.6879  0.2220 -0.3601
 7440TIP3    H243812   4.608   2.904   5.956 -0.0234 -0.6812 -2.7800
 7441TIP3   OH243813   0.496   1.399  15.108 -0.4554 -0.5432  0.1076
 7441TIP3    H143814   0.497   1.495  15.101 -0.0042 -0.6169 -1.1456
 7441TIP3    H243815   0.513   1.369  15.019  1.6589 -1.7703  0.8597
 7442TIP3   OH243816   4.468   5.832  13.386  0.0215 -0.0018 -0.1536
 7442TIP3    H143817   4.536   5.863  13.326 -0.5797  0.2959 -0.6999
 7442TIP3    H243818   4.412   5.777  13.332 -0.2275 -0.1629  0.2667
 7443TIP3   OH243819   4.736   2.476   2.800 -0.6668  0.0001  0.0297
 7443TIP3    H143820   4.826   2.451   2.824 -0.7745 -0.5658 -0.1485
 7443TIP3    H243821   4.733   2.571   2.814  0.5661  0.3872 -1.8623
 7444TIP3   OH243822   3.739   6.115   1.820 -0.4663  0.1902 -0.4146
 7444TIP3    H143823   3.782   6.197   1.794  0.5060 -0.2973 -0.3810
 7444TIP3    H243824   3.711   6.076   1.737 -0.5035  0.3229 -0.4659
 7445TIP3   OH243825   2.912   1.769   1.240  0.9827  0.3665 -0.6272
 7445TIP3    H143826   2.895   1.675   1.233 -0.1088  0.3429  1.4880
 7445TIP3    H243827   2.864   1.807   1.166  1.8524 -0.7276 -1.8178
 7446TIP3   OH243828   3.208   3.838  13.695 -0.0693  0.7511 -0.7065
 7446TIP3    H143829   3.129   3.889  13.710 -0.8221 -0.8079  0.9422
 7446TIP3    H243830   3.178   3.748  13.690  1.7046 -0.0308  1.3053
 7447TIP3   OH243831   5.603   0.707   3.570  0.9769 -0.2424  0.0779
 7447TIP3    H143832   5.562   0.788   3.600  1.7094  0.5263 -0.9229
 7447TIP3    H243833   5.530   0.646   3.558 -0.0705  1.3330 -2.4661
 7448TIP3   OH243834   1.741   4.754   4.815 -0.2899  0.3274  0.1619
 7448TIP3    H143835   1.780   4.668   4.804 -0.6626  0.1089  0.5453
 7448TIP3    H243836   1.647   4.737   4.827 -0.5322  0.8522 -0.8694
 7449TIP3   OH243837   5.511   2.843   2.804  0.5332 -0.5149  0.1241
 7449TIP3    H143838   5.510   2.938   2.809  3.4342 -0.4486  1.1141
 7449TIP3    H243839   5.494   2.814   2.894 -1.9899 -1.0739 -0.4399
 7450TIP3   OH243840   5.409   6.211  16.608 -0.2255  0.3617 -0.2013
 7450TIP3    H143841   5.472   6.142  16.629  0.1319  1.1664  1.5575
 7450TIP3    H243842   5.339   6.200  16.672 -1.7422 -0.2620 -1.8689
 7451TIP3   OH243843   0.368   5.662  12.543  0.4648 -0.0757  0.1930
 7451TIP3    H143844   0.334   5.680  12.455  1.9588  0.2435 -0.3530
 7451TIP3    H243845   0.305   5.705  12.601  0.0339  0.6724 -0.7768
 7452TIP3   OH243846   0.727   6.351   2.408 -0.0167 -0.1414 -0.7225
 7452TIP3    H143847   0.798   6.314   2.460  0.1299  2.0052  0.7132
 7452TIP3    H243848   0.695   6.277   2.356  2.3362 -1.4817 -0.4098
 7453TIP3   OH243849   5.054   2.307  16.736 -0.8527  0.0555 -0.4555
 7453TIP3    H143850   5.104   2.329  16.814 -0.6102  1.9678 -1.0851
 7453TIP3    H243851   5.073   2.215  16.719 -1.0886 -0.4750  1.8290
 7454TIP3   OH243852   5.468   2.709   1.458 -0.1628  0.3885  0.5338
 7454TIP3    H143853   5.490   2.730   1.367  1.4663  0.0014  0.8168
 7454TIP3    H243854   5.372   2.708   1.459 -0.2304 -0.3209 -1.3475
 7455TIP3   OH243855   6.109   1.563   0.580 -0.1113  0.5024 -0.5461
 7455TIP3    H143856   6.054   1.607   0.645 -2.6409 -1.0564 -1.4692
 7455TIP3    H243857   6.083   1.471   0.586  0.3442  0.1478 -3.0041
 7456TIP3   OH243858   2.663   1.074   6.020  0.1470  0.5330 -0.6124
 7456TIP3    H143859   2.577   1.032   6.020 -0.4582  1.5292  2.2314
 7456TIP3    H243860   2.648   1.161   5.984 -0.1621  0.8573  0.2727
 7457TIP3   OH243861   5.042   0.634   0.568 -0.7858 -0.1891  0.3526
 7457TIP3    H143862   4.972   0.696   0.587 -0.9904 -0.4045  0.3031
 7457TIP3    H243863   5.091   0.675   0.497 -0.2328  0.4501  1.0888
 7458TIP3   OH243864   4.464   6.050  14.167 -0.4563 -0.1373  0.1942
 7458TIP3    H143865   4.521   6.029  14.240 -2.2558 -0.4386  1.5711
 7458TIP3    H243866   4.440   5.966  14.129  1.1553  0.0379 -1.3787
 7459TIP3   OH243867   3.586   2.952   6.091  0.1200  0.4486  0.3996
 7459TIP3    H143868   3.551   2.880   6.144  0.1988  0.0858 -0.0361
 7459TIP3    H243869   3.535   3.028   6.118 -1.6607 -0.2201 -0.8411
 7460TIP3   OH243870   3.477   4.757   0.337 -0.2439 -0.3314 -0.3539
 7460TIP3    H143871   3.461   4.676   0.289 -1.1515  0.1618 -0.8957
 7460TIP3    H243872   3.407   4.816   0.310 -2.1717 -0.7117  3.1898
 7461TIP3   OH243873   2.599   1.096  12.221  0.2251 -0.1616 -0.7485
 7461TIP3    H143874   2.531   1.161  12.204 -0.7209 -0.5794  1.2153
 7461TIP3    H243875   2.679   1.148  12.228 -0.7083  1.1031  2.2769
 7462TIP3   OH243876   1.943   6.333  16.321 -0.1221 -0.8992 -0.3203
 7462TIP3    H143877   1.915   6.394  16.253 -0.0632  0.1345  0.5430
 7462TIP3    H243878   1.871   6.271  16.329  0.6353 -2.1558 -2.5489
 7463TIP3   OH243879   5.530   2.214   1.521  0.2455  0.1379 -0.0999
 7463TIP3    H143880   5.489   2.150   1.464 -1.6366  0.6525  0.5812
 7463TIP3    H243881   5.566   2.280   1.462  0.6139 -0.6248 -0.7425
 7464TIP3   OH243882   0.772   2.387  11.604 -0.2448  0.2389  0.2721
 7464TIP3    H143883   0.830   2.437  11.545  0.6641 -2.1806 -1.0134
 7464TIP3    H243884   0.830   2.354  11.673 -0.3791 -0.8357 -0.1105
 7465TIP3   OH243885   2.715   1.713  16.554  0.5898  0.9997 -0.1163
 7465TIP3    H143886   2.649   1.665  16.505 -1.5594  2.1244  1.5356
 7465TIP3    H243887   2.692   1.805  16.542  0.2681  1.3311  2.5048
 7466TIP3   OH243888   2.237   6.419  14.591  0.1943  0.0181  0.1135
 7466TIP3    H143889   2.227   6.436  14.497  0.9934 -0.4163 -0.0634
 7466TIP3    H243890   2.332   6.422  14.605  0.2089 -1.7430  0.5522
 7467TIP3   OH243891   0.392   2.977   5.765 -0.6685  0.1347  0.1891
 7467TIP3    H143892   0.470   2.995   5.817 -2.0010 -1.7080  3.1147
 7467TIP3    H243893   0.416   2.900   5.712 -0.2974 -0.0581  0.6286
 7468TIP3   OH243894   4.864   0.151  15.338 -0.1934  0.4136 -0.6490
 7468TIP3    H143895   4.927   0.085  15.309  0.3972 -0.0477  1.5281
 7468TIP3    H243896   4.782   0.102  15.348  0.0808  0.1293  0.3107
 7469TIP3   OH243897   6.479   6.480  11.954 -0.6740 -0.1668  0.7628
 7469TIP3    H143898   6.548   6.451  12.015 -1.1693 -0.5159  1.1651
 7469TIP3    H243899   6.500   6.571  11.937 -0.1121 -0.2648  0.8935
 7470TIP3   OH243900   2.252   3.524  14.403  0.0322 -0.6258  0.2193
 7470TIP3    H143901   2.239   3.608  14.359 -1.2483 -0.4184  0.9222
 7470TIP3    H243902   2.179   3.470  14.373 -0.5576 -0.6540  1.6388
 7471TIP3   OH243903   2.893   4.303  15.865 -0.5762 -0.0166 -0.5651
 7471TIP3    H143904   2.865   4.284  15.954 -0.0605 -0.0263 -0.4035
 7471TIP3    H243905   2.852   4.235  15.812  0.1936 -0.8059 -0.1619
 7472TIP3   OH243906   0.886   6.028  14.014 -0.1284 -0.2858 -0.1451
 7472TIP3    H143907   0.918   5.956  13.960  0.8730  0.7185 -0.9286
 7472TIP3    H243908   0.802   5.996  14.049  0.9650 -2.3848  0.7477
 7473TIP3   OH243909   2.145   4.551   1.864 -0.1549  0.2130  0.0783
 7473TIP3    H143910   2.238   4.571   1.878 -0.0928  0.1566 -0.2386
 7473TIP3    H243911   2.117   4.509   1.945  0.4143 -0.9063 -0.2828
 7474TIP3   OH243912   0.042   6.617  16.165  0.2714 -0.4751 -0.1097
 7474TIP3    H143913  -0.042   6.570  16.155  0.5038 -1.1481  0.9965
 7474TIP3    H243914   0.026   6.702  16.125 -1.3715 -0.0993  1.2358
 7475TIP3   OH243915   6.236   5.597   3.726  0.3338 -0.7456  0.1991
 7475TIP3    H143916   6.170   5.536   3.758 -0.5487  0.6272  1.1271
 7475TIP3    H243917   6.307   5.541   3.696 -1.2407 -2.2851 -0.8716
 7476TIP3   OH243918   4.895   2.683  14.518 -0.2373  0.4126  0.4293
 7476TIP3    H143919   4.813   2.732  14.509  0.4048  1.8511  1.9739
 7476TIP3    H243920   4.951   2.717  14.448 -0.5922  0.1272 -0.0073
 7477TIP3   OH243921   6.419   6.045   4.449  0.6082  0.6610  0.3730
 7477TIP3    H143922   6.515   6.047   4.439  0.6558 -0.6773  0.3593
 7477TIP3    H243923   6.402   6.096   4.528  1.3250  0.9781  0.3331
 7478TIP3   OH243924   4.548   4.858  15.841  0.3827 -0.1767 -0.3952
 7478TIP3    H143925   4.515   4.865  15.930 -0.3415  1.6463 -0.7502
 7478TIP3    H243926   4.638   4.892  15.845 -0.1568  1.3741 -0.5719
 7479TIP3   OH243927   4.106   3.700   1.430 -0.2099 -0.3766 -0.3262
 7479TIP3    H143928   4.055   3.747   1.364  0.8460  0.3194 -0.6713
 7479TIP3    H243929   4.098   3.608   1.406 -0.0676 -0.1570 -1.2656
 7480TIP3   OH243930   4.556   0.372   6.470 -0.7136 -0.1079 -0.7118
 7480TIP3    H143931   4.520   0.363   6.558 -0.3132  0.6254 -0.4596
 7480TIP3    H243932   4.602   0.456   6.471 -0.0542 -0.4419 -1.3920
 7481TIP3   OH243933   5.414   1.575  16.094 -0.7712 -0.3197  0.0301
 7481TIP3    H143934   5.385   1.617  16.013 -1.4523  1.7233  1.2561
 7481TIP3    H243935   5.400   1.482  16.079 -2.0152  0.0994 -1.7662
 7482TIP3   OH243936   1.633   1.900  16.840 -0.1850 -0.4170  0.0787
 7482TIP3    H143937   1.638   1.838  16.767 -0.0102 -0.1791 -0.1125
 7482TIP3    H243938   1.545   1.889  16.875 -0.9592  0.8132 -1.3788
 7483TIP3   OH243939   3.827   5.855  11.979 -0.3953 -0.3597  0.1025
 7483TIP3    H143940   3.787   5.787  11.924 -1.1870  1.6555 -1.9580
 7483TIP3    H243941   3.838   5.929  11.920  0.0407  1.4620  2.3672
 7484TIP3   OH243942   2.457   3.964  12.781  0.2521 -0.6862 -0.3962
 7484TIP3    H143943   2.361   3.970  12.779  0.1457 -1.7398  0.4774
 7484TIP3    H243944   2.486   4.055  12.784 -0.8504 -0.3318  2.4413
 7485TIP3   OH243945   2.742   2.005   3.694 -0.0029 -0.0664 -0.2144
 7485TIP3    H143946   2.715   1.913   3.696  1.5821 -0.5791  2.1060
 7485TIP3    H243947   2.661   2.054   3.703 -0.8167 -1.2424 -0.8526
 7486TIP3   OH243948   3.055   1.756   4.314  0.4375  0.0803  0.4203
 7486TIP3    H143949   3.148   1.733   4.307  0.8056  0.4033  3.1995
 7486TIP3    H243950   3.037   1.807   4.235  1.7942 -2.4441 -1.6581
 7487TIP3   OH243951   5.097   0.741  14.991 -0.3927 -0.1728  0.0144
 7487TIP3    H143952   5.051   0.807  15.043  1.0256  0.4192  0.5516
 7487TIP3    H243953   5.081   0.658  15.037 -0.9213  0.0132  0.1745
 7488TIP3   OH243954   3.542   0.560   3.696  1.1858  0.4214  0.6699
 7488TIP3    H143955   3.626   0.600   3.718  0.6320  1.6842  0.5559
 7488TIP3    H243956   3.545   0.550   3.600  0.3926  2.4532  0.3866
 7489TIP3   OH243957   1.124   5.878  16.620  0.2172 -0.5802  0.1961
 7489TIP3    H143958   1.094   5.965  16.645  0.1899  0.2854 -2.5027
 7489TIP3    H243959   1.047   5.822  16.629 -0.0124 -0.1293  1.0561
 7490TIP3   OH243960   5.279   3.154   3.658  0.0940  0.1765 -0.0414
 7490TIP3    H143961   5.368   3.163   3.625  0.2585  0.5626  0.4837
 7490TIP3    H243962   5.266   3.059   3.667 -0.0074  0.0530 -1.3089
 7491TIP3   OH243963   4.137   2.553  16.715  0.6024 -0.3051  0.0898
 7491TIP3    H143964   4.140   2.595  16.801  0.2734  0.0417 -0.0642
 7491TIP3    H243965   4.073   2.604  16.666  1.0550 -0.2815 -0.4827
 7492TIP3   OH243966   3.476   3.620  15.096 -0.3836 -0.1005  0.1330
 7492TIP3    H143967   3.461   3.714  15.095  1.4382  0.2347 -0.7561
 7492TIP3    H243968   3.480   3.596  15.003 -0.6143 -1.0170  0.3528
 7493TIP3   OH243969   6.602   0.574  14.852 -0.5326 -1.0610 -0.0666
 7493TIP3    H143970   6.666   0.520  14.807 -1.3451 -1.0058 -1.3250
 7493TIP3    H243971   6.571   0.636  14.786  1.1157  1.7126  1.5448
 7494TIP3   OH243972   2.406   3.115   1.358 -0.4451  0.0911  0.0309
 7494TIP3    H143973   2.425   3.208   1.348  0.7894 -0.2880 -1.8153
 7494TIP3    H243974   2.484   3.079   1.401 -0.6646 -0.1727  0.2106
 7495TIP3   OH243975   1.777   5.198   4.843  0.2804 -0.3138 -0.4229
 7495TIP3    H143976   1.847   5.133   4.850  0.0189 -0.7169 -1.4052
 7495TIP3    H243977   1.724   5.169   4.770 -0.9056  0.0190  0.2733
 7496TIP3   OH243978   2.105   0.094   6.794 -0.2078  0.0795 -0.0500
 7496TIP3    H143979   2.191   0.057   6.815  1.0936  2.2440 -1.2123
 7496TIP3    H243980   2.112   0.121   6.702 -1.8840  0.9659  0.0411
 7497TIP3   OH243981   5.867   5.085  14.979 -0.4003 -0.0392 -0.3097
 7497TIP3    H143982   5.944   5.107  15.030 -0.8994  0.9944  0.0120
 7497TIP3    H243983   5.879   5.129  14.895 -0.5604 -0.0183 -0.3233
 7498TIP3   OH243984   3.591   1.273  11.925  0.1395 -0.0303 -0.1043
 7498TIP3    H143985   3.498   1.263  11.948  0.0658 -1.0689 -0.7569
 7498TIP3    H243986   3.600   1.365  11.901 -0.2511  0.5971  1.9001
 7499TIP3   OH243987   3.046   3.355   5.419  0.1119 -0.0028 -0.3787
 7499TIP3    H143988   2.995   3.430   5.449  2.3285  1.4183  0.1178
 7499TIP3    H243989   3.056   3.300   5.497  0.9552  0.7190  0.0401
 7500TIP3   OH243990   0.616   3.628   3.897 -0.1690  0.5108  0.1617
 7500TIP3    H143991   0.643   3.541   3.867 -0.4658  0.6557 -0.5569
 7500TIP3    H243992   0.537   3.647   3.847 -0.6826  0.7719  1.0557
 7501TIP3   OH243993   5.505   5.032  11.106  0.0756 -0.5475 -0.5381
 7501TIP3    H143994   5.416   5.002  11.121 -0.4895  0.3958 -1.7989
 7501TIP3    H243995   5.499   5.086  11.026  1.5183  0.5956  0.0736
 7502TIP3   OH243996   2.561   4.892   2.731 -0.0852  0.0891 -0.0277
 7502TIP3    H143997   2.486   4.832   2.730  0.5516 -0.7062 -0.5644
 7502TIP3    H243998   2.638   4.835   2.730  0.5317  0.9065 -0.4664
 7503TIP3   OH243999   3.808   6.092  14.877  0.2600  0.3343  0.5586
 7503TIP3    H144000   3.818   6.043  14.795  2.0410  2.3891 -0.5768
 7503TIP3    H244001   3.753   6.037  14.932  1.7634 -2.7188 -0.7422
 7504TIP3   OH244002   3.234   1.772   1.979  0.3205 -0.4084 -0.3682
 7504TIP3    H144003   3.139   1.775   1.967  0.4615  0.0969 -1.4615
 7504TIP3    H244004   3.250   1.685   2.016 -0.6890  0.0305  1.2114
 7505TIP3   OH244005   3.423   5.388  12.268  0.4691 -0.4679  0.4078
 7505TIP3    H144006   3.457   5.352  12.350  0.6520 -1.8123 -0.2389
 7505TIP3    H244007   3.366   5.320  12.233 -0.9692  0.7650  0.2250
 7506TIP3   OH244008   3.796   4.738   5.789 -0.5004  0.1430 -0.9918
 7506TIP3    H144009   3.885   4.766   5.808  0.1203 -1.2472 -1.6752
 7506TIP3    H244010   3.793   4.647   5.819 -1.7152  0.2038 -0.8926
 7507TIP3   OH244011   0.642   0.122   2.662  0.2222  0.2910  0.0433
 7507TIP3    H144012   0.637   0.144   2.569  0.2898  0.7110  0.1365
 7507TIP3    H244013   0.554   0.091   2.684  0.0627  0.6829 -0.0392
 7508TIP3   OH244014   2.562   0.817  14.396 -0.8285 -0.5483  0.0037
 7508TIP3    H144015   2.551   0.722  14.393 -1.8341 -0.4573  0.5266
 7508TIP3    H244016   2.575   0.836  14.488 -0.5335 -0.1850 -0.1141
 7509TIP3   OH244017   1.212   4.137  15.812 -0.0275  0.1288 -0.1978
 7509TIP3    H144018   1.213   4.046  15.842 -1.4237 -0.7222 -2.4589
 7509TIP3    H244019   1.119   4.161  15.813  0.3540  1.7279  0.7756
 7510TIP3   OH244020   2.776   1.282  12.161 -1.0669 -0.5900  0.1136
 7510TIP3    H144021   2.831   1.339  12.215  0.1645 -1.9181  0.3269
 7510TIP3    H244022   2.743   1.339  12.092  1.1061  0.1592 -0.3943
 7511TIP3   OH244023   4.894   2.022  17.177 -0.2862  0.3167 -0.1140
 7511TIP3    H144024   4.852   1.985  17.099  0.6758  0.9513 -0.9453
 7511TIP3    H244025   4.837   1.994  17.249 -0.8418 -0.8246 -0.9541
 7512TIP3   OH244026   5.288   6.362   4.318 -0.0788 -0.2158 -0.2337
 7512TIP3    H144027   5.242   6.336   4.238  2.4483 -0.8796 -1.5878
 7512TIP3    H244028   5.348   6.290   4.336  1.3776  1.1432  0.6407
 7513TIP3   OH244029   1.646   2.947  12.315 -0.0062  0.3471 -0.0238
 7513TIP3    H144030   1.653   3.040  12.291  1.1727  0.0103 -1.1267
 7513TIP3    H244031   1.646   2.947  12.410 -1.5430  1.5672  0.0120
 7514TIP3   OH244032   6.446   1.613  17.043  0.3074 -0.0181  0.0375
 7514TIP3    H144033   6.401   1.547  17.096  1.7018 -0.7955  0.2857
 7514TIP3    H244034   6.479   1.676  17.107 -2.0340  1.6730 -0.2558
 7515TIP3   OH244035   1.173   1.214  15.683 -0.4920  0.4045  0.0048
 7515TIP3    H144036   1.175   1.289  15.624 -1.3892  0.6513  0.2721
 7515TIP3    H244037   1.115   1.242  15.755 -0.9871 -0.6101  0.0136
 7516TIP3   OH244038   2.284   3.905   1.827  0.8164 -0.1541 -0.3247
 7516TIP3    H144039   2.363   3.955   1.849 -0.3630  1.4479  0.4615
 7516TIP3    H244040   2.252   3.944   1.746  0.3379 -0.1750 -0.1488
 7517TIP3   OH244041   0.077   1.577  16.050 -0.7512 -0.2232  0.2190
 7517TIP3    H144042   0.134   1.566  15.974 -0.2418 -0.7874  0.6716
 7517TIP3    H244043   0.072   1.672  16.063  0.5334 -0.1647  0.4823
 7518TIP3   OH244044   5.414   1.951   0.774 -0.0675  0.4546  0.0758
 7518TIP3    H144045   5.363   1.897   0.835 -1.6983  0.3654 -1.2652
 7518TIP3    H244046   5.413   2.038   0.813  0.5398  0.0260  1.0912
 7519TIP3   OH244047   0.238   2.740   5.659  0.1538  0.3660 -0.1652
 7519TIP3    H144048   0.222   2.786   5.741  0.4223  0.9428 -0.4343
 7519TIP3    H244049   0.153   2.705   5.633  0.3582 -1.3034  1.2382
 7520TIP3   OH244050   2.747   4.682   6.521 -0.7281  0.1955 -0.3652
 7520TIP3    H144051   2.718   4.729   6.599 -0.8200  1.2720 -1.0247
 7520TIP3    H244052   2.803   4.744   6.475  0.7570 -1.0413 -0.2948
 7521TIP3   OH244053   6.268   3.096  11.951  0.2118  0.2153  0.3977
 7521TIP3    H144054   6.297   3.107  11.861  2.4794  1.8846  1.2361
 7521TIP3    H244055   6.185   3.143  11.956 -0.1030 -0.1844 -0.8868
 7522TIP3   OH244056   0.441   3.794   4.354 -0.7433 -0.3454 -0.1730
 7522TIP3    H144057   0.491   3.713   4.354  0.2058  0.2156  0.5572
 7522TIP3    H244058   0.353   3.768   4.382 -0.3762 -1.0803  0.3453
 7523TIP3   OH244059   2.679   4.885   5.255  0.3633  0.1023 -0.2479
 7523TIP3    H144060   2.586   4.866   5.240 -0.5016  2.8564  1.0028
 7523TIP3    H244061   2.713   4.906   5.169 -0.7695  1.2343 -0.4545
 7524TIP3   OH244062   6.228   2.099  15.939 -0.6411 -0.6853  0.3378
 7524TIP3    H144063   6.171   2.028  15.908 -1.1872 -0.0845 -0.0709
 7524TIP3    H244064   6.315   2.060  15.945 -0.7320 -1.1155 -0.9197
 7525TIP3   OH244065   1.408   1.259   2.650  0.1522  0.3388 -0.1144
 7525TIP3    H144066   1.460   1.211   2.713  2.5112  0.5008 -1.8082
 7525TIP3    H244067   1.393   1.344   2.691  0.9187  0.1558  0.5675
 7526TIP3   OH244068   6.261   4.507  13.001 -0.3652  0.4459 -0.5140
 7526TIP3    H144069   6.311   4.429  12.979 -1.0199 -0.0576 -0.2615
 7526TIP3    H244070   6.186   4.474  13.052 -0.1138  1.3265  0.4731
 7527TIP3   OH244071   0.657   4.219  12.910 -0.0259  0.3407 -0.4846
 7527TIP3    H144072   0.640   4.226  13.004  0.7394  0.6739 -0.3624
 7527TIP3    H244073   0.570   4.205  12.872 -0.1298 -2.0494  0.4487
 7528TIP3   OH244074   0.846   0.642  12.596  0.1420  0.7505  0.5301
 7528TIP3    H144075   0.793   0.565  12.574  0.1667  0.8665  0.0552
 7528TIP3    H244076   0.902   0.655  12.519 -0.3617  1.6723  0.3122
 7529TIP3   OH244077   5.095   1.157  10.783 -1.1303 -0.3303  0.3383
 7529TIP3    H144078   5.098   1.221  10.854 -2.2895  0.6098 -0.4140
 7529TIP3    H244079   5.002   1.152  10.760 -0.7692 -0.5783 -1.1394
 7530TIP3   OH244080   1.470   1.316   1.976  0.2951  0.6164 -0.3281
 7530TIP3    H144081   1.506   1.239   2.021 -2.8012 -0.1905  1.0480
 7530TIP3    H244082   1.448   1.377   2.047  1.0060  2.0390 -1.2780
 7531TIP3   OH244083   3.358   3.171  15.279 -0.4864  0.1173  0.0399
 7531TIP3    H144084   3.364   3.243  15.217 -0.3893  0.7177  0.7329
 7531TIP3    H244085   3.398   3.205  15.359  0.2089 -0.9413  0.1659
 7532TIP3   OH244086   0.993   1.625  16.145  0.0885 -0.1741 -0.6360
 7532TIP3    H144087   0.975   1.718  16.149 -2.9445 -0.6517 -0.5106
 7532TIP3    H244088   0.971   1.592  16.232  1.1986 -1.0013 -0.6497
 7533TIP3   OH244089   6.264   3.891   0.809 -0.0718 -0.1849 -0.2214
 7533TIP3    H144090   6.272   3.909   0.902 -1.3624  1.8132 -0.4387
 7533TIP3    H244091   6.296   3.801   0.799  1.8679  0.2115  1.8188
 7534TIP3   OH244092   1.259   1.842   0.735 -0.5899  0.2845 -0.3060
 7534TIP3    H144093   1.343   1.887   0.740 -1.1113  1.1139  1.7549
 7534TIP3    H244094   1.277   1.766   0.680  1.8291 -0.2086  1.0077
 7535TIP3   OH244095   1.744   0.638   0.710 -0.1163  0.3929 -0.2031
 7535TIP3    H144096   1.698   0.700   0.654  1.0095  0.8916 -0.6126
 7535TIP3    H244097   1.800   0.694   0.765  0.1770 -0.2068  0.1118
 7536TIP3   OH244098   5.199   0.399   0.243 -0.7754  0.3924  0.0012
 7536TIP3    H144099   5.241   0.367   0.323  0.3333  0.5004 -0.5105
 7536TIP3    H244100   5.228   0.338   0.175 -2.8418 -0.5342 -0.1111
 7537TIP3   OH244101   2.282   4.410  14.385  0.5690 -0.2152 -0.0991
 7537TIP3    H144102   2.296   4.432  14.293 -0.7536 -0.3379 -0.3423
 7537TIP3    H244103   2.241   4.323  14.383  1.1774 -0.5363  0.6472
 7538TIP3   OH244104   2.560   3.486  16.405  0.3820 -0.8383 -0.1084
 7538TIP3    H144105   2.512   3.423  16.458  0.6586 -0.6289  0.4026
 7538TIP3    H244106   2.604   3.433  16.338 -1.1650 -0.9580 -1.0886
 7539TIP3   OH244107   0.787   3.437  10.353  0.1151  0.1359 -0.1331
 7539TIP3    H144108   0.705   3.412  10.311  1.2317 -0.5674 -2.0120
 7539TIP3    H244109   0.790   3.383  10.433 -1.2979  0.2986  0.0610
 7540TIP3   OH244110   1.304   5.655  14.691 -0.1124 -0.1751  0.8531
 7540TIP3    H144111   1.217   5.679  14.722  0.2253  1.5665  0.5449
 7540TIP3    H244112   1.325   5.721  14.625  0.2800 -2.2479 -1.2104
 7541TIP3   OH244113   2.885   1.317  13.533 -0.0868 -0.5041  0.0421
 7541TIP3    H144114   2.898   1.399  13.486 -1.2503 -0.8242 -0.8981
 7541TIP3    H244115   2.940   1.325  13.611 -0.6784  1.4462  0.3183
 7542TIP3   OH244116   4.111   4.785   5.087  0.3584  0.3886 -0.0408
 7542TIP3    H144117   4.144   4.695   5.094  1.3427  0.6886 -0.5487
 7542TIP3    H244118   4.187   4.839   5.109  0.3419  1.1121 -1.6295
 7543TIP3   OH244119   0.239   3.814  14.040 -0.1634 -0.2480  0.1674
 7543TIP3    H144120   0.146   3.800  14.021 -0.1986 -0.1644  0.2797
 7543TIP3    H244121   0.283   3.742  13.994 -0.3740 -0.9276  0.9977
 7544TIP3   OH244122   6.123   1.294  10.775  0.3494  0.0586  0.3345
 7544TIP3    H144123   6.211   1.329  10.787  0.1243  2.0058 -2.6178
 7544TIP3    H244124   6.136   1.200  10.764  1.8480  0.1116  1.2903
 7545TIP3   OH244125   4.675   3.656  14.003 -0.1011 -0.2215 -0.0816
 7545TIP3    H144126   4.651   3.700  13.922 -1.4642  3.1380  1.9275
 7545TIP3    H244127   4.592   3.624  14.038  0.1298  0.3147  0.9949
 7546TIP3   OH244128   6.422   0.290   5.163 -0.2650 -0.6005  0.7380
 7546TIP3    H144129   6.504   0.307   5.117 -0.8907 -0.7402 -0.4488
 7546TIP3    H244130   6.391   0.377   5.189  1.0446 -0.6440  2.6491
 7547TIP3   OH244131   2.242   5.938   6.206  0.1118 -0.1559 -0.5143
 7547TIP3    H144132   2.268   5.976   6.291  0.5911  0.2520 -0.8387
 7547TIP3    H244133   2.174   5.875   6.229  2.3986 -2.4093  0.5581
 7548TIP3   OH244134   1.602   5.373  12.543 -0.3277  0.0577  0.2348
 7548TIP3    H144135   1.587   5.281  12.524 -1.5383 -0.0682  1.6416
 7548TIP3    H244136   1.566   5.386  12.631  2.0101  1.3272  1.0848
 7549TIP3   OH244137   2.265   5.033   2.562  0.0998  0.0084 -0.1174
 7549TIP3    H144138   2.238   5.068   2.477 -0.2509 -0.9721 -0.4307
 7549TIP3    H244139   2.242   5.100   2.625 -0.3520  0.4214 -0.7156
 7550TIP3   OH244140   5.050   6.722   2.956 -0.7711 -0.1603 -0.3079
 7550TIP3    H144141   5.017   6.653   2.899  1.6832  0.3170 -2.4906
 7550TIP3    H244142   5.047   6.802   2.903 -1.4891  1.0210  1.4092
 7551TIP3   OH244143   0.396   4.918   0.281  0.0616 -0.2233 -0.0251
 7551TIP3    H144144   0.400   4.844   0.340 -2.0769 -0.2095  0.2343
 7551TIP3    H244145   0.316   4.965   0.306  1.8552  2.8293  0.5598
 7552TIP3   OH244146   2.649   0.595   2.322  0.2593  0.2616  0.1027
 7552TIP3    H144147   2.702   0.522   2.354 -2.1527 -1.9775 -0.6360
 7552TIP3    H244148   2.583   0.609   2.390 -0.6717  0.1836 -0.7603
 7553TIP3   OH244149   4.226   4.437  13.851  0.6826 -0.1069  0.2262
 7553TIP3    H144150   4.176   4.498  13.796  0.2880 -1.0456 -0.5061
 7553TIP3    H244151   4.314   4.473  13.854  0.1029  1.2999  1.0959
 7554TIP3   OH244152   4.084   4.168   4.327 -0.5457  0.1074 -0.1725
 7554TIP3    H144153   4.140   4.092   4.343  0.9332  1.0713 -0.6007
 7554TIP3    H244154   4.138   4.243   4.350 -1.7314  1.0769 -0.4412
 7555TIP3   OH244155   4.075   1.342  11.476  0.3723  0.1120  0.6561
 7555TIP3    H144156   4.105   1.321  11.564 -1.4840  1.4583  1.6663
 7555TIP3    H244157   4.041   1.259  11.442  0.1507 -0.1948  1.6117
 7556TIP3   OH244158   1.194   0.216   1.416  0.1437  0.0238 -0.3573
 7556TIP3    H144159   1.149   0.234   1.498  0.5640  2.3646 -0.5649
 7556TIP3    H244160   1.287   0.224   1.437  0.2440  1.0508 -1.1145
 7557TIP3   OH244161   5.677   3.625  15.837  0.3849 -0.2628 -0.0434
 7557TIP3    H144162   5.689   3.531  15.855 -2.3484 -0.5117  0.9882
 7557TIP3    H244163   5.670   3.630  15.742  0.9789 -1.0532 -0.1369
 7558TIP3   OH244164   5.140   5.503  16.477 -0.5899 -0.6694  0.3856
 7558TIP3    H144165   5.092   5.492  16.395 -0.8413  0.5369  0.3544
 7558TIP3    H244166   5.141   5.597  16.491  0.9896 -0.7377  0.8617
 7559TIP3   OH244167   2.668   4.527   2.491  0.3945 -0.5876  0.3414
 7559TIP3    H144168   2.762   4.533   2.474  0.2414  0.3201 -0.2763
 7559TIP3    H244169   2.640   4.451   2.440  0.4688  0.3324 -1.1345
 7560TIP3   OH244170   5.249   6.569  14.912 -0.6387  0.0390  0.3936
 7560TIP3    H144171   5.211   6.628  14.847 -0.5425  1.5636  1.6553
 7560TIP3    H244172   5.325   6.616  14.946 -0.7000 -0.6926  1.6307
 7561TIP3   OH244173   5.643   3.302  16.456 -0.2490  0.2957  0.0875
 7561TIP3    H144174   5.641   3.221  16.508 -1.9511  0.8454  0.9436
 7561TIP3    H244175   5.638   3.272  16.366  3.9777 -0.7580 -0.0317
 7562TIP3   OH244176   4.640   0.808  16.651  0.3429  0.1302 -0.0949
 7562TIP3    H144177   4.545   0.814  16.649  0.2313  0.6137  2.7470
 7562TIP3    H244178   4.658   0.745  16.720  2.1060  0.3781 -0.2899
 7563TIP3   OH244179   5.494   5.634   5.975 -0.2313 -0.4615 -0.2121
 7563TIP3    H144180   5.404   5.601   5.971 -0.1979 -0.6905  0.6415
 7563TIP3    H244181   5.494   5.695   6.049  0.3458 -0.5524 -0.1332
 7564TIP3   OH244182   3.320   0.240   4.462  0.6982 -0.1214 -0.3447
 7564TIP3    H144183   3.274   0.313   4.419  1.1033 -0.3748 -1.2459
 7564TIP3    H244184   3.408   0.242   4.423  0.1800 -2.2057 -1.7581
 7565TIP3   OH244185   1.065   4.769  16.209 -0.5732  0.1627  0.4624
 7565TIP3    H144186   1.083   4.755  16.302 -0.6983 -0.5105  0.3951
 7565TIP3    H244187   1.144   4.810  16.174 -1.1406  1.9925  1.1878
 7566TIP3   OH244188   2.187   4.231  11.773 -0.0351  0.2865 -0.3461
 7566TIP3    H144189   2.162   4.203  11.685 -2.4747  1.7879 -0.2100
 7566TIP3    H244190   2.135   4.177  11.832  1.3275 -0.4675  0.2206
 7567TIP3   OH244191   1.174   4.637   6.167 -0.1834 -0.2190  0.1162
 7567TIP3    H144192   1.130   4.720   6.186 -2.2268 -1.2253  0.0619
 7567TIP3    H244193   1.107   4.583   6.127  1.4324 -1.5181 -0.9758
 7568TIP3   OH244194   6.772   0.995  12.387  0.0235  0.1693  0.2384
 7568TIP3    H144195   6.691   1.045  12.402 -0.2819 -1.2218  4.8906
 7568TIP3    H244196   6.840   1.045  12.431  1.0401 -0.3986 -0.6386
 7569TIP3   OH244197   5.628   2.359  16.885 -0.3100  0.1825 -0.1056
 7569TIP3    H144198   5.709   2.403  16.913 -0.7015  0.5083  0.5345
 7569TIP3    H244199   5.565   2.430  16.872 -0.5249 -0.0771 -0.5058
 7570TIP3   OH244200   0.177   2.186   5.893 -0.2821  0.2987  0.0945
 7570TIP3    H144201   0.249   2.182   5.956  0.7053  1.6389 -0.8925
 7570TIP3    H244202   0.134   2.269   5.910 -1.2685 -0.2308  0.2896
 7571TIP3   OH244203   6.116   2.396   5.011  0.0971 -0.0898  0.2603
 7571TIP3    H144204   6.052   2.366   5.076 -1.6780  0.1088 -1.3015
 7571TIP3    H244205   6.103   2.490   5.007  1.4468  0.1467  0.8355
 7572TIP3   OH244206   5.062   4.771   0.967 -0.1589  0.2972 -0.3609
 7572TIP3    H144207   4.971   4.750   0.989  0.0875  0.8230  1.2981
 7572TIP3    H244208   5.063   4.775   0.871 -1.5034 -1.3325 -0.4988
 7573TIP3   OH244209   1.120   4.593   5.578 -0.3678  0.3996  0.1669
 7573TIP3    H144210   1.125   4.654   5.505  0.8735  0.2369  0.0927
 7573TIP3    H244211   1.156   4.511   5.543  0.8367  0.4944  1.1040
 7574TIP3   OH244212   5.732   3.824   3.577  0.0687  1.2056 -0.4529
 7574TIP3    H144213   5.815   3.784   3.602 -0.4392  0.0134 -0.5930
 7574TIP3    H244214   5.667   3.777   3.629 -0.4901  2.4252 -0.0147
 7575TIP3   OH244215   2.885   3.346   1.678  0.1997 -0.2694  0.0208
 7575TIP3    H144216   2.799   3.306   1.666 -0.2880  0.8200 -0.1807
 7575TIP3    H244217   2.922   3.300   1.753 -0.6371 -0.6024  0.2446
 7576TIP3   OH244218   3.869   0.071  11.436 -0.7895 -0.5043 -0.3930
 7576TIP3    H144219   3.800   0.129  11.467  0.9074  1.6078 -0.3182
 7576TIP3    H244220   3.841   0.044  11.349 -1.1669  1.3182 -0.8729
 7577TIP3   OH244221   3.667   3.245   1.579  0.1726  0.2492  0.1001
 7577TIP3    H144222   3.756   3.274   1.558 -0.6846  2.2681 -1.1209
 7577TIP3    H244223   3.678   3.157   1.615  2.6139  0.2738 -0.3842
 7578TIP3   OH244224   1.867   0.951  14.472 -0.0630 -0.1969 -0.5322
 7578TIP3    H144225   1.821   0.881  14.518  1.7232 -2.7576 -2.3891
 7578TIP3    H244226   1.951   0.958  14.516  0.0167  0.3720 -0.7619
 7579TIP3   OH244227   2.244   4.080   1.597  0.0557  0.6591  0.1632
 7579TIP3    H144228   2.209   4.078   1.508  0.0855 -0.1297  0.1637
 7579TIP3    H244229   2.339   4.084   1.586  0.1152 -0.5000  0.1448
 7580TIP3   OH244230   3.759   4.839  11.938  0.0750 -0.2752 -0.1075
 7580TIP3    H144231   3.686   4.899  11.921  0.5981  0.2950 -0.3789
 7580TIP3    H244232   3.766   4.788  11.857  0.5070  0.2423 -0.4025
 7581TIP3   OH244233   3.057   1.341  13.761 -0.5149  0.5010  0.3310
 7581TIP3    H144234   3.147   1.308  13.768 -0.7754 -0.3481 -0.1500
 7581TIP3    H244235   3.047   1.399  13.836 -0.3668 -1.3579  1.8814
 7582TIP3   OH244236   4.903   2.618  11.027 -0.0330  0.6832  0.2935
 7582TIP3    H144237   4.990   2.585  11.005 -0.4578  0.0544 -0.4414
 7582TIP3    H244238   4.843   2.549  11.000 -0.8237  1.4472  0.0591
 7583TIP3   OH244239   2.644   0.123  12.665 -0.1784  0.0644 -0.2901
 7583TIP3    H144240   2.563   0.079  12.693  0.3466 -0.9657 -0.3276
 7583TIP3    H244241   2.689   0.144  12.746 -0.1912  0.0634 -0.2829
 7584TIP3   OH244242   1.605   6.685   6.147 -0.0667 -0.0108  0.3165
 7584TIP3    H144243   1.514   6.712   6.141 -0.0948 -0.1856 -0.0926
 7584TIP3    H244244   1.638   6.729   6.225  0.2354  2.2267 -0.9820
 7585TIP3   OH244245   2.104   3.741  11.486 -0.1344 -0.5971 -0.4877
 7585TIP3    H144246   2.151   3.822  11.463  0.0198 -0.1685  1.2227
 7585TIP3    H244247   2.018   3.751  11.445  0.6797 -0.6920 -2.3435
 7586TIP3   OH244248   3.165   1.688  13.501 -0.2067 -0.0997 -0.2412
 7586TIP3    H144249   3.163   1.726  13.413  0.2370  2.0656  0.6012
 7586TIP3    H244250   3.177   1.764  13.559  0.8656 -1.5919  1.6072
 7587TIP3   OH244251   2.117   4.925   5.024  0.1845 -0.0278  0.4643
 7587TIP3    H144252   2.212   4.917   5.022  0.5585  1.5240  3.9835
 7587TIP3    H244253   2.101   5.015   5.052 -2.2454 -0.6562  1.3789
 7588TIP3   OH244254   5.375   0.740   6.071  0.3505 -0.2370 -0.5313
 7588TIP3    H144255   5.311   0.681   6.110 -0.4196  1.0073  0.1568
 7588TIP3    H244256   5.352   0.742   5.978  2.0086 -2.9861 -1.1066
 7589TIP3   OH244257   6.489   5.146  16.291  0.4760 -0.1483  0.5597
 7589TIP3    H144258   6.550   5.106  16.230  0.8712  1.2059  0.0150
 7589TIP3    H244259   6.509   5.106  16.376  1.8688 -0.0245  0.3156
 7590TIP3   OH244260   1.712   1.866   6.305 -0.4140 -0.0684 -0.5085
 7590TIP3    H144261   1.641   1.848   6.366 -0.7839  0.3385 -0.8162
 7590TIP3    H244262   1.791   1.843   6.354 -0.8179 -2.0395 -0.7056
 7591TIP3   OH244263   2.010   1.363  13.057  0.4003 -0.5326 -0.3275
 7591TIP3    H144264   1.941   1.405  13.006  0.2689 -0.8734 -0.4351
 7591TIP3    H244265   2.000   1.269  13.039  0.6544 -0.6165 -0.0513
 7592TIP3   OH244266   5.097   6.778   5.202  0.0041 -0.8521 -0.3559
 7592TIP3    H144267   5.163   6.720   5.239 -0.2673  0.0136  1.5937
 7592TIP3    H244268   5.145   6.837   5.145  0.8488 -0.5854  0.6112
 7593TIP3   OH244269   0.981   5.563  15.466 -0.1003 -0.0275 -0.2159
 7593TIP3    H144270   0.952   5.556  15.375  0.5307  1.0018 -0.5167
 7593TIP3    H244271   1.069   5.527  15.466  0.1396  0.5398 -0.1565
 7594TIP3   OH244272   3.945   5.728   2.963 -0.0904  0.1098 -0.0006
 7594TIP3    H144273   3.862   5.711   2.919 -0.7122 -0.7979  1.4625
 7594TIP3    H244274   4.004   5.660   2.931 -0.4001 -0.2527  0.1948
 7595TIP3   OH244275   1.725   6.731  14.444 -0.2062  0.0008  0.1419
 7595TIP3    H144276   1.656   6.677  14.481  0.3903  0.5447  2.1543
 7595TIP3    H244277   1.806   6.682  14.460  0.0973  0.3497 -0.2717
 7596TIP3   OH244278   2.073   5.679   4.087  0.1591  0.8704 -0.6479
 7596TIP3    H144279   2.074   5.677   3.991 -2.1822  0.1088 -0.7252
 7596TIP3    H244280   2.153   5.725   4.111  1.8940 -0.7628 -2.8806
 7597TIP3   OH244281   6.221   5.743   3.458 -0.1411 -0.0987 -0.3687
 7597TIP3    H144282   6.210   5.832   3.491 -0.1053 -0.4240  0.5567
 7597TIP3    H244283   6.189   5.687   3.529  1.7383 -0.8817 -0.0760
 7598TIP3   OH244284   3.273   0.577  12.613 -0.0140  0.1960  0.0066
 7598TIP3    H144285   3.262   0.484  12.631 -1.1922  0.7257  2.4785
 7598TIP3    H244286   3.187   0.605  12.579 -0.7522  0.9232  2.3029
 7599TIP3   OH244287   3.546   0.170   5.101  0.7647 -0.4481  0.3859
 7599TIP3    H144288   3.457   0.151   5.131 -0.4304  1.3524 -1.7290
 7599TIP3    H244289   3.536   0.198   5.010  3.3650  0.8408  0.3885
 7600TIP3   OH244290   5.603   1.860   4.780  0.3587 -0.5218 -0.0369
 7600TIP3    H144291   5.549   1.814   4.846 -0.4373 -0.4894 -0.6468
 7600TIP3    H244292   5.681   1.806   4.772 -0.3434 -1.5266 -0.3783
 7601TIP3   OH244293   3.189   2.291   3.089  0.1957  0.4002  0.3078
 7601TIP3    H144294   3.100   2.258   3.083 -0.2502  1.8189 -2.9050
 7601TIP3    H244295   3.221   2.260   3.174 -3.0705 -0.7454  1.2520
 7602TIP3   OH244296   3.956   0.663  16.628  0.3918 -0.3181 -0.1023
 7602TIP3    H144297   3.907   0.581  16.640  1.3868 -1.0857 -1.0391
 7602TIP3    H244298   3.889   0.730  16.617 -0.4427 -1.1798 -0.3796
 7603TIP3   OH244299   5.296   5.907  15.031 -0.0510  0.2415 -0.4258
 7603TIP3    H144300   5.368   5.874  14.978  0.2678  2.8083 -1.7522
 7603TIP3    H244301   5.334   5.921  15.118 -0.4017 -3.3393  0.4467
 7604TIP3   OH244302   4.472   2.121  10.776  0.0230 -0.2809  0.0237
 7604TIP3    H144303   4.550   2.169  10.748 -0.4174  0.6063  0.2954
 7604TIP3    H244304   4.465   2.049  10.713  0.7516 -0.0590 -0.3261
 7605TIP3   OH244305   5.578   4.301   0.267  0.1386  0.0633 -0.2231
 7605TIP3    H144306   5.578   4.222   0.321  0.8844  0.0414 -0.2422
 7605TIP3    H244307   5.642   4.283   0.198  0.2778  0.6596 -0.2568
 7606TIP3   OH244308   0.666   6.623  17.033  0.2191 -0.1074  0.0080
 7606TIP3    H144309   0.740   6.615  17.093 -0.9136 -2.1181  1.2671
 7606TIP3    H244310   0.606   6.684  17.075 -1.2462 -2.6002  1.8560
 7607TIP3   OH244311   0.025   5.405  16.947  0.1457  0.0038 -0.4567
 7607TIP3    H144312   0.103   5.368  16.990 -1.0317 -1.1529  0.8092
 7607TIP3    H244313   0.013   5.490  16.990  1.4191  0.7866 -1.5814
 7608TIP3   OH244314   6.329   1.908  16.164  0.0184  0.2762 -0.2224
 7608TIP3    H144315   6.394   1.963  16.120 -0.3626  1.5936  0.7862
 7608TIP3    H244316   6.300   1.961  16.239  0.6249 -1.8392  1.6208
 7609TIP3   OH244317   0.745   1.129  17.136  0.1475 -0.2959 -0.4674
 7609TIP3    H144318   0.757   1.117  17.230 -1.3287  0.5529 -0.1437
 7609TIP3    H244319   0.754   1.041  17.099 -0.5459 -0.8394  0.6149
 7610TIP3   OH244320   4.507   0.124  16.209  0.1259  0.0321  0.1542
 7610TIP3    H144321   4.495   0.205  16.259 -0.8927  0.6345 -0.9941
 7610TIP3    H244322   4.502   0.152  16.117 -1.0885 -1.4477 -0.2667
 7611TIP3   OH244323   2.729   0.835  16.278  0.2717  0.1829  0.0648
 7611TIP3    H144324   2.818   0.834  16.312  0.4573 -0.3801 -0.4390
 7611TIP3    H244325   2.738   0.823  16.184 -0.2948  0.9083 -0.0964
 7612TIP3   OH244326   3.756   2.121  13.968  0.2290 -0.4258  0.1984
 7612TIP3    H144327   3.744   2.158  14.056  0.3920 -1.6590  0.7540
 7612TIP3    H244328   3.706   2.040  13.969  1.9617 -1.5427 -0.1453
 7613TIP3   OH244329   4.909   2.237  15.908  0.2633  0.0467  0.1399
 7613TIP3    H144330   4.878   2.319  15.870  2.0422  0.6407 -0.1225
 7613TIP3    H244331   4.842   2.213  15.971 -0.9129  1.0253 -0.7031
 7614TIP3   OH244332   4.635   1.933   1.342 -0.4121  0.4160  0.0004
 7614TIP3    H144333   4.678   1.926   1.257 -0.0097  1.4092  0.1133
 7614TIP3    H244334   4.545   1.956   1.322 -0.8286 -1.2307 -0.2181
 7615TIP3   OH244335   6.306   1.914   2.219 -0.3126 -0.4765  0.0008
 7615TIP3    H144336   6.241   1.860   2.264 -0.9239 -0.6205 -1.0287
 7615TIP3    H244337   6.360   1.851   2.171 -1.6426 -0.1711 -2.0136
 7616TIP3   OH244338   5.355   6.460   6.111  0.3740  0.2668 -0.5010
 7616TIP3    H144339   5.390   6.512   6.183  0.4076  1.0329 -1.0697
 7616TIP3    H244340   5.422   6.393   6.095  0.4411  0.1956  0.0642
 7617TIP3   OH244341   4.513   0.104   1.953  0.1190 -0.3566  0.2145
 7617TIP3    H144342   4.468   0.175   1.906 -1.8969 -0.0095  2.5068
 7617TIP3    H244343   4.476   0.024   1.915 -1.6876 -0.0814  1.2834
 7618TIP3   OH244344   3.548   3.681  12.675 -0.3403 -0.3049 -0.1339
 7618TIP3    H144345   3.559   3.756  12.616  0.2171  0.7254  1.2065
 7618TIP3    H244346   3.468   3.700  12.723 -0.8419 -1.1819 -0.6132
 7619TIP3   OH244347   4.010   6.512   4.438 -0.3155  0.6432 -0.1439
 7619TIP3    H144348   4.046   6.467   4.514  0.1044 -1.3575 -1.4373
 7619TIP3    H244349   3.916   6.517   4.455 -0.2201  0.2231  0.5089
 7620TIP3   OH244350   6.047   0.022   0.535  0.2683  0.6693 -0.7010
 7620TIP3    H144351   5.992  -0.034   0.480 -2.1993 -0.8458  2.9176
 7620TIP3    H244352   6.122  -0.032   0.556  0.7139  0.8849 -1.6733
 7621TIP3   OH244353   4.541   6.445   5.187 -0.2908 -0.1387 -0.1885
 7621TIP3    H144354   4.633   6.464   5.172 -0.3568  3.5169  2.6725
 7621TIP3    H244355   4.495   6.502   5.126 -0.7422 -1.5532 -1.2256
 7622TIP3   OH244356   3.477   2.077   2.372  0.4190 -0.2794 -0.3860
 7622TIP3    H144357   3.407   2.036   2.321  0.6604  0.0586 -0.9992
 7622TIP3    H244358   3.475   2.032   2.457 -1.9668  1.1552  0.4183
 7623TIP3   OH244359   3.704   3.754  12.248  0.2979  0.1921  0.0818
 7623TIP3    H144360   3.790   3.713  12.265  0.2953  0.3398  0.4742
 7623TIP3    H244361   3.661   3.753  12.334 -0.5086 -0.8218 -0.3161
 7624TIP3   OH244362   2.202   4.131  15.297  0.6350  0.0757 -0.4881
 7624TIP3    H144363   2.134   4.142  15.363  1.1445 -0.2239  0.0910
 7624TIP3    H244364   2.183   4.046  15.257  1.4928 -0.6665  0.6494
 7625TIP3   OH244365   6.527   3.645  12.776  0.7199  0.1696 -0.2083
 7625TIP3    H144366   6.605   3.600  12.808  1.2403  1.7063  0.8169
 7625TIP3    H244367   6.553   3.679  12.690  1.5198  1.4278  0.5041
 7626TIP3   OH244368   0.224   2.291   1.975 -0.1830  0.6049 -0.4354
 7626TIP3    H144369   0.237   2.333   2.060  0.3119 -0.3579 -0.0270
 7626TIP3    H244370   0.129   2.298   1.959 -0.9981 -2.6064  2.0348
 7627TIP3   OH244371   6.579   5.192  15.080 -0.5022  0.0229  0.0457
 7627TIP3    H144372   6.580   5.201  15.175 -1.3133  0.0917  0.0530
 7627TIP3    H244373   6.659   5.144  15.060 -1.5819 -2.3406  1.0005
 7628TIP3   OH244374   1.976   0.565  15.918  0.2481 -0.4007 -0.3085
 7628TIP3    H144375   1.916   0.490  15.923 -1.0230  0.4347 -2.0635
 7628TIP3    H244376   1.983   0.584  15.825 -0.5586  2.4655  0.1098
 7629TIP3   OH244377   2.150   5.260   1.922 -0.2357 -0.3206  0.2176
 7629TIP3    H144378   2.199   5.335   1.955  0.1902 -0.2038 -0.6450
 7629TIP3    H244379   2.081   5.245   1.986  0.0184  0.4630  0.6742
 7630TIP3   OH244380   2.639   5.424  14.939  0.0261 -0.0948  0.6562
 7630TIP3    H144381   2.691   5.499  14.966 -1.4935  1.4741 -0.5444
 7630TIP3    H244382   2.669   5.404  14.850 -2.2700  1.7798 -0.6508
 7631TIP3   OH244383   6.246   0.534  11.098  0.5658  0.5752 -0.0751
 7631TIP3    H144384   6.234   0.582  11.016  2.5455  1.4487  0.0889
 7631TIP3    H244385   6.193   0.455  11.088  0.5647  0.7859 -2.0880
 7632TIP3   OH244386   3.009   3.224   1.898  0.4123 -0.7925 -0.4848
 7632TIP3    H144387   3.102   3.211   1.913  0.6553 -0.0442 -1.2838
 7632TIP3    H244388   2.970   3.138   1.914  1.2843 -1.1965 -0.4978
 7633TIP3   OH244389   2.484   4.531  15.543  0.0526 -0.6318  0.0660
 7633TIP3    H144390   2.579   4.523  15.530  0.4389  1.4717  1.2605
 7633TIP3    H244391   2.448   4.530  15.454  0.9087 -3.6963 -0.3621
 7634TIP3   OH244392   3.304   4.420   4.179  0.0939 -0.6108  0.2666
 7634TIP3    H144393   3.371   4.369   4.224 -0.0664 -0.5244  0.6045
 7634TIP3    H244394   3.350   4.498   4.149  0.4259 -1.1211 -0.5793
 7635TIP3   OH244395   2.135   0.689   1.824  0.3075 -0.2205 -0.4225
 7635TIP3    H144396   2.191   0.727   1.892 -0.6091  1.4564 -0.5596
 7635TIP3    H244397   2.061   0.652   1.873 -0.4337  1.1294 -0.4637
 7636TIP3   OH244398   4.570   1.546   0.798  0.1480  0.3102  0.1260
 7636TIP3    H144399   4.650   1.515   0.841 -1.1365 -2.2115  0.9245
 7636TIP3    H244400   4.499   1.501   0.845 -1.5934  0.6333 -2.0448
 7637TIP3   OH244401   5.524   2.505   4.448 -0.1992 -0.7666 -0.1085
 7637TIP3    H144402   5.551   2.511   4.356 -0.2673  0.2520 -0.0725
 7637TIP3    H244403   5.603   2.523   4.498 -0.1532 -1.3598  0.0328
 7638TIP3   OH244404   5.801   0.823   3.737  0.3756 -0.1980  0.0596
 7638TIP3    H144405   5.882   0.775   3.753  1.1803  0.3608 -1.9625
 7638TIP3    H244406   5.751   0.766   3.678  1.0860  1.0551 -1.8850
 7639TIP3   OH244407   4.155   5.478   3.301 -0.6430 -0.3139  0.6174
 7639TIP3    H144408   4.158   5.573   3.291 -3.6785 -0.1029  0.8256
 7639TIP3    H244409   4.093   5.448   3.234  0.2261 -2.1793  0.5604
 7640TIP3   OH244410   0.250   3.023   3.357 -1.0442 -0.7667 -0.1921
 7640TIP3    H144411   0.162   3.051   3.332 -0.7162  0.5404  0.0304
 7640TIP3    H244412   0.241   3.001   3.450 -0.7823  1.1534  0.3384
 7641TIP3   OH244413   0.607   5.480   1.470 -0.1925 -0.2261 -0.4768
 7641TIP3    H144414   0.520   5.450   1.444 -0.5599  0.1255  0.3026
 7641TIP3    H244415   0.655   5.488   1.388  0.4300 -4.3259 -0.7181
 7642TIP3   OH244416   6.457   3.052  15.811 -0.4574 -0.3554  0.6957
 7642TIP3    H144417   6.411   2.972  15.836 -1.0901 -0.7666 -1.6032
 7642TIP3    H244418   6.548   3.036  15.839 -0.0597 -2.8761 -1.6395
 7643TIP3   OH244419   3.343   6.215   6.384 -0.1653 -0.7756  0.1667
 7643TIP3    H144420   3.260   6.261   6.372  0.5195  0.0787 -1.6399
 7643TIP3    H244421   3.369   6.235   6.473 -0.5349  1.3007 -0.1567
 7644TIP3   OH244422   4.484   6.426  11.680  0.6747 -0.1952  0.1484
 7644TIP3    H144423   4.509   6.506  11.725  1.4321 -1.2265  1.6381
 7644TIP3    H244424   4.562   6.370  11.684 -0.3251 -1.6230  0.5932
 7645TIP3   OH244425   4.111   6.047  14.332 -0.2722 -0.0829 -0.3431
 7645TIP3    H144426   4.056   5.996  14.391  0.7434 -0.5138  0.2469
 7645TIP3    H244427   4.114   5.995  14.252 -1.7006  0.5334 -0.8424
 7646TIP3   OH244428   1.499   1.740  11.371 -0.2686  0.1177 -0.3454
 7646TIP3    H144429   1.571   1.771  11.427 -0.6493 -1.4705  1.0861
 7646TIP3    H244430   1.438   1.814  11.368 -1.0017 -0.2316  2.7295
 7647TIP3   OH244431   0.485   1.351  13.667  0.3242  0.6751  0.4832
 7647TIP3    H144432   0.443   1.434  13.690 -1.1015 -0.2828  1.5513
 7647TIP3    H244433   0.523   1.366  13.580 -2.0312  1.7331 -0.4442
 7648TIP3   OH244434   3.430   2.289   4.196 -0.6567 -0.0834  0.1446
 7648TIP3    H144435   3.372   2.249   4.131 -0.1095 -1.1563  0.2969
 7648TIP3    H244436   3.374   2.302   4.273 -0.9953  0.0189 -0.1194
 7649TIP3   OH244437   1.005   1.699   0.565 -0.2679  0.3772  0.5820
 7649TIP3    H144438   0.911   1.681   0.562 -0.1059 -1.1269  2.2981
 7649TIP3    H244439   1.014   1.766   0.633 -0.2101  1.9286 -0.8796
 7650TIP3   OH244440   4.072   2.760   5.141  0.4376 -0.1279 -0.7568
 7650TIP3    H144441   4.063   2.828   5.074 -1.0813  0.6940  0.2278
 7650TIP3    H244442   4.085   2.679   5.092 -0.3435  0.4949 -2.0336
 7651TIP3   OH244443   0.308   3.139  13.095 -0.2352 -0.0602 -0.0536
 7651TIP3    H144444   0.232   3.104  13.049  0.0330 -1.2875  0.4139
 7651TIP3    H244445   0.283   3.229  13.117 -0.8548  0.1512 -1.4645
 7652TIP3   OH244446   0.211   3.365  13.206 -0.9634  0.1315 -0.2512
 7652TIP3    H144447   0.128   3.340  13.247 -0.4298 -1.3032  0.0092
 7652TIP3    H244448   0.187   3.435  13.146 -2.3911 -0.3326 -0.2733
 7653TIP3   OH244449   5.500   5.647   5.607 -0.9813 -0.1922  0.0340
 7653TIP3    H144450   5.418   5.668   5.562 -2.1849 -1.0128  1.7565
 7653TIP3    H244451   5.476   5.581   5.672  1.2054 -1.0135  0.0802
 7654TIP3   OH244452   4.975   3.551   3.307  0.2851  0.1443  0.1811
 7654TIP3    H144453   4.897   3.603   3.289 -0.2063 -0.2855  1.0263
 7654TIP3    H244454   4.947   3.487   3.372  1.2340 -0.2956  0.1729
 7655TIP3   OH244455   3.664   2.503   2.848  0.4981 -0.2948  0.2236
 7655TIP3    H144456   3.712   2.441   2.903  1.3928 -1.6521 -1.9634
 7655TIP3    H244457   3.582   2.518   2.895  1.2608 -1.2962  1.9619
 7656TIP3   OH244458   2.862   5.766  11.366 -0.7664  0.2287  0.2928
 7656TIP3    H144459   2.900   5.711  11.297 -2.2055 -1.3854  0.7166
 7656TIP3    H244460   2.787   5.808  11.324  1.4027  3.6210 -0.6242
 7657TIP3   OH244461   5.623   5.174   2.799 -0.4630  0.3084  0.5000
 7657TIP3    H144462   5.600   5.243   2.860 -1.2224 -0.7734  1.4842
 7657TIP3    H244463   5.556   5.178   2.731  0.7934  1.9837 -0.7197
 7658TIP3   OH244464   4.044   3.970  12.358 -0.0177  0.7401  0.4635
 7658TIP3    H144465   4.049   3.891  12.304 -1.3433  0.2123  1.0713
 7658TIP3    H244466   4.134   4.003  12.360  0.8714 -1.5261  1.3380
 7659TIP3   OH244467   0.698   5.159  13.798 -0.3424 -0.3225 -0.3553
 7659TIP3    H144468   0.705   5.090  13.864 -1.3102  1.2162  1.4493
 7659TIP3    H244469   0.643   5.226  13.838 -0.0454  1.2132 -2.3130
 7660TIP3   OH244470   6.290   5.083   4.859  0.1770 -0.5832  0.5795
 7660TIP3    H144471   6.361   5.139   4.826 -1.1406  0.8725  0.0798
 7660TIP3    H244472   6.227   5.145   4.897 -1.4879 -1.6986 -0.2721
 7661TIP3   OH244473   3.940   6.043  16.915  0.6184 -0.2651 -0.5834
 7661TIP3    H144474   3.999   5.975  16.947  0.0912 -0.9162 -0.9880
 7661TIP3    H244475   3.880   6.059  16.988  0.7667 -0.1930 -0.4753
 7662TIP3   OH244476   2.572   1.386   1.346 -0.1989 -0.5227  0.0588
 7662TIP3    H144477   2.619   1.324   1.291 -0.0338  1.0471 -1.6653
 7662TIP3    H244478   2.633   1.406   1.417  0.7005 -0.4953 -0.7031
 7663TIP3   OH244479   0.947   0.877  12.820 -0.5915  0.4482  0.3241
 7663TIP3    H144480   0.982   0.806  12.873  0.5777  0.1543 -0.7867
 7663TIP3    H244481   0.886   0.923  12.877 -1.8773 -1.8336  0.8662
 7664TIP3   OH244482   5.795   2.790   3.468  0.9418  0.5415  0.7949
 7664TIP3    H144483   5.870   2.832   3.509  2.1783 -1.7064  1.0307
 7664TIP3    H244484   5.834   2.720   3.414 -0.9827 -1.1186  1.4455
 7665TIP3   OH244485   0.967   1.989  16.941  0.0049  0.2344 -0.4909
 7665TIP3    H144486   0.901   2.058  16.947 -2.1205 -1.6591 -0.5834
 7665TIP3    H244487   0.984   1.964  17.033 -3.8275 -3.0393 -0.4004
 7666TIP3   OH244488   3.807   5.749   1.850  0.4280 -0.5071 -0.2987
 7666TIP3    H144489   3.752   5.709   1.783  1.3814  1.6715 -2.5364
 7666TIP3    H244490   3.869   5.803   1.801 -1.4196  4.6681  2.3499
 7667TIP3   OH244491   3.499   1.283   5.262  0.1432  0.5003  0.8995
 7667TIP3    H144492   3.405   1.268   5.253  0.4199 -0.7156 -0.3668
 7667TIP3    H244493   3.506   1.359   5.320 -1.5901  0.2567  1.4732
 7668TIP3   OH244494   6.258   0.673   4.224 -0.1766  0.2296  0.3047
 7668TIP3    H144495   6.271   0.622   4.303 -1.5116 -0.4285  0.1214
 7668TIP3    H244496   6.331   0.735   4.223  1.6381 -1.7980  0.4066
 7669TIP3   OH244497   1.847   0.694  13.388  0.1259  0.3009 -0.4217
 7669TIP3    H144498   1.848   0.789  13.382  0.8332  0.2990 -0.3603
 7669TIP3    H244499   1.835   0.665  13.297  0.7029  0.4349 -0.5402
 7670TIP3   OH244500   3.715   4.353  15.380 -0.2618  0.4159 -0.5220
 7670TIP3    H144501   3.665   4.357  15.299  0.5099 -0.0836 -1.0410
 7670TIP3    H244502   3.795   4.306  15.357 -0.0234  0.2632  0.5299
 7671TIP3   OH244503   4.003   1.580  15.693 -0.5957  0.2607 -0.4246
 7671TIP3    H144504   4.052   1.543  15.766  1.1014  0.1423 -1.5552
 7671TIP3    H244505   4.024   1.673  15.695 -0.7486  0.3002 -0.6077
 7672TIP3   OH244506   3.402   2.172  16.323  0.3270  0.2342  0.3322
 7672TIP3    H144507   3.493   2.144  16.312  0.9737  2.1601  0.2780
 7672TIP3    H244508   3.360   2.101  16.371  0.9560 -2.2566 -2.5088
 7673TIP3   OH244509   4.112   5.895  12.732 -0.3509 -0.8465 -0.1014
 7673TIP3    H144510   4.026   5.888  12.773 -0.8082  2.5533 -0.2039
 7673TIP3    H244511   4.172   5.915  12.805 -0.6332  2.0128 -0.5409
 7674TIP3   OH244512   4.734   5.240   3.899  0.4143 -0.2111 -0.7076
 7674TIP3    H144513   4.640   5.250   3.910  0.3624 -1.2278 -0.1755
 7674TIP3    H244514   4.758   5.311   3.840 -0.2201  1.8362  1.3695
 7675TIP3   OH244515   1.094   1.922  16.701 -0.3370 -0.0420  0.2808
 7675TIP3    H144516   1.032   1.937  16.773 -0.8356 -1.8243  0.2782
 7675TIP3    H244517   1.180   1.923  16.743 -0.7023 -2.6753  1.2896
 7676TIP3   OH244518   5.893   5.672   5.672  0.3583  0.0344 -0.3535
 7676TIP3    H144519   5.849   5.647   5.753 -0.8649  1.8539 -0.4076
 7676TIP3    H244520   5.982   5.639   5.682  0.3980  0.6964  1.9785
 7677TIP3   OH244521   4.084   1.948  13.461 -0.0768  0.0799 -0.3893
 7677TIP3    H144522   4.096   1.853  13.458 -0.1246  0.0828 -3.2611
 7677TIP3    H244523   4.171   1.982  13.485  0.7653 -0.6201 -2.2472
 7678TIP3   OH244524   5.885   4.049   1.253 -0.0097  0.4509  0.0040
 7678TIP3    H144525   5.848   3.974   1.206 -0.1584  0.5385 -0.0218
 7678TIP3    H244526   5.954   4.082   1.195  1.9362 -1.2911  1.1803
 7679TIP3   OH244527   2.521   3.740  11.191 -0.7103  0.2061  0.0951
 7679TIP3    H144528   2.539   3.764  11.282  1.7968 -1.8727  0.2633
 7679TIP3    H244529   2.435   3.780  11.172 -0.9887  1.2959  3.0969
 7680TIP3   OH244530   0.797   3.282   4.014  0.2483  0.2361  0.4318
 7680TIP3    H144531   0.819   3.190   3.999 -1.5333 -0.1427 -0.1708
 7680TIP3    H244532   0.708   3.280   4.049  0.5334  1.7007  1.3321
 7681TIP3   OH244533   6.575   5.238   5.647  0.1720 -0.1904  0.7416
 7681TIP3    H144534   6.511   5.267   5.712  0.2501  1.4044  0.1530
 7681TIP3    H244535   6.659   5.272   5.680  0.1507  1.0168 -0.3654
 7682TIP3   OH244536   2.296   4.072   4.232  0.5553 -0.1265 -0.0114
 7682TIP3    H144537   2.380   4.104   4.264  0.7055 -0.5389  0.0226
 7682TIP3    H244538   2.313   4.041   4.143  0.2282  0.6424 -0.3454
 7683TIP3   OH244539   5.809   4.155   3.683  0.4034 -0.3402 -0.1488
 7683TIP3    H144540   5.855   4.078   3.717  1.8712  1.1370  1.4047
 7683TIP3    H244541   5.733   4.120   3.637  0.0846 -2.6221  1.9678
 7684TIP3   OH244542   2.182   5.347  13.843 -0.3304  0.4214  0.0641
 7684TIP3    H144543   2.104   5.391  13.878 -1.1118 -0.3459 -0.6673
 7684TIP3    H244544   2.254   5.382  13.895 -0.8817  2.7297 -0.5975
 7685TIP3   OH244545   5.339   4.053  11.573  0.3034 -0.4282  0.6531
 7685TIP3    H144546   5.275   3.989  11.605 -2.4001  0.6271 -2.0812
 7685TIP3    H244547   5.394   4.004  11.512 -3.1766 -0.1167 -3.2109
 7686TIP3   OH244548   4.001   3.038  14.998 -0.3101 -0.4977  0.3294
 7686TIP3    H144549   3.945   3.017  15.072 -1.1329 -2.0963 -0.6799
 7686TIP3    H244550   4.021   2.953  14.958  1.2880  0.1923 -0.4593
 7687TIP3   OH244551   6.820   0.409   4.843 -0.4130 -0.2379 -0.7996
 7687TIP3    H144552   6.763   0.467   4.893 -0.5277 -0.5603 -0.5546
 7687TIP3    H244553   6.905   0.414   4.887 -0.3039  0.0876 -1.0446
 7688TIP3   OH244554   5.352   6.782   3.160 -0.0936 -0.6366  0.1784
 7688TIP3    H144555   5.379   6.692   3.141 -1.6549 -1.3240  1.0518
 7688TIP3    H244556   5.416   6.813   3.224  0.7849 -0.9218 -0.5471
 7689TIP3   OH244557   1.669   3.745  10.620 -0.3935 -0.7537 -0.5676
 7689TIP3    H144558   1.761   3.724  10.606 -0.3806 -0.9434 -0.1774
 7689TIP3    H244559   1.668   3.839  10.638 -0.2889 -0.7352 -0.6577
 7690TIP3   OH244560   4.726   0.331  16.284 -0.3142 -0.5402 -0.5483
 7690TIP3    H144561   4.655   0.370  16.335 -0.3155 -1.1640 -0.0692
 7690TIP3    H244562   4.778   0.406  16.254 -0.6604 -0.1358 -0.1420
 7691TIP3   OH244563   4.194   1.933  11.653 -0.6585  0.1257  0.4010
 7691TIP3    H144564   4.171   1.901  11.566 -1.8695  1.4649  0.1950
 7691TIP3    H244565   4.121   1.989  11.678 -0.5533 -0.5805  2.4882
 7692TIP3   OH244566   4.583   1.002   2.580  0.0294  0.0828  0.0119
 7692TIP3    H144567   4.527   0.936   2.541 -1.4422  0.0646  2.0054
 7692TIP3    H244568   4.563   1.082   2.532 -0.3614 -0.3097 -0.4833
 7693TIP3   OH244569   3.717   2.365   4.949  0.0826 -0.0506  0.1861
 7693TIP3    H144570   3.757   2.401   4.870  0.9161 -0.1474  0.5534
 7693TIP3    H244571   3.747   2.274   4.952 -1.1297 -0.4851 -0.1558
 7694TIP3   OH244572   1.543   4.376  14.116  0.4056  0.1421  0.4472
 7694TIP3    H144573   1.471   4.333  14.071  1.2019 -0.8078  0.0457
 7694TIP3    H244574   1.593   4.305  14.156  2.8770  0.3816 -1.8645
 7695TIP3   OH244575   6.054   4.856  12.979  0.5749 -0.9836  0.2933
 7695TIP3    H144576   6.107   4.892  13.050  0.1086  0.8297 -0.2133
 7695TIP3    H244577   5.964   4.882  13.001  0.2403 -1.6543 -0.2385
 7696TIP3   OH244578   0.020   5.940   3.765 -0.1811 -0.9403  0.3941
 7696TIP3    H144579  -0.006   5.865   3.817 -0.9248 -0.7812  0.2744
 7696TIP3    H244580  -0.031   6.013   3.801  0.2181 -0.5787  0.2409
 7697TIP3   OH244581   2.606   2.947  13.295  0.2798 -0.2954 -0.1475
 7697TIP3    H144582   2.572   2.964  13.207  0.5971 -2.9069 -0.8677
 7697TIP3    H244583   2.689   2.996  13.299 -0.5116  1.1364 -0.6689
 7698TIP3   OH244584   1.250   5.448   4.234  0.1638  0.4984  0.7486
 7698TIP3    H144585   1.251   5.543   4.220 -0.9768  0.3727 -0.3914
 7698TIP3    H244586   1.183   5.435   4.301 -1.3308  0.3476 -0.7225
 7699TIP3   OH244587   3.143   4.859  13.911 -0.1821 -0.2110 -0.0953
 7699TIP3    H144588   3.085   4.932  13.932  0.8035  0.8777 -1.0304
 7699TIP3    H244589   3.216   4.868  13.972 -0.7306 -1.2958  0.7574
 7700TIP3   OH244590   3.366   5.450   4.266  0.5074 -0.0480  0.1084
 7700TIP3    H144591   3.459   5.470   4.275  0.2093  0.8166  1.6402
 7700TIP3    H244592   3.351   5.379   4.329 -0.0176  0.3830  0.4765
 7701TIP3   OH244593   5.458   0.904   3.689  0.4375  0.1052 -0.6916
 7701TIP3    H144594   5.391   0.962   3.653 -1.3552 -1.6306 -0.2724
 7701TIP3    H244595   5.451   0.916   3.783  1.7109  0.9258 -0.6732
 7702TIP3   OH244596   1.501   1.381   5.092 -0.2629  0.0830  0.2314
 7702TIP3    H144597   1.523   1.342   5.177 -0.3099  0.0427  0.2253
 7702TIP3    H244598   1.543   1.323   5.028 -0.2684  0.0863  0.2252
 7703TIP3   OH244599   5.398   2.421  13.043  0.3313 -0.7651  0.1280
 7703TIP3    H144600   5.316   2.389  13.007  0.6067 -0.5067 -0.7587
 7703TIP3    H244601   5.419   2.499  12.990  1.9064 -1.6853 -0.6746
 7704TIP3   OH244602   5.360   2.639   4.945  0.7299  0.9097 -0.0490
 7704TIP3    H144603   5.445   2.664   4.908  0.6572  0.9401 -0.1929
 7704TIP3    H244604   5.301   2.636   4.870  0.6049  0.8799  0.0507
 7705TIP3   OH244605   1.135   3.402   0.074 -0.4465  0.9287  0.0974
 7705TIP3    H144606   1.056   3.456   0.084 -1.8880 -1.2857  1.4962
 7705TIP3    H244607   1.153   3.369   0.162  0.1962 -1.0604 -0.7278
 7706TIP3   OH244608   4.976   6.329  11.263  0.4881  0.3386 -0.3764
 7706TIP3    H144609   5.023   6.287  11.335  1.5184 -0.2776 -1.3672
 7706TIP3    H244610   5.038   6.327  11.190 -1.4632 -1.6692 -2.1316
 7707TIP3   OH244611   4.492   3.640   4.703  0.2236 -0.1688  0.1963
 7707TIP3    H144612   4.416   3.696   4.719 -0.8296 -1.1958 -0.9520
 7707TIP3    H244613   4.486   3.572   4.771  0.4851  0.0941  0.4872
 7708TIP3   OH244614   6.460   6.016  14.898 -0.0242  0.4798 -0.0276
 7708TIP3    H144615   6.376   6.026  14.943  0.1650  1.4651  0.1131
 7708TIP3    H244616   6.520   5.989  14.967 -0.7728 -3.2714 -0.5945
 7709TIP3   OH244617   5.479   5.887  12.035  0.3558 -0.4904  0.0486
 7709TIP3    H144618   5.497   5.794  12.021  0.2392 -0.5471  0.2750
 7709TIP3    H244619   5.551   5.932  11.989 -0.2096 -0.6611 -1.0354
 7710TIP3   OH244620   5.755   0.495  14.436  0.5647  0.3035 -0.1802
 7710TIP3    H144621   5.748   0.570  14.377  0.9622 -0.3095 -1.0362
 7710TIP3    H244622   5.786   0.532  14.519  1.5302  0.9917 -0.8265
 7711TIP3   OH244623   4.600   4.306  13.161  0.4548 -0.0686 -0.3828
 7711TIP3    H144624   4.510   4.329  13.139  0.1021 -0.2561  0.8182
 7711TIP3    H244625   4.620   4.230  13.106  0.4576  0.9313 -1.8358
 7712TIP3   OH244626   2.454   1.260  13.446  0.1174 -0.1900 -0.3406
 7712TIP3    H144627   2.368   1.297  13.427 -0.2624 -0.0785  1.3910
 7712TIP3    H244628   2.514   1.335  13.445 -0.3721  0.2769  1.5413
 7713TIP3   OH244629   2.620   5.610  16.673  0.5102 -0.3895 -0.5004
 7713TIP3    H144630   2.652   5.693  16.637  0.1072 -0.3976 -0.8910
 7713TIP3    H244631   2.525   5.616  16.664  0.4790 -0.8842 -0.5035
 7714TIP3   OH244632   6.789   1.691   4.205  0.0052  0.0757 -0.3091
 7714TIP3    H144633   6.806   1.673   4.297 -0.6604 -0.0302 -0.2028
 7714TIP3    H244634   6.873   1.676   4.161  0.4121  0.4651  0.3259
 7715TIP3   OH244635   1.506   0.488  12.443 -0.5003  0.3865 -0.2002
 7715TIP3    H144636   1.569   0.419  12.464 -0.7487  0.5309  1.1382
 7715TIP3    H244637   1.445   0.487  12.517 -0.9353  1.5418 -0.5292
 7716TIP3   OH244638   2.683   6.018  12.855  0.3430 -0.0306  0.2555
 7716TIP3    H144639   2.626   6.094  12.847  0.6663  0.3798  1.6006
 7716TIP3    H244640   2.767   6.055  12.884  0.6650 -0.8447  0.3670
 7717TIP3   OH244641   4.508   2.633  16.190 -0.3653 -0.0266  0.0116
 7717TIP3    H144642   4.587   2.685  16.207  0.7751 -0.9310 -2.1272
 7717TIP3    H244643   4.524   2.549  16.234 -0.0527 -0.2621 -0.5441
 7718TIP3   OH244644   4.700   3.375   0.655 -0.2891 -0.1989  0.8658
 7718TIP3    H144645   4.629   3.421   0.610 -0.4414 -0.9025  0.3574
 7718TIP3    H244646   4.780   3.414   0.621  0.0740 -4.7101 -5.1743
 7719TIP3   OH244647   4.300   5.041  14.264  0.1686 -0.2919 -0.1919
 7719TIP3    H144648   4.257   5.037  14.349 -1.6600  1.1990 -0.9454
 7719TIP3    H244649   4.379   5.092  14.279 -1.2122  1.8414  0.3025
 7720TIP3   OH244650   1.218   4.916   3.668  0.3053  0.2422 -0.2536
 7720TIP3    H144651   1.208   5.003   3.705  0.0549  0.2650 -0.3717
 7720TIP3    H244652   1.312   4.906   3.655  0.2459  0.9265 -1.2765
 7721TIP3   OH244653   6.444   2.733  15.141  0.0970  0.2777  0.2934
 7721TIP3    H144654   6.507   2.682  15.193  1.6502 -0.3939 -2.0594
 7721TIP3    H244655   6.363   2.682  15.146  0.5400 -0.3899  1.0689
 7722TIP3   OH244656   4.208   0.843  12.379 -0.0960 -0.6306 -0.2452
 7722TIP3    H144657   4.272   0.907  12.411  0.1114 -0.7900 -0.3423
 7722TIP3    H244658   4.145   0.834  12.450  0.1961 -0.7571 -0.0038
 7723TIP3   OH244659   2.962   3.176  15.040  0.7361 -0.3658 -0.2929
 7723TIP3    H144660   2.897   3.111  15.014  0.0288 -0.2137  1.0274
 7723TIP3    H244661   3.043   3.146  14.999  0.2718 -1.6946 -0.2834
 7724TIP3   OH244662   1.891   4.527  12.606  0.7444  0.0159  0.0081
 7724TIP3    H144663   1.950   4.536  12.531 -2.6610  1.7133 -2.7621
 7724TIP3    H244664   1.890   4.613  12.647 -1.2102  0.6334 -1.2322
 7725TIP3   OH244665   6.727   0.389   0.659 -0.0567 -0.0769  0.1290
 7725TIP3    H144666   6.698   0.412   0.747 -1.1472  0.2790 -0.3112
 7725TIP3    H244667   6.821   0.405   0.660  0.0863 -0.8455  1.4651
 7726TIP3   OH244668   5.336   2.372   2.677 -0.0771 -0.0725 -0.8345
 7726TIP3    H144669   5.307   2.334   2.760  1.0313  2.0563  0.6336
 7726TIP3    H244670   5.352   2.297   2.620  0.2663 -1.6854  1.2744
 7727TIP3   OH244671   1.846   2.695   0.447 -0.2188  0.4688 -0.0803
 7727TIP3    H144672   1.799   2.677   0.528 -0.2569  1.1391  0.0464
 7727TIP3    H244673   1.935   2.716   0.476 -0.3299  1.0859 -0.1836
 7728TIP3   OH244674   5.742   0.181  13.928 -0.3251 -0.1174 -0.0931
 7728TIP3    H144675   5.732   0.089  13.902 -1.1056 -0.0575 -0.0494
 7728TIP3    H244676   5.833   0.201  13.910 -0.0800 -0.9725  0.1250
 7729TIP3   OH244677   0.881   0.145   5.720 -0.1220 -0.5601  0.3709
 7729TIP3    H144678   0.904   0.093   5.643  2.5743  0.3223  0.5123
 7729TIP3    H244679   0.879   0.235   5.689  1.6849 -0.1154  1.4059
 7730TIP3   OH244680   1.719   3.924  13.097  0.0877  0.4071 -0.3898
 7730TIP3    H144681   1.715   3.982  13.021 -0.3345  0.6177 -0.2111
 7730TIP3    H244682   1.704   3.982  13.172 -0.2720  0.0842 -0.2049
 7731TIP3   OH244683   5.853   1.300   3.527  0.3448 -0.3566 -1.1387
 7731TIP3    H144684   5.771   1.348   3.541  1.2389  0.8611  0.2736
 7731TIP3    H244685   5.840   1.218   3.574  0.3626  0.3797  0.2334
 7732TIP3   OH244686   2.540   3.589  13.378 -0.8791 -0.3440 -0.3916
 7732TIP3    H144687   2.465   3.613  13.324 -0.3509 -0.4738 -1.2058
 7732TIP3    H244688   2.553   3.495  13.362  0.4387 -0.0001 -1.5447
 7733TIP3   OH244689   6.329   4.051  10.599 -0.2768 -0.8573 -0.6602
 7733TIP3    H144690   6.314   3.975  10.544 -0.5336 -1.9449  0.8528
 7733TIP3    H244691   6.421   4.072  10.587 -0.3310 -1.0608 -1.4966
 7734TIP3   OH244692   2.704   5.373  16.147  0.7173  0.0456  0.3649
 7734TIP3    H144693   2.644   5.391  16.220  1.0050 -0.5154  0.7536
 7734TIP3    H244694   2.786   5.416  16.171  0.6402  0.3370  0.1040
 7735TIP3   OH244695   1.964   2.546  11.711  0.1742  0.0788  0.2723
 7735TIP3    H144696   1.870   2.560  11.716  0.3693  2.0032 -0.6471
 7735TIP3    H244697   1.981   2.476  11.775 -1.9971 -1.2183 -0.4451
 7736TIP3   OH244698   0.632   2.440   1.476 -0.4705  0.4256 -0.2271
 7736TIP3    H144699   0.574   2.503   1.518 -0.8466 -0.3013  0.3650
 7736TIP3    H244700   0.584   2.357   1.479 -0.1519  0.1796 -1.3448
 7737TIP3   OH244701   6.239   2.142   1.027 -0.3481  0.2139 -0.8042
 7737TIP3    H144702   6.224   2.050   1.004  0.2028  0.3174 -1.6141
 7737TIP3    H244703   6.157   2.186   1.004 -0.7661 -0.1362 -0.0159
 7738TIP3   OH244704   2.171   3.012   2.453 -0.4889  0.6195 -0.1563
 7738TIP3    H144705   2.082   2.989   2.424  0.0524 -0.0077 -1.3997
 7738TIP3    H244706   2.158   3.060   2.535 -1.8071 -2.1124  1.3530
 7739TIP3   OH244707   5.563   6.560   4.415  0.0374  0.0466 -0.4725
 7739TIP3    H144708   5.647   6.572   4.459  0.4174 -2.0094 -0.5560
 7739TIP3    H244709   5.523   6.485   4.458 -1.4527  0.5403 -0.9205
 7740TIP3   OH244710   1.854   2.729   6.578  0.3354 -0.1796 -0.1459
 7740TIP3    H144711   1.918   2.663   6.603  0.6130 -0.9240 -2.5400
 7740TIP3    H244712   1.903   2.811   6.577  0.9884 -0.5639 -0.8383
 7741TIP3   OH244713   3.622   0.037  12.679  0.2182  0.0393  0.2100
 7741TIP3    H144714   3.567   0.035  12.757  1.0334  0.5559  0.8248
 7741TIP3    H244715   3.580   0.101  12.622 -0.5083 -0.5058  0.1205
 7742TIP3   OH244716   1.804   0.236   5.320  0.6064 -0.0281  0.1539
 7742TIP3    H144717   1.865   0.162   5.334  1.7302  1.1403  1.8084
 7742TIP3    H244718   1.721   0.194   5.298  1.8455 -1.7134 -1.6597
 7743TIP3   OH244719   1.826   1.437  12.859  0.3385  0.0839 -0.0468
 7743TIP3    H144720   1.894   1.409  12.798  0.3501 -0.9478  0.4184
 7743TIP3    H244721   1.744   1.422  12.813  0.4054  1.1686 -0.5433
 7744TIP3   OH244722   3.616   3.740  14.668 -0.3023 -0.2914 -0.0514
 7744TIP3    H144723   3.529   3.758  14.634  0.3245  0.0589 -1.5379
 7744TIP3    H244724   3.602   3.680  14.741 -1.6736 -1.3576 -1.1643
 7745TIP3   OH244725   4.802   2.127  13.754  0.0555 -0.7818  0.6800
 7745TIP3    H144726   4.713   2.115  13.786 -0.2753  0.5739  0.3521
 7745TIP3    H244727   4.809   2.068  13.679 -1.2418  0.4532 -0.4828
 7746TIP3   OH244728   1.447   3.991   1.325 -0.6656  0.2558  0.7917
 7746TIP3    H144729   1.512   3.920   1.319  0.7731  1.6036 -3.5250
 7746TIP3    H244730   1.373   3.960   1.272  0.1418  1.9009 -1.4924
 7747TIP3   OH244731   5.340   6.076   1.934  0.1351  0.1505 -0.8777
 7747TIP3    H144732   5.256   6.054   1.894 -0.3605  0.7273 -0.1789
 7747TIP3    H244733   5.375   6.147   1.880 -0.6509  1.1056 -0.1712
 7748TIP3   OH244734   1.445   2.530  11.622  0.9267  0.5249 -0.0150
 7748TIP3    H144735   1.428   2.596  11.554 -1.6431  0.3867  0.3968
 7748TIP3    H244736   1.378   2.546  11.688  2.5959 -0.1556  1.9255
 7749TIP3   OH244737   1.259   6.569  16.241 -0.5885 -0.7692  0.7591
 7749TIP3    H144738   1.221   6.589  16.327 -2.4508 -0.8065  0.0087
 7749TIP3    H244739   1.238   6.646  16.188  0.2360 -0.8931  0.2432
 7750TIP3   OH244740   6.607   2.165   3.710 -0.1399  0.2813  0.1548
 7750TIP3    H144741   6.657   2.112   3.647  0.9145  0.1402  1.0720
 7750TIP3    H244742   6.518   2.165   3.676  0.1934 -0.6563 -0.7877
 7751TIP3   OH244743   4.365   5.297  15.874  0.4798  0.6160 -0.5380
 7751TIP3    H144744   4.338   5.379  15.834 -0.4085  1.6152  1.8922
 7751TIP3    H244745   4.284   5.248  15.888  0.4073  1.3263  2.0305
 7752TIP3   OH244746   2.143   5.102   1.047  0.0554  0.0702  0.5025
 7752TIP3    H144747   2.062   5.078   1.003  0.3510  0.0634 -0.0579
 7752TIP3    H244748   2.173   5.180   0.999  0.0296  0.4784  1.1397
 7753TIP3   OH244749   0.037   6.362  13.792 -0.5732  0.3616 -0.5109
 7753TIP3    H144750   0.026   6.374  13.698  0.6164 -0.6278 -0.8019
 7753TIP3    H244751   0.128   6.383  13.810 -0.6972  0.2218  0.3627
 7754TIP3   OH244752   5.969   4.761  13.276  0.1716  0.2855 -0.4479
 7754TIP3    H144753   6.035   4.803  13.220  2.6575 -2.8050 -0.0863
 7754TIP3    H244754   6.007   4.763  13.364 -1.2485  0.3463  0.1902
 7755TIP3   OH244755   2.964   0.766   3.539  0.2684 -0.1643 -0.5234
 7755TIP3    H144756   2.983   0.781   3.446 -1.8103 -0.4105 -1.0510
 7755TIP3    H244757   2.902   0.836   3.561  0.5564 -0.2581  0.6230
 7756TIP3   OH244758   3.985   1.091  11.681 -0.0411 -0.3010  0.1362
 7756TIP3    H144759   4.059   1.041  11.647  0.5631 -0.1125  1.1528
 7756TIP3    H244760   3.916   1.078  11.616  0.3177 -1.8793  0.0226
 7757TIP3   OH244761   3.551   2.445  15.418 -0.4163 -0.2519 -0.3768
 7757TIP3    H144762   3.567   2.535  15.445  1.4098 -0.0880 -1.7874
 7757TIP3    H244763   3.457   2.432  15.432 -0.7319  1.8585 -0.1539
 7758TIP3   OH244764   5.214   6.687   2.298  0.4936  0.1614 -0.0692
 7758TIP3    H144765   5.170   6.717   2.218  0.6991 -1.5466 -0.8523
 7758TIP3    H244766   5.210   6.592   2.294  1.4270  0.0251  1.4567
 7759TIP3   OH244767   3.133   4.349   0.984  0.0301  0.2215  0.3929
 7759TIP3    H144768   3.220   4.335   1.022 -0.1786 -0.0272  0.7766
 7759TIP3    H244769   3.151   4.382   0.895  0.5148 -0.2164  0.3231
 7760TIP3   OH244770   1.094   4.154   6.738  0.0570  0.3450  0.1157
 7760TIP3    H144771   1.164   4.166   6.674  1.2852 -0.4063  1.2633
 7760TIP3    H244772   1.028   4.101   6.693  0.1571  1.1564 -1.0128
 7761TIP3   OH244773   4.545   5.517  14.564 -0.0537  0.4635 -0.5760
 7761TIP3    H144774   4.635   5.493  14.586 -0.6327 -0.1934  1.2250
 7761TIP3    H244775   4.547   5.613  14.558  0.4956  0.5707  0.8771
 7762TIP3   OH244776   5.192   4.641   1.969  0.3674 -0.4784  0.2883
 7762TIP3    H144777   5.098   4.626   1.963 -0.3542  2.6874  1.6420
 7762TIP3    H244778   5.230   4.553   1.979 -1.9532 -2.2292 -4.0090
 7763TIP3   OH244779   4.344   5.010  15.763 -0.4165 -0.5441  0.4490
 7763TIP3    H144780   4.377   5.081  15.819  0.7630 -0.8702  0.1916
 7763TIP3    H244781   4.399   4.934  15.786  0.0149 -0.7157 -1.0681
 7764TIP3   OH244782   6.309   5.456  13.859  0.0067 -0.2096 -0.3684
 7764TIP3    H144783   6.385   5.439  13.804 -0.3231 -1.0782 -0.5737
 7764TIP3    H244784   6.254   5.378  13.850 -0.9632  0.4428 -0.3127
 7765TIP3   OH244785   4.590   4.464  13.388 -0.1811 -0.1218  0.1973
 7765TIP3    H144786   4.628   4.551  13.403  2.2141 -1.0929  0.3494
 7765TIP3    H244787   4.642   4.428  13.316  1.1198 -2.5575  2.1616
 7766TIP3   OH244788   4.644   6.384   3.878 -0.2645  0.0743 -0.1264
 7766TIP3    H144789   4.739   6.371   3.880 -0.3857 -0.8288  1.2754
 7766TIP3    H244790   4.624   6.428   3.961 -1.3752 -2.3415  0.9671
 7767TIP3   OH244791   4.110   4.157   1.105 -0.2445 -0.1372  0.2297
 7767TIP3    H144792   4.173   4.183   1.173 -0.1206  1.2974 -0.3854
 7767TIP3    H244793   4.044   4.226   1.107 -0.6040 -0.4432 -0.6455
 7768TIP3   OH244794   1.793   3.089   6.182  0.6295  0.1582 -0.2110
 7768TIP3    H144795   1.782   3.009   6.232  0.1852  0.5363  0.3113
 7768TIP3    H244796   1.855   3.066   6.112  1.6393 -0.2404  0.7977
 7769TIP3   OH244797   2.541   1.973   1.298  0.6557 -0.6271 -0.1236
 7769TIP3    H144798   2.601   1.907   1.332 -0.0399 -0.7008  1.0103
 7769TIP3    H244799   2.456   1.951   1.338  0.4984  1.2040  0.6620
 7770TIP3   OH244800   3.530   6.035  13.648  0.2518 -0.7714  0.2311
 7770TIP3    H144801   3.537   6.041  13.553  2.7913  0.6320  0.4116
 7770TIP3    H244802   3.472   6.107  13.672  1.2830  0.2109 -0.1477
 7771TIP3   OH244803   5.740   3.472   0.246  0.0504  0.5068 -0.3712
 7771TIP3    H144804   5.790   3.550   0.267 -0.8064  0.8351  0.5660
 7771TIP3    H244805   5.776   3.404   0.304 -1.6575  1.1698  1.6119
 7772TIP3   OH244806   2.286   1.743   4.218  0.0403 -0.4875  0.0089
 7772TIP3    H144807   2.300   1.737   4.312  0.1614  0.7976  0.0868
 7772TIP3    H244808   2.352   1.685   4.180  2.2085  1.4709  0.6002
 7773TIP3   OH244809   3.244   3.945  12.289  0.1278  0.2906 -0.9182
 7773TIP3    H144810   3.303   4.017  12.270  0.5368  0.2979  0.2753
 7773TIP3    H244811   3.198   3.929  12.207  0.9337  1.0687 -1.5385
 7774TIP3   OH244812   4.715   3.653  10.483  0.2213 -0.0504  0.3246
 7774TIP3    H144813   4.733   3.726  10.423  1.8784  1.6281  2.6796
 7774TIP3    H244814   4.635   3.680  10.529  0.9081  0.4178  1.2909
 7775TIP3   OH244815   2.845   2.905   1.288  0.1708  0.2620  0.2202
 7775TIP3    H144816   2.828   2.874   1.199 -2.5659 -0.6153  0.9414
 7775TIP3    H244817   2.912   2.846   1.322  0.0814 -0.4074 -0.7464
 7776TIP3   OH244818   2.810   0.006   2.971  0.1407  0.1175  0.4950
 7776TIP3    H144819   2.823  -0.071   2.915 -0.2137  1.6977 -1.8924
 7776TIP3    H244820   2.741  -0.020   3.032 -0.9312 -1.0568 -1.1350
 7777TIP3   OH244821   5.581   3.373   1.013 -0.1109  0.4329  0.2354
 7777TIP3    H144822   5.676   3.364   1.002 -0.1604  1.1405 -0.9038
 7777TIP3    H244823   5.563   3.333   1.098  1.0170 -0.9945 -0.1565
 7778TIP3   OH244824   3.864   0.689   1.328  0.5751 -0.2028  0.0944
 7778TIP3    H144825   3.816   0.606   1.326  0.7252 -0.2926  0.2255
 7778TIP3    H244826   3.813   0.747   1.271  0.3643 -0.3273  0.1539
 7779TIP3   OH244827   4.457   5.805  15.036 -0.3048 -0.1631 -0.0235
 7779TIP3    H144828   4.391   5.736  15.037  1.1400 -1.6187  0.1065
 7779TIP3    H244829   4.410   5.885  15.061 -1.9810 -1.1375  0.0568
 7780TIP3   OH244830   1.149   1.485  12.054  0.2170 -0.4254 -0.3541
 7780TIP3    H144831   1.149   1.407  12.109 -1.6341 -2.0817 -2.5417
 7780TIP3    H244832   1.105   1.551  12.107  1.1936 -1.0180  1.2696
 7781TIP3   OH244833   4.412   3.658   3.619 -0.2751 -0.4149  0.0325
 7781TIP3    H144834   4.475   3.628   3.684  2.2435 -0.3581 -2.1840
 7781TIP3    H244835   4.454   3.735   3.580 -1.5406 -0.5951 -1.8022
 7782TIP3   OH244836   5.191   1.772   2.001 -0.2595  0.4303  0.1067
 7782TIP3    H144837   5.149   1.761   1.915  1.5265  0.3648 -0.7960
 7782TIP3    H244838   5.228   1.860   1.998  1.4836 -0.2646  0.0140
 7783TIP3   OH244839   4.921   5.610   2.840 -0.0699 -0.5616 -0.3629
 7783TIP3    H144840   4.872   5.539   2.881  1.7554 -3.6527 -3.0915
 7783TIP3    H244841   4.859   5.652   2.781 -0.6732 -1.1646 -0.1658
 7784TIP3   OH244842   3.100   3.028  15.295 -1.0650 -0.1367 -0.2048
 7784TIP3    H144843   3.027   3.071  15.252  0.3292  1.1591 -1.3920
 7784TIP3    H244844   3.173   3.089  15.287  0.3975 -1.7400  0.1328
 7785TIP3   OH244845   6.266   6.377   3.354  0.3291  0.2039 -0.6232
 7785TIP3    H144846   6.228   6.314   3.292  1.3348 -1.2866  0.2209
 7785TIP3    H244847   6.284   6.455   3.300 -1.8062  0.1780 -1.4945
 7786TIP3   OH244848   6.451   6.473  12.734  0.0235  0.3257  1.0834
 7786TIP3    H144849   6.358   6.486  12.717  0.1257  0.0776  0.2432
 7786TIP3    H244850   6.491   6.558  12.718 -0.0709  0.4647  1.5735
 7787TIP3   OH244851   4.979   4.801   2.570  0.2551  0.5801  0.0075
 7787TIP3    H144852   4.923   4.866   2.527  1.3112  1.0359 -0.7058
 7787TIP3    H244853   5.065   4.843   2.575  1.0991 -0.9426 -0.9223
 7788TIP3   OH244854   5.798   0.238  16.265  0.1562 -0.1220 -0.0982
 7788TIP3    H144855   5.779   0.229  16.172  1.0834 -1.0777 -0.2097
 7788TIP3    H244856   5.862   0.170  16.283 -0.2994 -0.2033  1.3304
 7789TIP3   OH244857   0.097   2.958   2.371 -0.2762 -0.1283 -0.4129
 7789TIP3    H144858   0.179   2.996   2.403 -0.6768 -0.2562  0.8327
 7789TIP3    H244859   0.111   2.947   2.277  0.6006  1.1856 -0.4675
 7790TIP3   OH244860   0.739   4.751   2.994  0.7465 -0.0092 -0.5216
 7790TIP3    H144861   0.808   4.725   3.055 -0.0572 -0.2446  0.3158
 7790TIP3    H244862   0.690   4.671   2.976 -1.0065  0.6064  1.1298
 7791TIP3   OH244863   2.292   2.834  11.062  0.4467  0.1897  0.1588
 7791TIP3    H144864   2.278   2.800  11.151  0.6386 -2.0801 -0.6122
 7791TIP3    H244865   2.306   2.755  11.009  0.7252  1.5238 -1.8209
 7792TIP3   OH244866   2.585   5.891   3.993 -0.2387 -0.3052  0.4180
 7792TIP3    H144867   2.610   5.801   4.018  0.5722 -0.3126 -0.3756
 7792TIP3    H244868   2.490   5.887   3.980 -0.4163 -0.7249  1.6897
 7793TIP3   OH244869   5.506   4.941  13.865  0.4616  0.6837  0.2210
 7793TIP3    H144870   5.599   4.963  13.858  0.3495  1.5891  1.2869
 7793TIP3    H244871   5.464   5.021  13.897 -0.6829  0.2737 -0.1929
 7794TIP3   OH244872   3.029   2.203   5.336  0.2372 -0.5649  0.1356
 7794TIP3    H144873   3.023   2.214   5.431 -1.0014  0.3896 -0.0197
 7794TIP3    H244874   3.058   2.113   5.324  1.2890 -0.4321  1.4259
 7795TIP3   OH244875   1.939   4.742  14.777 -0.1119 -0.2613  0.3885
 7795TIP3    H144876   1.906   4.734  14.688  3.2953 -1.9202 -0.9011
 7795TIP3    H244877   1.886   4.680  14.827 -1.7832  0.3682 -0.5398
 7796TIP3   OH244878   2.647   4.014  13.239  0.4666 -0.1571 -0.0198
 7796TIP3    H144879   2.630   3.976  13.152  1.6520 -0.7189 -0.0215
 7796TIP3    H244880   2.668   4.106  13.221  0.0565 -0.1070 -0.2587
 7797TIP3   OH244881   0.274   3.445   3.851 -1.3593 -0.1840  0.5893
 7797TIP3    H144882   0.221   3.417   3.927  0.7075 -0.1208  2.1351
 7797TIP3    H244883   0.312   3.528   3.879 -0.2403 -0.3558 -0.3842
 7798TIP3   OH244884   2.375   6.446  16.264  0.6415 -0.0947  0.2991
 7798TIP3    H144885   2.312   6.476  16.199  0.5913 -1.9923 -0.5830
 7798TIP3    H244886   2.402   6.526  16.310  0.3991  1.2570 -1.7870
 7799TIP3   OH244887   3.087   5.758  12.595  0.1880  0.0012  0.3430
 7799TIP3    H144888   3.135   5.696  12.650  0.4084  1.0347  1.3328
 7799TIP3    H244889   3.078   5.837  12.648 -1.9419  0.1260 -0.0911
 7800TIP3   OH244890   2.971   1.794  12.801  0.3261  0.4339 -0.0210
 7800TIP3    H144891   2.992   1.722  12.860  3.5247  1.3283  0.0866
 7800TIP3    H244892   2.902   1.843  12.847  1.9274  0.4627  2.5215
 7801TIP3   OH244893   0.669   6.484   3.025 -0.0199  0.0855  0.5996
 7801TIP3    H144894   0.720   6.505   2.946  0.0702 -0.5189  0.4882
 7801TIP3    H244895   0.678   6.561   3.081 -0.2096  0.5834 -0.0443
 7802TIP3   OH244896   1.059   5.141  16.629 -0.4445  0.1670  0.3732
 7802TIP3    H144897   1.030   5.210  16.569 -0.9965  0.8391  1.3782
 7802TIP3    H244898   1.001   5.150  16.705 -1.9203 -2.7211 -0.2570
 7803TIP3   OH244899   6.159   1.141   5.782 -0.2916  0.0840 -0.2684
 7803TIP3    H144900   6.160   1.065   5.724 -0.1386 -0.0679 -0.0710
 7803TIP3    H244901   6.082   1.129   5.837 -0.0968 -0.0960 -0.0261
 7804TIP3   OH244902   0.515   6.094   0.117  0.1318 -0.0209 -0.0803
 7804TIP3    H144903   0.517   6.085   0.212 -1.9583  0.2708  0.0344
 7804TIP3    H244904   0.478   6.181   0.102 -0.1569 -0.3163 -1.1587
 7805TIP3   OH244905   6.583   2.287  13.814  0.0737  0.4851 -0.4780
 7805TIP3    H144906   6.545   2.374  13.824  1.7305  1.0430  1.7538
 7805TIP3    H244907   6.667   2.302  13.771  0.0217 -0.1134 -0.8016
 7806TIP3   OH244908   1.596   0.502  16.593  0.3463  0.3486 -0.1670
 7806TIP3    H144909   1.649   0.492  16.514  1.4304 -1.0856  0.6880
 7806TIP3    H244910   1.578   0.413  16.622  1.0062  0.7907  1.8359
 7807TIP3   OH244911   3.145   4.942  16.461  0.4165 -0.2811 -0.1664
 7807TIP3    H144912   3.192   4.858  16.462  1.1347  0.0922 -1.0098
 7807TIP3    H244913   3.124   4.958  16.553 -0.7754 -1.9456 -0.1067
 7808TIP3   OH244914   3.651   6.140  16.807  0.5196  0.1209  0.0645
 7808TIP3    H144915   3.675   6.093  16.887 -2.0008 -1.3561  0.0549
 7808TIP3    H244916   3.643   6.073  16.741  1.8497  1.2531 -1.3324
 7809TIP3   OH244917   0.365   4.042   5.150  0.2484  0.2937  0.0847
 7809TIP3    H144918   0.448   3.995   5.148 -0.0307 -0.3095  1.6549
 7809TIP3    H244919   0.381   4.116   5.208 -0.4907 -0.2265  0.9802
 7810TIP3   OH244920   2.872   3.598  15.813  0.0178 -0.1708  0.2169
 7810TIP3    H144921   2.955   3.572  15.773  1.0206  2.4600  0.4053
 7810TIP3    H244922   2.866   3.544  15.892  1.2469 -0.7988 -0.0950
 7811TIP3   OH244923   6.705   3.389   2.164  0.0939 -0.0126 -0.4830
 7811TIP3    H144924   6.726   3.476   2.130  3.2509 -0.4447 -0.0086
 7811TIP3    H244925   6.730   3.329   2.094  1.2998 -0.6284  0.4212
 7812TIP3   OH244926   2.463   0.337   2.877 -0.1419  0.1765 -0.5456
 7812TIP3    H144927   2.411   0.282   2.935  0.1265 -0.8793 -1.2813
 7812TIP3    H244928   2.406   0.412   2.858 -0.8140 -0.2182 -0.1350
 7813TIP3   OH244929   1.047   3.441  13.817 -0.0700 -0.0737 -0.2332
 7813TIP3    H144930   1.118   3.386  13.851  0.9202  1.2214 -0.1345
 7813TIP3    H244931   0.970   3.415  13.868  0.5697 -0.7344  0.4287
 7814TIP3   OH244932   2.550   1.336  14.151 -0.1727  0.1608 -0.6166
 7814TIP3    H144933   2.502   1.407  14.192  0.1096 -0.1584  0.2859
 7814TIP3    H244934   2.488   1.263  14.147  0.1847 -0.2131  0.4379
 7815TIP3   OH244935   0.236   0.837  11.453  0.1509 -0.0111  0.6812
 7815TIP3    H144936   0.261   0.927  11.431  0.4219 -0.1088  0.5893
 7815TIP3    H244937   0.234   0.791  11.368  1.6018 -0.4916  0.8928
 7816TIP3   OH244938   3.218   6.395  15.543 -0.7178  0.6196  0.2305
 7816TIP3    H144939   3.213   6.488  15.566  0.3959  0.7892 -0.1517
 7816TIP3    H244940   3.187   6.391  15.452  0.3275  0.7918 -0.1384
 7817TIP3   OH244941   2.425   2.490  11.352 -0.1141  0.3376  0.3657
 7817TIP3    H144942   2.435   2.464  11.260 -1.8230 -0.1413  0.2884
 7817TIP3    H244943   2.406   2.408  11.398  1.7873  0.4036  1.3656
 7818TIP3   OH244944   3.009   5.190   4.432  0.4659 -0.0391 -0.1128
 7818TIP3    H144945   3.008   5.094   4.434  2.3591 -0.1094 -1.0952
 7818TIP3    H244946   2.944   5.216   4.498  0.4112 -1.9790  0.6482
 7819TIP3   OH244947   2.339   2.713   1.927 -0.2879  0.1335  0.4527
 7819TIP3    H144948   2.260   2.696   1.978 -0.1382  2.8443  1.7666
 7819TIP3    H244949   2.405   2.737   1.991  1.1287 -0.3560 -0.7592
 7820TIP3   OH244950   3.393   4.710  15.731 -0.1544 -0.0114 -0.0957
 7820TIP3    H144951   3.435   4.665  15.804  0.7385 -0.4219 -0.8340
 7820TIP3    H244952   3.450   4.692  15.656 -0.1347  1.7623 -0.5606
 7821TIP3   OH244953   1.253   2.123   3.575  0.2777 -0.1667  0.2255
 7821TIP3    H144954   1.302   2.157   3.650  1.6137 -0.3549 -0.5320
 7821TIP3    H244955   1.162   2.118   3.606  0.7008  0.3230  1.6237
 7822TIP3   OH244956   6.713   3.113  13.522  0.6673 -0.1009  0.0079
 7822TIP3    H144957   6.674   3.197  13.546  1.9451  0.4199  0.3330
 7822TIP3    H244958   6.729   3.120  13.428 -1.3829 -0.9099 -0.4455
 7823TIP3   OH244959   1.155   6.203  12.772 -0.1667  0.7241  0.6516
 7823TIP3    H144960   1.067   6.186  12.807 -1.1052 -0.6741 -2.1089
 7823TIP3    H244961   1.144   6.281  12.717  0.1728  0.2241 -0.1344
 7824TIP3   OH244962   3.832   2.206   5.286  0.3529  0.4568 -0.2725
 7824TIP3    H144963   3.809   2.236   5.374 -0.2730  2.4695 -1.0656
 7824TIP3    H244964   3.927   2.215   5.282  0.3328  0.8461  0.0372
 7825TIP3   OH244965   2.721   4.105  12.515  0.3412  0.2549 -0.1373
 7825TIP3    H144966   2.676   4.030  12.476  0.9627  0.4680 -1.3252
 7825TIP3    H244967   2.663   4.134  12.585 -0.5327 -0.5257 -0.5097
 7826TIP3   OH244968   6.317   1.921   3.354 -0.0118 -0.1524 -0.3275
 7826TIP3    H144969   6.336   1.983   3.283  0.8908 -0.3517 -0.2783
 7826TIP3    H244970   6.248   1.864   3.319 -0.7398  0.7761 -0.4287
 7827TIP3   OH244971   3.275   5.475  15.897  0.0814 -0.2079 -0.0377
 7827TIP3    H144972   3.325   5.427  15.964 -0.2245  0.3965  0.6448
 7827TIP3    H244973   3.326   5.555  15.882 -0.1768 -0.0422 -0.0462
 7828TIP3   OH244974   1.152   0.334   1.670 -0.5379  0.6625  0.5911
 7828TIP3    H144975   1.166   0.391   1.745  2.5152 -2.0309  2.3554
 7828TIP3    H244976   1.099   0.262   1.704 -1.6618  0.8219 -0.7212
 7829TIP3   OH244977   2.785   4.852  11.643 -0.5222  0.2401 -0.3888
 7829TIP3    H144978   2.730   4.929  11.626  1.2075  1.3561 -1.1701
 7829TIP3    H244979   2.770   4.794  11.568  1.7504  2.0122 -2.3504
 7830TIP3   OH244980   4.919   2.946  15.029 -0.0187  0.5210  0.0333
 7830TIP3    H144981   4.895   2.984  14.945 -1.8252 -0.7838 -0.0894
 7830TIP3    H244982   4.866   2.993  15.093  1.6627  1.8108  0.5516
 7831TIP3   OH244983   4.580   0.602  15.697 -0.3626 -0.1108  0.3071
 7831TIP3    H144984   4.487   0.622  15.698 -0.2223  0.5825 -0.0442
 7831TIP3    H244985   4.609   0.614  15.787 -1.1491 -3.0376  1.0502
 7832TIP3   OH244986   6.199   3.465  13.300 -0.1320 -0.2897  0.3970
 7832TIP3    H144987   6.144   3.543  13.295 -0.2766 -0.4174 -0.0101
 7832TIP3    H244988   6.158   3.403  13.239  0.8076 -0.1785 -0.3617
 7833TIP3   OH244989   0.821   6.208   5.627 -0.2579 -0.0894 -0.2918
 7833TIP3    H144990   0.889   6.151   5.591 -0.2726 -0.3377  0.0677
 7833TIP3    H244991   0.862   6.294   5.635 -0.1158 -0.1402 -0.4692
 7834TIP3   OH244992   1.010   5.387  13.184  0.0361  0.2850  0.2658
 7834TIP3    H144993   0.946   5.428  13.125 -0.3318  0.1114  0.5389
 7834TIP3    H244994   1.009   5.443  13.262 -0.6834 -0.3870  0.7611
 7835TIP3   OH244995   0.900   1.828   5.841  0.5144  0.0071 -0.3595
 7835TIP3    H144996   0.900   1.824   5.937  1.4406  0.6823 -0.3103
 7835TIP3    H244997   0.841   1.900   5.819 -1.0302 -1.2305 -0.3883
 7836TIP3   OH244998   6.816   4.059   2.987  0.2673  0.0290 -0.0187
 7836TIP3    H144999   6.837   4.152   2.982  0.4116 -0.0563 -1.3211
 7836TIP3    H245000   6.901   4.015   2.976  0.7630 -0.2989  3.7014
 7837TIP3   OH245001   0.439   0.989   5.148 -0.2183  0.2490 -0.3058
 7837TIP3    H145002   0.401   1.034   5.223  0.1918  1.1042 -0.6006
 7837TIP3    H245003   0.520   0.950   5.182 -0.6516 -0.4244 -0.0129
 7838TIP3   OH245004   4.661   2.762  13.708 -0.1838 -0.5521 -0.5367
 7838TIP3    H145005   4.597   2.832  13.719 -0.9571 -1.0355 -1.7333
 7838TIP3    H245006   4.744   2.808  13.694 -0.5829  0.1240 -0.7349
 7839TIP3   OH245007   2.167   2.979  14.329  0.5202  0.1460 -0.9545
 7839TIP3    H145008   2.216   2.926  14.393 -0.0066 -1.1885 -1.6198
 7839TIP3    H245009   2.130   2.915  14.269 -1.1644  1.2062 -1.0993
 7840TIP3   OH245010   0.617   2.536  15.291  0.1598 -0.1264 -0.6816
 7840TIP3    H145011   0.574   2.455  15.316 -1.3364  0.9422  0.3809
 7840TIP3    H245012   0.590   2.550  15.200 -0.0593 -0.5039 -0.6749
 7841TIP3   OH245013   4.610   0.563  15.249 -0.5760  0.5327 -0.0415
 7841TIP3    H145014   4.676   0.504  15.211  0.9046  0.4417  2.4568
 7841TIP3    H245015   4.653   0.649  15.249 -1.2600  0.8769 -0.2440
 7842TIP3   OH245016   2.367   5.055   3.521 -0.4670 -0.1604 -0.3481
 7842TIP3    H145017   2.370   4.969   3.480  2.3251 -2.7319  4.3421
 7842TIP3    H245018   2.281   5.058   3.563 -0.6804 -0.5620 -0.7491
 7843TIP3   OH245019   0.305   0.810   3.090  0.3573 -0.2738  0.2879
 7843TIP3    H145020   0.382   0.755   3.082  1.5272  1.3430 -0.1789
 7843TIP3    H245021   0.339   0.900   3.091 -1.4170  0.4551  1.4471
 7844TIP3   OH245022   3.111   6.281   0.357 -0.1999 -0.1580  0.1113
 7844TIP3    H145023   3.117   6.370   0.323 -1.1901 -1.0241 -2.6216
 7844TIP3    H245024   3.017   6.265   0.368 -0.0126 -0.7700  0.9628
 7845TIP3   OH245025   2.068   1.206   2.462  0.2842  0.1373  0.5208
 7845TIP3    H145026   2.147   1.259   2.451  0.9884 -0.7006  1.2924
 7845TIP3    H245027   1.998   1.258   2.423  1.3639  0.5106 -1.0189
 7846TIP3   OH245028   6.576   1.441  15.861 -0.1527  0.1224  0.3355
 7846TIP3    H145029   6.600   1.478  15.947 -0.0211  0.3332  0.2085
 7846TIP3    H245030   6.646   1.378  15.843  0.5372  1.0259 -0.2168
 7847TIP3   OH245031   3.557   4.986   3.182 -0.1847  0.0612  0.0401
 7847TIP3    H145032   3.461   4.992   3.181 -0.2351  0.5508  2.6042
 7847TIP3    H245033   3.575   4.893   3.179 -0.7200 -0.0305 -0.6196
 7848TIP3   OH245034   6.072   3.073  14.011  0.4087  0.2262  0.3385
 7848TIP3    H145035   5.994   3.069  13.955  2.6368  0.0944 -3.0600
 7848TIP3    H245036   6.042   3.041  14.096 -2.9589 -0.9713 -1.1192
 7849TIP3   OH245037   3.402   5.559   2.551 -0.4597  0.2654  0.6604
 7849TIP3    H145038   3.399   5.483   2.493 -1.5784  1.1379 -0.4582
 7849TIP3    H245039   3.343   5.536   2.623  1.2836 -1.0106  1.7882
 7850TIP3   OH245040   3.181   1.318  12.994  0.1795  0.5323  0.0388
 7850TIP3    H145041   3.250   1.331  12.929 -1.8449  1.5222 -2.0817
 7850TIP3    H245042   3.122   1.255  12.953 -1.8265  2.1567  0.2592
 7851TIP3   OH245043   1.477   6.006  15.133 -0.3227 -0.0226 -0.0184
 7851TIP3    H145044   1.546   6.067  15.109 -0.4612 -1.0622 -3.5832
 7851TIP3    H245045   1.521   5.922  15.143 -0.9203 -0.5980 -1.8317
 7852TIP3   OH245046   3.688   3.848   4.314  0.5723  0.1001 -0.1791
 7852TIP3    H145047   3.627   3.775   4.297  0.3057  0.5375 -1.1889
 7852TIP3    H245048   3.756   3.810   4.368 -0.2383 -0.5832  0.3908
 7853TIP3   OH245049   4.795   3.018  13.026 -0.4921 -0.3213 -0.3283
 7853TIP3    H145050   4.857   3.038  13.096 -1.2292  1.0567 -0.0204
 7853TIP3    H245051   4.796   2.923  13.018  1.0107 -0.3715  0.2501
 7854TIP3   OH245052   2.739   0.243  16.119  0.0763 -0.2596 -0.6274
 7854TIP3    H145053   2.701   0.248  16.206  1.6848  1.1204  0.0500
 7854TIP3    H245054   2.829   0.274  16.130  0.4490 -0.4365 -2.7039
 7855TIP3   OH245055   2.579   6.626  14.280 -0.3684  0.4341 -0.2201
 7855TIP3    H145056   2.654   6.646  14.335 -0.2468  0.8025 -0.5159
 7855TIP3    H245057   2.560   6.534  14.298 -0.7710  0.7251  0.9535
 7856TIP3   OH245058   0.844   6.735   1.490 -0.2549  0.2454  0.1758
 7856TIP3    H145059   0.909   6.744   1.560  0.8340  0.4355 -0.8252
 7856TIP3    H245060   0.896   6.720   1.411 -1.4369  0.4287 -0.6634
 7857TIP3   OH245061   4.872   4.766   5.129 -0.0252  0.3476  0.3930
 7857TIP3    H145062   4.829   4.803   5.051  1.3889  0.6185 -0.2842
 7857TIP3    H245063   4.801   4.755   5.192 -0.9989  1.3057 -0.4949
 7858TIP3   OH245064   2.324   0.761  14.185  0.0340  0.0491 -0.1877
 7858TIP3    H145065   2.325   0.775  14.280 -2.6615  0.6247 -0.1804
 7858TIP3    H245066   2.237   0.725  14.167  0.5789 -0.2827 -2.4244
 7859TIP3   OH245067   0.439   1.015  13.725  1.3435  0.1615  0.2110
 7859TIP3    H145068   0.496   1.051  13.657 -0.0354  0.4558 -0.8367
 7859TIP3    H245069   0.360   1.070  13.721  0.8664 -0.4158  1.4065
 7860TIP3   OH245070   3.569   6.728   5.101  0.7047 -0.0308  0.4788
 7860TIP3    H145071   3.563   6.822   5.115  1.0360 -0.0863  1.0298
 7860TIP3    H245072   3.662   6.708   5.113  0.9678 -0.1511 -1.4681
 7861TIP3   OH245073   2.074   2.245   1.515 -0.3905 -0.0682  0.1868
 7861TIP3    H145074   2.121   2.181   1.568 -0.3507 -0.6060 -0.4895
 7861TIP3    H245075   2.096   2.222   1.425 -1.7049 -0.1359 -0.1309
 7862TIP3   OH245076   3.500   0.137  13.674 -0.0042 -0.1957 -0.1574
 7862TIP3    H145077   3.592   0.141  13.649 -0.1386 -1.4870 -0.9066
 7862TIP3    H245078   3.452   0.126  13.592 -1.0039  2.0627  0.0238
 7863TIP3   OH245079   2.303   5.394  15.365  0.4906  0.0168 -0.3925
 7863TIP3    H145080   2.277   5.418  15.454  0.3060 -0.1729 -0.3939
 7863TIP3    H245081   2.260   5.310  15.350 -1.0418  0.9390 -1.3755
 7864TIP3   OH245082   3.346   0.117  14.472 -0.4708  0.0946  0.3184
 7864TIP3    H145083   3.283   0.109  14.545 -1.8571  1.7270 -0.6154
 7864TIP3    H245084   3.294   0.097  14.394  0.0942  1.6681 -0.4930
 7865TIP3   OH245085   4.315   0.667   0.440 -0.2713  0.7827  0.3634
 7865TIP3    H145086   4.380   0.606   0.404 -0.8780 -0.0674  0.6693
 7865TIP3    H245087   4.231   0.627   0.418 -0.6799  1.4583  0.6789
 7866TIP3   OH245088   6.062   6.202   2.559 -0.0842  0.0398  0.0289
 7866TIP3    H145089   6.156   6.186   2.567 -0.4079 -1.6420  0.8908
 7866TIP3    H245090   6.049   6.218   2.465  0.6891 -2.5390 -0.5988
 7867TIP3   OH245091   4.309   3.382  14.329  0.0364  0.9746  0.3034
 7867TIP3    H145092   4.332   3.392  14.236 -0.4368 -1.4170 -0.1168
 7867TIP3    H245093   4.387   3.345  14.369 -0.7220 -0.8482  0.2030
 7868TIP3   OH245094   2.504   2.935  11.997 -0.0250  0.5996 -0.2530
 7868TIP3    H145095   2.588   2.892  12.006 -0.6131 -0.2919  1.2199
 7868TIP3    H245096   2.442   2.864  11.980 -0.9105  0.8681  1.5780
 7869TIP3   OH245097   1.758   3.791  12.225  0.5258 -0.1492  0.4219
 7869TIP3    H145098   1.848   3.796  12.192 -0.1168  0.0340 -1.3653
 7869TIP3    H245099   1.758   3.853  12.299  1.4309  1.2204 -0.6503
 7870TIP3   OH245100   4.351   0.846  15.732  0.1711  0.3339 -0.2699
 7870TIP3    H145101   4.383   0.899  15.659  0.5901 -0.7019 -0.8470
 7870TIP3    H245102   4.425   0.840  15.792  0.0886  0.4910 -0.1515
 7871TIP3   OH245103   5.253   5.917  14.045  0.9130  0.1364 -0.4568
 7871TIP3    H145104   5.313   5.845  14.063  0.0384 -0.5706 -0.2646
 7871TIP3    H245105   5.309   5.988  14.015  1.6227 -1.2841 -2.7401
 7872TIP3   OH245106   5.198   0.447   1.088  0.0522  0.1468  0.9270
 7872TIP3    H145107   5.189   0.540   1.068  0.5115 -0.4546 -2.7705
 7872TIP3    H245108   5.292   0.431   1.086 -0.0645 -0.5514  0.7660
 7873TIP3   OH245109   5.464   3.502  13.808 -0.5272  0.8617  0.0568
 7873TIP3    H145110   5.415   3.565  13.860 -2.2337 -0.8074  0.5514
 7873TIP3    H245111   5.417   3.419  13.818  1.9062 -0.6530 -0.1564
 7874TIP3   OH245112   1.668   5.459   3.748 -0.0585 -0.1317 -0.1046
 7874TIP3    H145113   1.736   5.448   3.682 -2.3591 -0.8647 -2.5299
 7874TIP3    H245114   1.616   5.378   3.742 -0.3915 -0.2323  2.6590
 7875TIP3   OH245115   2.315   0.874  16.884 -0.4053 -0.2071  0.6088
 7875TIP3    H145116   2.262   0.836  16.814 -0.4350  1.8460 -0.5911
 7875TIP3    H245117   2.388   0.915  16.838  0.7058 -0.5705  1.9975
 7876TIP3   OH245118   4.032   2.444   1.124  0.4303  0.7542  0.0021
 7876TIP3    H145119   4.069   2.518   1.076 -0.5360  0.8957 -0.5626
 7876TIP3    H245120   3.957   2.481   1.170  2.1432  0.9379  2.8379
 7877TIP3   OH245121   4.348   2.955  11.053 -0.1866  0.6544 -0.0821
 7877TIP3    H145122   4.424   3.001  11.089  0.5413 -0.5077 -0.0863
 7877TIP3    H245123   4.302   2.921  11.129  0.2538 -0.1033 -0.1458
 7878TIP3   OH245124   0.978   2.981   4.951 -0.3150  0.5553  0.1419
 7878TIP3    H145125   0.920   2.934   4.891  1.1496 -1.2139 -0.0097
 7878TIP3    H245126   1.041   3.026   4.893  0.5483 -0.4101  0.2960
 7879TIP3   OH245127   1.016   2.729   4.698 -0.2115  0.0092 -0.8546
 7879TIP3    H145128   1.027   2.693   4.610  3.6486  0.7198 -0.8228
 7879TIP3    H245129   1.069   2.673   4.754 -1.6477  0.2836  0.8548
 7880TIP3   OH245130   4.463   6.603  15.102 -0.5810  0.5763  0.1499
 7880TIP3    H145131   4.432   6.682  15.057 -1.2589 -0.3691 -1.1213
 7880TIP3    H245132   4.409   6.597  15.181 -1.5800  0.5759 -0.5185
 7881TIP3   OH245133   6.630   3.798  12.571  0.1181  0.1863 -0.1612
 7881TIP3    H145134   6.608   3.849  12.493  0.5486  0.0327 -0.3844
 7881TIP3    H245135   6.726   3.794  12.572  0.1415  0.6093  0.6510
 7882TIP3   OH245136   5.259   6.577  15.406 -0.4172 -0.1477 -0.9803
 7882TIP3    H145137   5.186   6.516  15.404 -1.5036  1.0514  0.3942
 7882TIP3    H245138   5.327   6.535  15.352 -1.0455 -2.6116  0.0383
 7883TIP3   OH245139   6.444   1.990  11.998  0.1343  0.6344 -0.0237
 7883TIP3    H145140   6.385   1.978  11.924  1.8471 -0.4258 -1.2849
 7883TIP3    H245141   6.485   2.075  11.982 -1.2579  1.5534  1.0574
 7884TIP3   OH245142   2.868   1.305  12.508 -0.1477  0.0842 -0.3282
 7884TIP3    H145143   2.840   1.373  12.447 -1.0134 -0.5833 -0.6816
 7884TIP3    H245144   2.792   1.248  12.518  0.3750 -0.5025  0.4302
 7885TIP3   OH245145   6.459   0.996  12.335 -0.6154  0.0217  0.0295
 7885TIP3    H145146   6.466   0.907  12.300  0.8496  0.2590 -0.3330
 7885TIP3    H245147   6.380   1.032  12.293 -1.0423 -0.9835 -0.0591
 7886TIP3   OH245148   3.571   4.391   0.614 -0.2460 -0.1354  0.9072
 7886TIP3    H145149   3.615   4.470   0.644  0.2491 -0.4320  0.9769
 7886TIP3    H245150   3.631   4.320   0.637  0.4220 -0.3447 -1.2134
 7887TIP3   OH245151   2.522   0.001  13.015  0.6800  0.0543  0.5372
 7887TIP3    H145152   2.602  -0.048  13.034  1.4058 -0.0429 -2.3625
 7887TIP3    H245153   2.454  -0.067  13.009  0.6189 -0.0037  1.6368
 7888TIP3   OH245154   2.042   4.882  12.413  0.4839 -0.5534  0.0228
 7888TIP3    H145155   2.044   4.859  12.506  1.6474  0.6091  0.3167
 7888TIP3    H245156   1.982   4.957  12.408  0.1606 -0.8247 -0.2258
 7889TIP3   OH245157   4.482   0.334   1.062  0.5846 -0.1643  0.1309
 7889TIP3    H145158   4.549   0.359   1.126  1.2944  2.2041 -1.3844
 7889TIP3    H245159   4.399   0.356   1.103  1.0037  0.8828  0.4450
 7890TIP3   OH245160   1.689   6.026   6.686  0.0819 -0.5362 -0.9328
 7890TIP3    H145161   1.665   6.118   6.676 -3.0468 -1.0479  0.5434
 7890TIP3    H245162   1.607   5.978   6.675  1.1554 -2.9409  0.5957
 7891TIP3   OH245163   5.269   3.626   5.254 -0.3340 -0.5354  0.4598
 7891TIP3    H145164   5.228   3.709   5.279 -1.8578 -1.3865  0.9251
 7891TIP3    H245165   5.198   3.575   5.215  0.4716 -1.7770  0.5535
 7892TIP3   OH245166   0.540   4.081  13.849 -0.2664  0.1669  0.3600
 7892TIP3    H145167   0.611   4.145  13.853  1.2523 -1.4892  1.5157
 7892TIP3    H245168   0.544   4.045  13.761  0.2925  0.1432  0.3917
 7893TIP3   OH245169   3.842   6.141  15.557  0.1947 -0.2174  0.1554
 7893TIP3    H145170   3.902   6.169  15.626  1.5516 -0.2198 -0.9647
 7893TIP3    H245171   3.761   6.189  15.575  0.7314  0.2917  1.3471
 7894TIP3   OH245172   5.874   6.290  13.536 -0.1390 -0.0474  0.1708
 7894TIP3    H145173   5.868   6.367  13.480 -0.7516 -0.7336 -0.7510
 7894TIP3    H245174   5.789   6.246  13.526 -1.4610  1.2607  3.9084
 7895TIP3   OH245175   5.238   5.853   1.410  0.1844  0.3688 -0.6981
 7895TIP3    H145176   5.189   5.886   1.334  0.9411  0.4668 -1.1590
 7895TIP3    H245177   5.184   5.783   1.445 -0.5754  0.8805 -0.8213
 7896TIP3   OH245178   6.544   2.089   1.583 -0.0156 -0.0758  0.0653
 7896TIP3    H145179   6.579   2.127   1.503 -1.6297 -0.5672 -0.9247
 7896TIP3    H245180   6.581   2.142   1.654 -0.7066  2.1402 -1.1585
 7897TIP3   OH245181   5.901   3.736  17.189 -0.3939  0.2485  0.2913
 7897TIP3    H145182   5.818   3.733  17.235 -1.0770 -1.6448 -0.9629
 7897TIP3    H245183   5.880   3.772  17.103  0.0554 -0.3269 -0.0706
 7898TIP3   OH245184   0.807   0.121   3.161 -0.2387  0.4090 -0.3236
 7898TIP3    H145185   0.775   0.157   3.079  1.6523 -0.8221 -1.6825
 7898TIP3    H245186   0.794   0.191   3.225  0.0634  2.1606 -2.0965
 7899TIP3   OH245187   3.578   0.997   2.341 -0.0173  0.0982  0.5448
 7899TIP3    H145188   3.565   1.086   2.308 -1.0622  0.0808  0.8840
 7899TIP3    H245189   3.617   1.008   2.428 -1.8530  0.3084  1.3832
 7900TIP3   OH245190   3.511   2.893  12.843  0.4375 -0.4021 -0.4763
 7900TIP3    H145191   3.440   2.853  12.892  1.4567 -0.4080  1.0369
 7900TIP3    H245192   3.505   2.987  12.863 -0.0607 -0.1750 -1.5768
 7901TIP3   OH245193   5.683   5.648   1.935  0.2994  0.2497  0.7268
 7901TIP3    H145194   5.648   5.731   1.969  0.2887 -1.3327  5.3601
 7901TIP3    H245195   5.777   5.654   1.951  0.4193 -0.3000  0.2524
 7902TIP3   OH245196   4.271   4.741   0.701 -0.1488  0.5253  0.1767
 7902TIP3    H145197   4.220   4.816   0.668  1.2293  1.7172  0.6659
 7902TIP3    H245198   4.237   4.726   0.789 -0.2959  0.7179  0.1546
 7903TIP3   OH245199   1.254   1.059   5.854 -0.3617  0.0111  0.0490
 7903TIP3    H145200   1.326   1.104   5.898  1.5180 -1.2603 -1.5828
 7903TIP3    H245201   1.186   1.126   5.847  1.0880  1.6326  0.5517
 7904TIP3   OH245202   0.430   5.043   0.793 -0.4033  0.1530 -0.6437
 7904TIP3    H145203   0.357   5.061   0.852  0.3064 -1.0689  0.6447
 7904TIP3    H245204   0.406   5.088   0.711 -0.5164  3.5923  1.1096
 7905TIP3   OH245205   6.206   5.604  13.634 -0.0940  0.0041  0.0393
 7905TIP3    H145206   6.168   5.518  13.615 -0.8381  0.5991 -1.2945
 7905TIP3    H245207   6.246   5.594  13.721 -0.9662 -1.4157  0.3106
 7906TIP3   OH245208   2.695   4.545  12.689  0.7892 -0.0025 -0.0076
 7906TIP3    H145209   2.683   4.578  12.778  0.9793  0.2839 -0.0851
 7906TIP3    H245210   2.771   4.593  12.656  0.7101 -0.0952 -0.3300
 7907TIP3   OH245211   0.623   4.031   2.036  0.5205 -0.4693  0.5632
 7907TIP3    H145212   0.529   4.026   2.019  0.5251 -2.6181  0.9218
 7907TIP3    H245213   0.664   4.011   1.952  0.6861  0.4974  0.3996
 7908TIP3   OH245214   5.450   0.618  17.126  0.4680 -0.3102  0.0945
 7908TIP3    H145215   5.502   0.695  17.101 -0.2780  1.0683  2.4895
 7908TIP3    H245216   5.437   0.571  17.043  2.6964  1.0090 -1.1244
 7909TIP3   OH245217   1.385   0.543  16.856 -0.2019  0.3295 -0.4671
 7909TIP3    H145218   1.314   0.566  16.797 -0.3475  0.3838 -0.2695
 7909TIP3    H245219   1.447   0.495  16.801  1.2697  3.1566 -1.4979
 7910TIP3   OH245220   2.361   1.091   4.771  0.7439 -0.0245 -0.2136
 7910TIP3    H145221   2.337   1.079   4.679 -2.3436 -1.5473  0.6496
 7910TIP3    H245222   2.454   1.069   4.774  0.4610 -2.0718 -2.6526
 7911TIP3   OH245223   5.042   2.695  13.277 -0.0976 -0.1996 -0.4719
 7911TIP3    H145224   4.964   2.678  13.329  0.0826 -1.3876 -0.5527
 7911TIP3    H245225   5.085   2.609  13.270  1.9489  0.6321  0.7507
 7912TIP3   OH245226   3.185   0.519  14.917  0.2525  0.1024  0.6836
 7912TIP3    H145227   3.211   0.428  14.907  0.6059  0.3813 -1.3872
 7912TIP3    H245228   3.246   0.567  14.861 -2.6743  1.1239 -1.8836
 7913TIP3   OH245229   4.263   3.715   0.059 -0.1786 -0.4494  0.2073
 7913TIP3    H145230   4.178   3.675   0.041 -0.7528  1.1215 -0.7936
 7913TIP3    H245231   4.312   3.705  -0.023  0.6921 -1.4899  0.8279
 7914TIP3   OH245232   1.510   2.247  12.193  0.0716  0.4692  0.0340
 7914TIP3    H145233   1.463   2.166  12.172  1.4096 -0.4685  0.6084
 7914TIP3    H245234   1.455   2.289  12.259 -0.8450  0.2580 -0.5629
 7915TIP3   OH245235   5.751   1.340   3.987  0.0192  0.2219  0.0947
 7915TIP3    H145236   5.697   1.387   4.050 -0.7709  2.0392 -1.8292
 7915TIP3    H245237   5.834   1.388   3.985  0.0753  0.1132 -0.2164
 7916TIP3   OH245238   1.438   5.808  13.021 -0.0853 -0.4298  0.1598
 7916TIP3    H145239   1.401   5.733  12.974 -1.0904 -0.4876  1.0081
 7916TIP3    H245240   1.448   5.876  12.955 -3.0497  0.0769  0.1009
 7917TIP3   OH245241   2.804   3.860   1.536 -0.2117  0.1115  0.3686
 7917TIP3    H145242   2.857   3.796   1.583 -1.2240 -0.1220  1.2259
 7917TIP3    H245243   2.807   3.939   1.590  2.3193  1.3987 -1.4374
 7918TIP3   OH245244   3.468   1.587   1.759 -0.0114 -0.1076  0.2490
 7918TIP3    H145245   3.395   1.645   1.736 -2.5777 -2.2310  2.3600
 7918TIP3    H245246   3.537   1.646   1.788 -1.7444  1.9623  0.4273
 7919TIP3   OH245247   3.338   3.514   5.916  0.0958  0.5802 -0.1411
 7919TIP3    H145248   3.403   3.521   5.846  0.8069 -2.1021  0.1442
 7919TIP3    H245249   3.386   3.533   5.996  0.2150 -0.0527 -0.0571
 7920TIP3   OH245250   1.403   2.557   5.899  0.0794  0.4079  0.5859
 7920TIP3    H145251   1.497   2.556   5.921 -0.1910  0.9576  1.9044
 7920TIP3    H245252   1.360   2.577   5.983 -1.1902  0.5340 -0.0807
 7921TIP3   OH245253   0.193   6.198  17.060  0.0164 -0.8131 -0.1572
 7921TIP3    H145254   0.274   6.149  17.076  0.4361  0.3415  1.4297
 7921TIP3    H245255   0.157   6.215  17.147 -1.8756 -1.1621 -0.8288
 7922TIP3   OH245256   3.223   1.350   1.797  0.3708 -0.2903 -0.6006
 7922TIP3    H145257   3.260   1.436   1.817 -1.7267  0.3952  0.6311
 7922TIP3    H245258   3.172   1.327   1.875 -1.0619 -1.5259 -1.8405
 7923TIP3   OH245259   2.263   4.829   0.730 -0.1422 -0.0028 -0.0417
 7923TIP3    H145260   2.181   4.800   0.769  1.2054 -0.9347  2.3416
 7923TIP3    H245261   2.256   4.924   0.727 -1.3373 -0.0738  0.0631
 7924TIP3   OH245262   4.433   2.688   1.432 -0.3559  0.2104  0.3312
 7924TIP3    H145263   4.508   2.629   1.442  0.4191  0.7103 -1.9370
 7924TIP3    H245264   4.454   2.763   1.487  0.5839  0.1345  0.0892
 7925TIP3   OH245265   4.748   0.965   1.306  0.7646 -0.2224 -0.1415
 7925TIP3    H145266   4.824   0.914   1.279  1.5525  0.4365  0.7833
 7925TIP3    H245267   4.772   1.056   1.289 -0.5863 -0.1090 -1.6761
 7926TIP3   OH245268   1.595   0.518   5.425 -0.7679  0.0369 -0.1040
 7926TIP3    H145269   1.585   0.475   5.510 -0.7889  0.3999  0.0798
 7926TIP3    H245270   1.614   0.609   5.447  2.0168 -0.3799 -0.4180
 7927TIP3   OH245271   1.168   3.265  17.107 -0.2440  0.0370  0.2622
 7927TIP3    H145272   1.105   3.310  17.051 -1.6655 -1.5556  0.4763
 7927TIP3    H245273   1.167   3.314  17.189  0.9683  1.6922 -0.6753
 7928TIP3   OH245274   0.381   5.339  15.682  0.1450 -0.2952 -0.8506
 7928TIP3    H145275   0.294   5.372  15.703 -0.0993 -1.8421  0.8411
 7928TIP3    H245276   0.367   5.249  15.653  1.1180 -0.2749 -1.4370
 7929TIP3   OH245277   2.804   2.353  15.934  0.7365  0.6978 -0.5444
 7929TIP3    H145278   2.827   2.310  16.017 -1.3954  1.7273  0.6475
 7929TIP3    H245279   2.888   2.379  15.897  1.8243 -0.8662  0.6855
 7930TIP3   OH245280   4.728   2.728  16.326 -0.3631  0.5155  0.4485
 7930TIP3    H145281   4.740   2.776  16.408  0.3425 -1.6282  1.6842
 7930TIP3    H245282   4.817   2.705  16.298 -0.5202  1.8659 -1.4110
 7931TIP3   OH245283   5.406   1.664   1.056  0.1710  0.1204 -0.2355
 7931TIP3    H145284   5.370   1.608   1.125  1.2990 -0.6720 -0.2756
 7931TIP3    H245285   5.492   1.629   1.038 -0.0001  0.4588 -1.8972
 7932TIP3   OH245286   5.385   0.822   4.285  0.4562 -0.2838 -0.1415
 7932TIP3    H145287   5.336   0.783   4.357 -2.0802  1.3085 -0.8358
 7932TIP3    H245288   5.344   0.786   4.206 -0.5942  2.0102 -0.7612
 7933TIP3   OH245289   4.265   5.118  16.724  0.0641  0.4355  0.0208
 7933TIP3    H145290   4.239   5.200  16.765  2.0822  0.6841  0.9187
 7933TIP3    H245291   4.190   5.093  16.671 -1.1368  2.1226  0.8351
 7934TIP3   OH245292   6.580   4.966   6.339 -0.0048  0.2746  0.2786
 7934TIP3    H145293   6.575   4.907   6.264 -0.7628  0.4088  0.2161
 7934TIP3    H245294   6.638   4.921   6.401  0.9439  0.3445 -0.5346
 7935TIP3   OH245295   3.592   2.244  15.695  0.0472 -0.4963 -0.3247
 7935TIP3    H145296   3.507   2.235  15.653 -0.5455 -1.6015  1.0329
 7935TIP3    H245297   3.604   2.339  15.704 -1.2894 -0.3278 -0.0588
 7936TIP3   OH245298   2.248   4.188  17.020  0.5112  0.1000  0.1298
 7936TIP3    H145299   2.306   4.185  16.944 -0.3665 -0.8313 -0.5446
 7936TIP3    H245300   2.259   4.276  17.056  2.4764 -0.1242  0.1599
 7937TIP3   OH245301   2.612   0.656   1.029  0.2968 -0.0367  0.4356
 7937TIP3    H145302   2.562   0.730   1.063  0.3556  0.0785  0.2704
 7937TIP3    H245303   2.675   0.695   0.968  0.2733 -0.2295  0.2870
 7938TIP3   OH245304   5.038   4.523   3.029 -0.0993  0.5673 -0.0478
 7938TIP3    H145305   5.114   4.565   3.069  0.7918  0.9891 -2.0426
 7938TIP3    H245306   5.049   4.430   3.047  0.7841  0.6531 -0.1242
 7939TIP3   OH245307   0.345   4.221   1.818 -0.1052  0.2441 -0.1171
 7939TIP3    H145308   0.423   4.224   1.763 -0.0193  0.0731 -0.0013
 7939TIP3    H245309   0.365   4.158   1.886  0.0487  0.9556  0.5122
 7940TIP3   OH245310   4.481   5.967  11.432  0.0734 -0.6289  0.2537
 7940TIP3    H145311   4.479   6.063  11.435  1.0458 -0.5590 -0.6464
 7940TIP3    H245312   4.534   5.947  11.355  0.3145 -1.8968  0.7256
 7941TIP3   OH245313   1.049   5.101  16.117  0.2263  0.5860 -0.2004
 7941TIP3    H145314   1.107   5.065  16.185  0.6107  1.5971  0.0272
 7941TIP3    H245315   1.053   5.195  16.130 -0.0547  0.7714 -1.3462
 7942TIP3   OH245316   0.463   5.974  16.692  0.4260  0.1096 -0.2546
 7942TIP3    H145317   0.450   6.034  16.618  0.4795  0.0867 -0.2822
 7942TIP3    H245318   0.381   5.981  16.742  1.0169  1.4133  0.6129
 7943TIP3   OH245319   5.757   5.136  12.809 -0.0466  0.5943 -0.0379
 7943TIP3    H145320   5.696   5.089  12.752  1.0204  0.1267 -0.8261
 7943TIP3    H245321   5.724   5.226  12.810 -1.3537  0.1199  0.4208
 7944TIP3   OH245322   2.315   5.518   4.147  0.9096 -0.2443  0.2607
 7944TIP3    H145323   2.256   5.445   4.126  0.1074  0.8711 -1.6585
 7944TIP3    H245324   2.332   5.559   4.062  2.9309  0.6400  1.0382
 7945TIP3   OH245325   0.787   1.567   3.360 -0.4885  0.0790 -0.4504
 7945TIP3    H145326   0.847   1.527   3.423 -1.6805  1.6516  1.8272
 7945TIP3    H245327   0.790   1.509   3.284  3.1211 -0.4337 -0.0848
 7946TIP3   OH245328   3.819   1.214  17.234  0.4425 -0.0011  0.0924
 7946TIP3    H145329   3.891   1.153  17.219  0.1558 -0.7355  1.5752
 7946TIP3    H245330   3.860   1.300  17.236  1.3820 -0.4623  1.5360
 7947TIP3   OH245331   2.773   6.677  16.061  0.0261 -0.8551  0.5199
 7947TIP3    H145332   2.686   6.638  16.050  0.4750 -1.5584 -0.8471
 7947TIP3    H245333   2.792   6.717  15.976  1.1079 -0.8606  0.7410
 7948TIP3   OH245334   3.956   2.843  12.222 -0.2394  0.0619 -0.4354
 7948TIP3    H145335   4.044   2.876  12.240 -0.1772  0.6235 -1.7114
 7948TIP3    H245336   3.912   2.845  12.307  0.2725  1.9164 -0.1771
 7949TIP3   OH245337   5.723   4.198  14.058  0.6143 -0.2467 -0.5675
 7949TIP3    H145338   5.789   4.242  14.113 -1.9781  0.0771  2.6015
 7949TIP3    H245339   5.657   4.265  14.041 -1.3729 -1.7209  0.8134
 7950TIP3   OH245340   5.974   5.099   6.037 -0.0120  0.2790  0.0879
 7950TIP3    H145341   6.014   5.185   6.051  0.7579 -0.2580  1.3631
 7950TIP3    H245342   5.982   5.055   6.122  0.9514 -1.6044 -0.9199
 7951TIP3   OH245343   0.638   2.500   5.642  0.0706 -0.3047  0.1151
 7951TIP3    H145344   0.595   2.584   5.657  0.1372 -0.3984  0.8666
 7951TIP3    H245345   0.699   2.517   5.571 -0.0351  0.2437  0.1524
 7952TIP3   OH245346   6.610   3.322  12.634 -0.2848 -0.7530  0.6270
 7952TIP3    H145347   6.582   3.297  12.722 -2.4832 -1.5846 -0.2494
 7952TIP3    H245348   6.584   3.249  12.578  1.4140 -0.4122 -0.6889
 7953TIP3   OH245349   6.175   0.848  15.074 -0.1000 -0.0762  0.4683
 7953TIP3    H145350   6.223   0.812  15.148  0.8141  1.5502  0.7028
 7953TIP3    H245351   6.086   0.860  15.107  0.3993  1.0355  1.4661
 7954TIP3   OH245352   1.558   0.885  12.986 -0.5647 -0.1342  0.0463
 7954TIP3    H145353   1.536   0.826  12.915  0.4207  0.3276 -0.6650
 7954TIP3    H245354   1.489   0.871  13.051 -0.8491 -1.3885 -0.4933
 7955TIP3   OH245355   0.367   6.535   2.609 -0.1362 -0.4107 -0.2838
 7955TIP3    H145356   0.369   6.439   2.607  0.2054 -0.4061 -0.2585
 7955TIP3    H245357   0.278   6.557   2.583 -0.0231 -0.7206 -0.9572
 7956TIP3   OH245358   6.346   0.973   3.832 -0.1714  0.1748 -0.3482
 7956TIP3    H145359   6.331   0.958   3.738  1.1247  3.0003 -1.1361
 7956TIP3    H245360   6.266   0.943   3.874 -1.0771 -0.5616 -2.4297
 7957TIP3   OH245361   3.321   3.549   0.484 -0.1543  0.1273 -0.2768
 7957TIP3    H145362   3.231   3.542   0.514 -1.2015  1.3698 -2.8221
 7957TIP3    H245363   3.349   3.637   0.509  0.3057 -0.1938  0.3595
 7958TIP3   OH245364   2.802   1.363  10.772  0.1998  0.1539  0.6699
 7958TIP3    H145365   2.719   1.367  10.820 -0.7827  0.1182 -0.9736
 7958TIP3    H245366   2.784   1.308  10.696  1.6942  0.2698  0.1861
 7959TIP3   OH245367   3.662   2.762  15.788 -0.2745 -0.4388 -0.1163
 7959TIP3    H145368   3.737   2.712  15.820  0.2531 -0.2970 -1.0731
 7959TIP3    H245369   3.634   2.814  15.863  1.6593  0.7837 -0.1438
 7960TIP3   OH245370   2.318   4.936  17.182  0.2625  0.1063 -0.0499
 7960TIP3    H145371   2.402   4.912  17.220  1.1192 -1.4615 -2.6711
 7960TIP3    H245372   2.332   5.024  17.146  0.0405  0.7738  1.4228
 7961TIP3   OH245373   4.356   3.895   4.087  0.6385  0.2733 -0.4288
 7961TIP3    H145374   4.347   3.990   4.086 -0.2249  0.2149  0.3600
 7961TIP3    H245375   4.373   3.872   3.996 -0.5329  1.0770 -0.8884
 7962TIP3   OH245376   0.735   4.431   7.034 -0.4028  0.0694 -0.1527
 7962TIP3    H145377   0.785   4.376   6.975 -1.0587 -0.2106 -0.4614
 7962TIP3    H245378   0.707   4.505   6.980  0.3536  0.6432  0.2231
 7963TIP3   OH245379   4.686   5.936  11.766  0.0460 -0.8764  0.1432
 7963TIP3    H145380   4.717   5.958  11.678  2.2265 -1.5209  0.6858
 7963TIP3    H245381   4.766   5.932  11.819 -1.1925 -0.7850  2.1034
 7964TIP3   OH245382   2.847   0.093  10.502  0.4527 -0.1956  0.5309
 7964TIP3    H145383   2.800   0.012  10.524 -0.5317  0.2859  0.2934
 7964TIP3    H245384   2.933   0.083  10.543 -0.0100 -0.9267  1.3664
 7965TIP3   OH245385   0.203   4.885   4.943 -0.3783 -0.1852 -0.3142
 7965TIP3    H145386   0.108   4.872   4.940 -0.3060 -0.6097 -1.0995
 7965TIP3    H245387   0.215   4.973   4.909 -0.6932  1.1562  2.7520
 7966TIP3   OH245388   5.865   3.975   2.019  0.1694  0.6076  0.3187
 7966TIP3    H145389   5.772   3.967   1.998 -0.3281  0.6004  2.3300
 7966TIP3    H245390   5.897   4.044   1.961 -0.6298 -0.6491 -1.6892
 7967TIP3   OH245391   6.702   4.824  16.283 -0.0501  0.0058  0.2973
 7967TIP3    H145392   6.660   4.788  16.205  0.3279  1.8009 -0.7810
 7967TIP3    H245393   6.731   4.911  16.257 -0.1935  0.7932  2.5441
 7968TIP3   OH245394   1.950   4.342  10.550  0.1485 -0.2094 -0.0413
 7968TIP3    H145395   1.998   4.299  10.621  2.0925  0.1743 -1.0472
 7968TIP3    H245396   1.873   4.379  10.592  1.1633 -0.1362  1.8539
 7969TIP3   OH245397   6.660   5.660   1.883 -0.2121  0.6171  0.4895
 7969TIP3    H145398   6.740   5.692   1.925 -0.6775  0.0631  1.8661
 7969TIP3    H245399   6.660   5.566   1.900 -2.0959  0.8549  2.2763
 7970TIP3   OH245400   4.303   5.290  15.373  0.0550  0.2952 -0.8502
 7970TIP3    H145401   4.335   5.203  15.398  2.0543  0.7516 -1.6397
 7970TIP3    H245402   4.372   5.326  15.317  0.1355  3.1154  0.8653
 7971TIP3   OH245403   4.000   5.704  15.643 -0.9117  0.2309 -0.3191
 7971TIP3    H145404   4.003   5.622  15.594 -0.5260 -0.0547  0.1685
 7971TIP3    H245405   4.033   5.770  15.581  0.8928 -0.3472 -0.0509
 7972TIP3   OH245406   0.326   3.829  14.294  0.0927 -0.3348 -0.0455
 7972TIP3    H145407   0.364   3.846  14.208 -0.2261  0.7327  0.0125
 7972TIP3    H245408   0.249   3.886  14.298  0.1825 -0.2628  0.9904
 7973TIP3   OH245409   2.338   0.345  12.631 -0.2523  0.0765  0.1253
 7973TIP3    H145410   2.350   0.378  12.542 -0.1117 -0.4117 -0.0427
 7973TIP3    H245411   2.292   0.415  12.678 -0.1998  0.3900 -0.2947
 7974TIP3   OH245412   2.653   1.857   5.765  0.4652  0.4914 -0.7294
 7974TIP3    H145413   2.591   1.837   5.835  1.0624 -0.4736 -0.4415
 7974TIP3    H245414   2.640   1.950   5.747 -0.0689  0.6387  0.3039
 7975TIP3   OH245415   1.249   2.931   0.491  0.5534  0.1923  0.0385
 7975TIP3    H145416   1.252   2.999   0.559 -3.2141  0.6589 -0.0718
 7975TIP3    H245417   1.175   2.955   0.436 -1.1311 -3.9916  0.0770
 7976TIP3   OH245418   1.834   4.284  13.238 -0.4930  0.5909  0.2350
 7976TIP3    H145419   1.759   4.342  13.230 -0.4197  0.9531  1.7798
 7976TIP3    H245420   1.796   4.196  13.244 -0.7162  0.6560 -0.2168
 7977TIP3   OH245421   3.343   2.066   1.919  0.4754  0.4973 -0.2727
 7977TIP3    H145422   3.399   2.008   1.971 -0.2092  0.3611  0.3365
 7977TIP3    H245423   3.387   2.072   1.834  0.2577 -1.4173 -0.5695
 7978TIP3   OH245424   3.515   3.400   3.632 -0.8834 -0.6912 -0.2827
 7978TIP3    H145425   3.569   3.407   3.710 -2.7330 -1.2913  1.1270
 7978TIP3    H245426   3.503   3.306   3.619  1.9133 -0.8123 -3.2138
 7979TIP3   OH245427   3.458   6.560   0.483 -0.7544  0.2066 -0.3916
 7979TIP3    H145428   3.392   6.627   0.466 -0.8106 -0.0640 -1.3284
 7979TIP3    H245429   3.409   6.480   0.500 -0.6811  0.0813 -0.7486
 7980TIP3   OH245430   3.313   1.723   4.245 -0.3815 -0.2548  0.1669
 7980TIP3    H145431   3.351   1.635   4.235  1.4296  0.4470  0.5775
 7980TIP3    H245432   3.367   1.766   4.310 -0.2925  1.6880 -1.0970
 7981TIP3   OH245433   4.216   1.713  11.141 -0.3224  0.2051  0.2120
 7981TIP3    H145434   4.270   1.785  11.109  1.0663 -1.5465 -1.6418
 7981TIP3    H245435   4.126   1.739  11.121  0.1074  1.5898 -0.0215
 7982TIP3   OH245436   2.487   2.113   3.701 -0.1688 -0.2541 -0.5673
 7982TIP3    H145437   2.467   2.172   3.628  0.2399  0.0122 -0.4686
 7982TIP3    H245438   2.459   2.027   3.671  1.2108 -0.3847 -1.5774
 7983TIP3   OH245439   4.015   6.277  15.754 -0.3275  0.4365  0.1137
 7983TIP3    H145440   4.045   6.202  15.805 -1.4238 -0.0877  0.0042
 7983TIP3    H245441   4.000   6.346  15.818  1.7233  0.9413  0.1099
 7984TIP3   OH245442   5.891   1.793  16.985  0.0528 -0.2685 -0.2120
 7984TIP3    H145443   5.907   1.887  16.975  2.0573 -0.6733 -1.3212
 7984TIP3    H245444   5.853   1.785  17.073  0.6582  1.4975  0.2620
 7985TIP3   OH245445   1.273   0.901   4.756 -0.5289 -0.2263  0.6931
 7985TIP3    H145446   1.288   0.977   4.811  0.2745 -0.0483  0.2462
 7985TIP3    H245447   1.195   0.860   4.793 -1.8505  1.5985  0.0665
 7986TIP3   OH245448   3.033   1.879   2.970 -0.0686  0.1248  0.1722
 7986TIP3    H145449   3.020   1.788   2.997  0.0271  0.8330  2.8935
 7986TIP3    H245450   3.115   1.878   2.922  1.9535 -0.7770  3.3117
 7987TIP3   OH245451   1.316   5.092  16.732 -0.0545  0.2728  0.2457
 7987TIP3    H145452   1.242   5.127  16.683  0.0560  0.8657  0.4942
 7987TIP3    H245453   1.286   5.007  16.764  0.0692 -0.3887 -1.3258
 7988TIP3   OH245454   5.398   2.359  14.062 -0.2856  0.7630  0.6357
 7988TIP3    H145455   5.430   2.273  14.036  1.2675  1.2503  0.8208
 7988TIP3    H245456   5.313   2.342  14.102 -0.1860 -0.6333  0.3101
 7989TIP3   OH245457   3.083   1.734  16.479  0.2005  0.7475 -0.0578
 7989TIP3    H145458   3.061   1.641  16.474 -1.2244  1.0067  0.8236
 7989TIP3    H245459   3.023   1.777  16.417  1.0520  1.0593 -0.6823
 7990TIP3   OH245460   3.193   1.605   3.180 -0.5091 -0.3404  0.0650
 7990TIP3    H145461   3.215   1.643   3.265 -2.7355  2.2325 -0.3516
 7990TIP3    H245462   3.273   1.616   3.128 -0.0903  0.9831  0.9200
 7991TIP3   OH245463   1.513   6.449  11.443 -0.4246 -0.1399 -0.4325
 7991TIP3    H145464   1.585   6.495  11.486  0.1725 -0.4874 -1.0349
 7991TIP3    H245465   1.440   6.457  11.504  0.1457  0.1417  0.2363
 7992TIP3   OH245466   6.720   0.501   2.404  0.6316 -0.3805  1.1030
 7992TIP3    H145467   6.778   0.576   2.396 -0.1583  0.1815  0.5461
 7992TIP3    H245468   6.779   0.426   2.411  1.5567 -0.2369 -2.8094
 7993TIP3   OH245469   4.503   6.773  14.639  0.0653 -0.7391 -0.3421
 7993TIP3    H145470   4.443   6.829  14.690 -0.0375 -1.7417  0.6726
 7993TIP3    H245471   4.446   6.717  14.587  0.1243  1.7683 -3.4296
 7994TIP3   OH245472   4.534   6.189   5.123 -0.0213 -0.3098 -0.4818
 7994TIP3    H145473   4.607   6.191   5.062  0.2164  1.1080 -0.1895
 7994TIP3    H245474   4.522   6.281   5.150 -0.8772 -0.7319  0.6894
 7995TIP3   OH245475   3.730   6.372   0.598 -0.3947 -0.0989  0.7151
 7995TIP3    H145476   3.710   6.465   0.608 -1.0323 -0.2887  1.3096
 7995TIP3    H245477   3.660   6.327   0.646 -0.7080 -0.9261 -0.4741
 7996TIP3   OH245478   6.803   4.359   4.770 -0.4267 -0.3076 -0.0475
 7996TIP3    H145479   6.838   4.373   4.858  0.8564  1.3702 -0.7820
 7996TIP3    H245480   6.878   4.367   4.712 -1.6930  1.6750 -1.5378
 7997TIP3   OH245481   2.501   3.451   3.858  0.5487  0.3798 -0.1403
 7997TIP3    H145482   2.454   3.445   3.775  0.2924 -1.7647  0.0966
 7997TIP3    H245483   2.588   3.418   3.839  0.4862 -0.1349  0.4209
 7998TIP3   OH245484   5.845   1.189  10.531 -0.1964  0.2678  0.4567
 7998TIP3    H145485   5.842   1.284  10.519 -1.3359 -0.0582 -3.0542
 7998TIP3    H245486   5.934   1.164  10.506 -0.6784  0.2229 -1.3313
 7999TIP3   OH245487   3.805   3.556   3.764 -0.1562 -0.2005  0.0443
 7999TIP3    H145488   3.745   3.498   3.812 -2.6165  0.8550 -1.5467
 7999TIP3    H245489   3.885   3.556   3.816 -1.9903 -0.6118  3.1361
 8000TIP3   OH245490   4.063   2.598   3.447 -0.0623  0.3577 -0.1000
 8000TIP3    H145491   4.111   2.664   3.397 -2.0975 -0.3886 -3.3449
 8000TIP3    H245492   3.978   2.592   3.403 -0.8519 -2.6943  1.5665
 8001TIP3   OH245493   6.365   0.221  12.822  0.0679 -0.8223 -0.7612
 8001TIP3    H145494   6.326   0.228  12.909  0.7038 -0.7713 -0.4751
 8001TIP3    H245495   6.291   0.232  12.762 -0.3539 -0.7161 -0.2324
 8002TIP3   OH245496   1.269   1.765  12.137  0.3405  0.5221  0.0518
 8002TIP3    H145497   1.193   1.750  12.193 -0.3279  0.0221 -0.9440
 8002TIP3    H245498   1.240   1.736  12.050  0.9074  2.4635 -0.8291
 8003TIP3   OH245499   6.815   3.341  16.017  0.0163  0.0990  0.4379
 8003TIP3    H145500   6.829   3.425  16.060  0.3719  0.1772  0.1791
 8003TIP3    H245501   6.891   3.289  16.041 -1.0145 -0.7503  1.9924
 8004TIP3   OH245502   5.548   1.156  16.293  0.5772  0.5114  0.0288
 8004TIP3    H145503   5.597   1.191  16.368  0.4105 -0.9493  0.8644
 8004TIP3    H245504   5.580   1.066  16.284 -0.9114  0.0009 -0.3387
 8005TIP3   OH245505   2.867   1.426  16.259  0.3859  0.6121  0.3568
 8005TIP3    H145506   2.942   1.405  16.204  0.2617  1.9583 -0.3740
 8005TIP3    H245507   2.905   1.458  16.341  0.5877  0.2974  0.3870
 8006TIP3   OH245508   1.386   1.435   3.121 -0.1315 -0.1041  0.4176
 8006TIP3    H145509   1.429   1.501   3.175 -1.7809  2.1501 -0.8888
 8006TIP3    H245510   1.297   1.428   3.155 -0.4894 -0.3857 -0.5152
 8007TIP3   OH245511   3.566   5.455   1.981 -0.1576 -0.5800  0.2477
 8007TIP3    H145512   3.512   5.526   2.017  0.6344 -0.2465  0.8107
 8007TIP3    H245513   3.579   5.395   2.055  0.2069 -0.6729  0.1122
 8008TIP3   OH245514   5.287   0.679  14.782  0.0486  0.1008  0.5618
 8008TIP3    H145515   5.347   0.623  14.831 -0.0967  0.6345  1.3716
 8008TIP3    H245516   5.228   0.714  14.849  0.3304  1.4626  0.1218
 8009TIP3   OH245517   0.467   4.243   3.720 -0.1939 -0.1451 -0.3705
 8009TIP3    H145518   0.448   4.165   3.773  0.5755 -0.2965 -0.3065
 8009TIP3    H245519   0.383   4.267   3.682 -0.6099 -0.4842  0.3231
 8010TIP3   OH245520   6.562   6.784   5.735 -0.2827 -0.1007 -0.1038
 8010TIP3    H145521   6.546   6.861   5.681 -0.0727  0.7403  1.0203
 8010TIP3    H245522   6.652   6.793   5.764 -0.5576 -0.2543  0.8346
 8011TIP3   OH245523   3.595   5.166  11.387  0.1866 -0.1609 -0.2029
 8011TIP3    H145524   3.687   5.172  11.359  0.5609  1.2417  1.1913
 8011TIP3    H245525   3.599   5.124  11.473 -0.4054  0.4267  0.1238
 8012TIP3   OH245526   4.217   6.478   0.175  0.6128 -0.1907 -0.0324
 8012TIP3    H145527   4.262   6.519   0.249  1.0158 -0.2641 -0.2316
 8012TIP3    H245528   4.265   6.509   0.098 -0.7588  1.1419 -0.3944
 8013TIP3   OH245529   1.241   6.640   3.198  0.3313  0.5152 -0.1135
 8013TIP3    H145530   1.181   6.565   3.193  0.8936  0.1385 -1.7817
 8013TIP3    H245531   1.187   6.710   3.235 -1.2360  0.2265 -1.6840
 8014TIP3   OH245532   1.986   4.994   5.517 -0.1646  0.5228 -0.1109
 8014TIP3    H145533   2.001   5.080   5.478 -0.1897  1.0358  0.9622
 8014TIP3    H245534   2.017   4.932   5.451 -2.4100  1.2168 -1.9468
 8015TIP3   OH245535   6.262   2.851  10.593  0.6632 -0.0717 -0.5531
 8015TIP3    H145536   6.218   2.784  10.540 -0.0287 -0.1037  0.0371
 8015TIP3    H245537   6.346   2.812  10.617 -0.5765 -1.6836  1.5964
 8016TIP3   OH245538   4.024   4.259   5.673  0.1471  0.9358  0.5161
 8016TIP3    H145539   4.106   4.224   5.636 -0.1351  1.0099 -0.2071
 8016TIP3    H245540   3.992   4.320   5.606  0.1454  1.8736  1.3499
 8017TIP3   OH245541   2.438   2.814   4.270 -0.5250  0.0158  1.0162
 8017TIP3    H145542   2.508   2.808   4.335 -1.1226  1.5447  1.8621
 8017TIP3    H245543   2.380   2.883   4.304 -2.4736 -1.2391  0.3782
 8018TIP3   OH245544   2.694   5.444   0.168 -0.2882 -0.4465 -0.2472
 8018TIP3    H145545   2.731   5.384   0.234 -0.0454  2.2826  2.3506
 8018TIP3    H245546   2.770   5.490   0.133 -0.5742 -0.6874 -1.2036
 8019TIP3   OH245547   2.895   3.000   3.600  0.3561  0.1977  0.1299
 8019TIP3    H145548   2.950   3.031   3.672  1.3528  0.2589 -0.6305
 8019TIP3    H245549   2.955   2.954   3.541 -0.5284 -0.3150 -0.4055
 8020TIP3   OH245550   4.374   1.955  11.058 -0.4526 -0.5773 -0.5801
 8020TIP3    H145551   4.338   2.040  11.084 -0.5110 -0.7719 -0.0178
 8020TIP3    H245552   4.468   1.969  11.051 -0.2718 -0.8378  1.0291
 8021TIP3   OH245553   1.958   4.812   2.686  0.1785 -0.7053  0.3409
 8021TIP3    H145554   1.998   4.827   2.771  0.4042 -1.7198  0.4236
 8021TIP3    H245555   1.864   4.808   2.703  0.1129  0.4359  0.3289
 8022TIP3   OH245556   1.774   1.033  16.285  0.0475  0.3759  0.4992
 8022TIP3    H145557   1.819   1.116  16.268  2.1316 -0.2589  2.5144
 8022TIP3    H245558   1.730   1.046  16.369  0.0413 -0.4370  0.6330
 8023TIP3   OH245559   4.348   3.180   4.944  0.5996 -0.0653  0.2929
 8023TIP3    H145560   4.279   3.246   4.934  0.1314 -0.4226  1.0726
 8023TIP3    H245561   4.417   3.225   4.992  0.4305 -0.0444  0.5158
 8024TIP3   OH245562   3.748   2.337   1.611 -0.2036  0.3454  0.0397
 8024TIP3    H145563   3.814   2.403   1.636  0.6139 -0.7947  1.0244
 8024TIP3    H245564   3.738   2.283   1.689 -2.4433  0.5440 -0.0480
 8025TIP3   OH245565   5.303   2.996  17.143 -0.5405  0.3792  0.0605
 8025TIP3    H145566   5.371   3.053  17.107  0.8154 -0.3388  1.3401
 8025TIP3    H245567   5.227   3.053  17.154  1.0591  2.2817  2.2165
 8026TIP3   OH245568   2.454   6.448  11.224 -0.2753 -0.3439 -0.0540
 8026TIP3    H145569   2.439   6.392  11.148 -1.1124  0.4254 -0.4726
 8026TIP3    H245570   2.371   6.495  11.237  0.1720  0.2659  0.7267
 8027TIP3   OH245571   5.191   2.485   2.165 -0.1187 -0.3966 -0.2025
 8027TIP3    H145572   5.235   2.414   2.119 -0.9171 -0.8949 -0.2054
 8027TIP3    H245573   5.209   2.563   2.112  2.8083 -0.0830  1.0505
 8028TIP3   OH245574   0.934   5.048  12.651  1.0030 -0.1070 -0.4165
 8028TIP3    H145575   0.881   4.975  12.682  0.4536  1.2197  2.0519
 8028TIP3    H245576   0.995   5.065  12.722  1.7772  1.2032 -1.3529
 8029TIP3   OH245577   2.577   2.768   3.077 -0.0530  0.5766 -0.1395
 8029TIP3    H145578   2.653   2.744   3.131  0.3030  0.4831 -0.6781
 8029TIP3    H245579   2.530   2.832   3.130  1.9334  2.8356 -0.9642
 8030TIP3   OH245580   6.152   3.446   2.617  0.2903 -0.0462  0.0279
 8030TIP3    H145581   6.079   3.392   2.587 -0.4148  1.0494 -0.2787
 8030TIP3    H245582   6.144   3.527   2.567  1.5659  0.2048  0.1884
 8031TIP3   OH245583   2.163   1.268   5.676  0.1259  0.2388 -0.0534
 8031TIP3    H145584   2.203   1.261   5.589 -2.0680  1.7406 -1.2815
 8031TIP3    H245585   2.141   1.178   5.699  0.5861 -0.1746 -1.1268
 8032TIP3   OH245586   3.397   4.362  11.832 -0.2126  0.5534 -0.0557
 8032TIP3    H145587   3.484   4.372  11.872  0.5882  1.5369 -1.9221
 8032TIP3    H245588   3.415   4.336  11.742 -1.8945  0.3326 -0.3577
 8033TIP3   OH245589   0.423   5.701  16.816 -0.0850 -0.4883  0.0091
 8033TIP3    H145590   0.349   5.707  16.876 -0.1452  1.2145 -0.1790
 8033TIP3    H245591   0.487   5.762  16.851  2.7159 -4.1911  2.0212
 8034TIP3   OH245592   6.270   0.246  10.978  0.0820 -0.0319 -0.4268
 8034TIP3    H145593   6.361   0.220  10.987  0.7134  1.8732 -0.9454
 8034TIP3    H245594   6.246   0.220  10.889  1.1148  2.1911 -1.4216
 8035TIP3   OH245595   0.289   2.359  14.048 -0.0625  0.0942 -0.4678
 8035TIP3    H145596   0.212   2.414  14.033 -1.2701 -1.4700 -0.1671
 8035TIP3    H245597   0.341   2.409  14.112 -1.6283  0.4530  0.5996
 8036TIP3   OH245598   5.259   5.804  16.186 -0.0016  0.1356 -0.3562
 8036TIP3    H145599   5.233   5.885  16.142  0.0997  0.6226  0.4546
 8036TIP3    H245600   5.281   5.831  16.275 -1.3378 -0.9946  0.3558
 8037TIP3   OH245601   1.597   3.829  16.331  0.1607  0.2700  0.2319
 8037TIP3    H145602   1.597   3.907  16.275  0.8560  1.9047  2.3975
 8037TIP3    H245603   1.593   3.863  16.420  2.1012 -2.0976  1.3478
 8038TIP3   OH245604   3.009   4.497  15.548  0.8360 -0.0267  0.3040
 8038TIP3    H145605   3.044   4.527  15.464  0.8498 -1.5186 -0.2581
 8038TIP3    H245606   3.037   4.563  15.611 -1.0612  2.3486 -1.1775
 8039TIP3   OH245607   4.938   0.720   0.057  0.2544  0.2219  0.4107
 8039TIP3    H145608   4.964   0.744  -0.032  0.7693 -0.6982  0.2945
 8039TIP3    H245609   4.950   0.800   0.107  0.3042  0.6594 -0.2786
 8040TIP3   OH245610   6.036   0.994   2.828  0.1872  0.2761 -0.3413
 8040TIP3    H145611   6.108   1.057   2.823  0.4493 -0.0291 -0.4494
 8040TIP3    H245612   6.071   0.914   2.789 -0.3025  0.2079 -0.6529
 8041TIP3   OH245613   0.943   0.413   4.930 -0.2357  0.4755  0.0480
 8041TIP3    H145614   1.028   0.380   4.901  0.5703  1.2274  1.4911
 8041TIP3    H245615   0.963   0.483   4.991 -1.9181  2.3739 -1.4321
 8042TIP3   OH245616   2.616   1.447  11.265  0.7661 -0.1795  0.1700
 8042TIP3    H145617   2.624   1.520  11.327 -1.4430 -0.2963  0.6590
 8042TIP3    H245618   2.608   1.489  11.179  1.3384  0.0700  0.2357
 8043TIP3   OH245619   0.695   3.430   3.180  0.0620  0.4593 -0.0718
 8043TIP3    H145620   0.665   3.446   3.090 -0.2405  0.5229  0.0375
 8043TIP3    H245621   0.788   3.411   3.171 -0.1670 -0.4854 -0.4957
 8044TIP3   OH245622   4.265   1.687   4.797 -0.1010  0.0957  0.1374
 8044TIP3    H145623   4.251   1.604   4.751 -1.5736  1.0708 -1.2836
 8044TIP3    H245624   4.329   1.734   4.744  1.4144 -0.4432  1.4203
 8045TIP3   OH245625   6.140   6.511  16.142  0.0918 -0.3414 -0.0536
 8045TIP3    H145626   6.209   6.529  16.206 -0.5087 -0.0929  0.5395
 8045TIP3    H245627   6.071   6.470  16.193 -1.2377  1.6592 -0.1140
 8046TIP3   OH245628   4.660   1.272  15.664  0.2047  0.5478 -0.4267
 8046TIP3    H145629   4.744   1.229  15.647 -0.1444  0.0488 -0.8938
 8046TIP3    H245630   4.625   1.227  15.741  1.2602  2.0626  1.0306
 8047TIP3   OH245631   0.670   1.524  14.234 -0.2994 -0.2860  0.1240
 8047TIP3    H145632   0.642   1.590  14.298 -0.2853 -0.6910  0.5498
 8047TIP3    H245633   0.591   1.503  14.184  0.1949  1.9556 -1.7852
 8048TIP3   OH245634   1.074   5.430  16.118 -0.6185 -0.1819  0.4425
 8048TIP3    H145635   1.065   5.402  16.027  1.0632 -0.4460  0.3333
 8048TIP3    H245636   1.059   5.525  16.115  0.4830 -0.0121 -0.3087
 8049TIP3   OH245637   4.800   5.239  12.596 -0.2413  0.0296  0.2851
 8049TIP3    H145638   4.855   5.318  12.593  1.0342 -0.8211  0.3063
 8049TIP3    H245639   4.786   5.216  12.504 -0.1315 -0.0345  0.2838
 8050TIP3   OH245640   2.697   5.682   6.131  0.3092  0.3410 -0.5709
 8050TIP3    H145641   2.692   5.778   6.131 -1.3267  0.3324  1.2419
 8050TIP3    H245642   2.612   5.654   6.097  0.9731 -0.5044 -1.5892
 8051TIP3   OH245643   2.882   1.852   4.525 -0.1898  0.0301  0.9830
 8051TIP3    H145644   2.931   1.852   4.443 -0.6626  0.3935  0.6937
 8051TIP3    H245645   2.948   1.836   4.592  0.4637  1.3362  0.6843
 8052TIP3   OH245646   5.914   6.089  14.151  0.4577 -0.2065  0.2812
 8052TIP3    H145647   5.855   6.142  14.097  0.3091 -0.8230 -0.1741
 8052TIP3    H245648   6.001   6.126  14.135  0.2306  0.5801  0.8023
 8053TIP3   OH245649   3.469   4.984  15.039  0.1388 -0.5625  0.1023
 8053TIP3    H145650   3.447   4.992  15.131  0.6925  1.5390  0.1023
 8053TIP3    H245651   3.548   5.038  15.028  1.6427 -2.8269 -1.1066
 8054TIP3   OH245652   1.879   1.925   5.408  0.4204 -0.2962 -0.5757
 8054TIP3    H145653   1.844   1.840   5.437 -0.7323  1.0370  2.4165
 8054TIP3    H245654   1.952   1.943   5.467 -0.0628  1.2565 -0.3906
 8055TIP3   OH245655   5.431   1.975  12.110  0.0241  0.0289 -0.7294
 8055TIP3    H145656   5.359   1.941  12.057  0.0253 -1.8495  0.3703
 8055TIP3    H245657   5.389   2.011  12.187  0.2269 -1.2992  0.0327
 8056TIP3   OH245658   5.932   6.704   3.511  0.0974  0.6375 -0.5996
 8056TIP3    H145659   5.967   6.778   3.462 -1.8889  1.5748 -0.7024
 8056TIP3    H245660   5.837   6.711   3.502 -0.2210 -0.9991  0.7488
 8057TIP3   OH245661   4.525   6.255   4.380  0.6249 -0.3130  0.5111
 8057TIP3    H145662   4.614   6.270   4.351  0.6758 -2.4091 -0.5829
 8057TIP3    H245663   4.471   6.310   4.323  0.9268 -2.4998 -2.0667
 8058TIP3   OH245664   0.604   4.832   1.093 -0.0419  0.5015 -0.3127
 8058TIP3    H145665   0.577   4.753   1.140 -0.2555 -0.1589 -1.5026
 8058TIP3    H245666   0.523   4.867   1.057  0.2597  0.3377 -1.1695
 8059TIP3   OH245667   3.608   5.328  12.809 -0.0268 -0.0269 -0.0654
 8059TIP3    H145668   3.580   5.418  12.824 -1.5279 -0.1770 -1.5335
 8059TIP3    H245669   3.555   5.276  12.869  1.1638  0.0637  1.1065
 8060TIP3   OH245670   1.802   1.745  11.966 -0.0179  1.0303  0.0515
 8060TIP3    H145671   1.762   1.791  11.893 -0.1522 -0.3737 -0.7907
 8060TIP3    H245672   1.826   1.814  12.028 -0.0716  2.2227 -1.2219
 8061TIP3   OH245673   5.279   2.852   0.148 -0.1719 -0.0076  0.1170
 8061TIP3    H145674   5.287   2.913   0.075 -0.4366  0.4826  0.4889
 8061TIP3    H245675   5.358   2.867   0.201 -0.3027  0.1151  0.2801
 8062TIP3   OH245676   1.968   5.448   3.553 -0.1457  0.1243 -0.7367
 8062TIP3    H145677   2.061   5.472   3.545  0.6566 -2.0437  1.0354
 8062TIP3    H245678   1.939   5.432   3.464  1.6498 -0.6989 -1.2056
 8063TIP3   OH245679   0.825   0.592   3.399 -0.2185  0.3912  0.0984
 8063TIP3    H145680   0.816   0.673   3.348 -1.1375  0.0920 -0.2358
 8063TIP3    H245681   0.818   0.621   3.490 -0.4771  0.7073 -0.0178
 8064TIP3   OH245682   1.123   4.064   4.102  0.0244  0.0101 -0.1862
 8064TIP3    H145683   1.068   4.142   4.092  1.5122  1.0076 -0.9501
 8064TIP3    H245684   1.066   3.991   4.078 -2.3366  0.4457  3.3569
 8065TIP3   OH245685   1.742   6.173  15.853 -0.2437 -0.1537  0.0785
 8065TIP3    H145686   1.664   6.162  15.798  0.0711  1.9854 -0.9205
 8065TIP3    H245687   1.809   6.206  15.793  1.0458 -0.6897  1.1835
 8066TIP3   OH245688   2.641   6.120   5.211 -0.0716 -0.1665 -0.1743
 8066TIP3    H145689   2.587   6.174   5.153  0.1383  0.3554  0.1102
 8066TIP3    H245690   2.724   6.110   5.163 -0.7708 -1.8743 -1.1019
 8067TIP3   OH245691   5.867   4.904   5.036 -0.4807  0.6846  0.3170
 8067TIP3    H145692   5.951   4.879   4.998  0.1273  1.9174  0.7614
 8067TIP3    H245693   5.816   4.938   4.962 -0.0492  1.2241  0.2573
 8068TIP3   OH245694   0.604   3.867   5.183 -0.3215  0.2170 -0.0892
 8068TIP3    H145695   0.694   3.844   5.201 -0.9311 -0.2021  2.7953
 8068TIP3    H245696   0.579   3.810   5.111  1.3046 -0.5876 -0.0523
 8069TIP3   OH245697   6.022   1.784  16.524 -0.5601  0.1111  0.4295
 8069TIP3    H145698   6.076   1.790  16.603 -1.1568 -0.2825  0.8708
 8069TIP3    H245699   5.941   1.829  16.547 -0.0999  1.5264 -0.5351
 8070TIP3   OH245700   4.132   3.947   0.138 -0.0641  0.0329  0.2839
 8070TIP3    H145701   4.054   3.910   0.096  0.7661 -2.4142  0.7213
 8070TIP3    H245702   4.204   3.893   0.105  1.2999  1.4697  0.8082
 8071TIP3   OH245703   6.575   2.735  13.661 -0.2812  0.0717  0.5853
 8071TIP3    H145704   6.511   2.692  13.718  1.0871 -1.0882  1.3233
 8071TIP3    H245705   6.522   2.786  13.599 -1.9987 -2.1144  0.1074
 8072TIP3   OH245706   0.519   4.155   4.025 -0.0666 -0.0846  0.8384
 8072TIP3    H145707   0.454   4.210   4.068  0.5577  2.3999 -1.1967
 8072TIP3    H245708   0.469   4.104   3.961 -0.4069 -0.7060  1.5750
 8073TIP3   OH245709   4.311   6.771   6.338  0.5328 -0.5684  0.4019
 8073TIP3    H145710   4.405   6.761   6.318  1.3206  3.2661  1.4422
 8073TIP3    H245711   4.275   6.811   6.259  0.5514  1.0583  1.1807
 8074TIP3   OH245712   1.694   5.159   1.614 -0.1879 -0.4750  0.1653
 8074TIP3    H145713   1.712   5.209   1.535 -1.7211  2.1301  1.3132
 8074TIP3    H245714   1.627   5.096   1.589 -1.8972  1.4462 -0.3129
 8075TIP3   OH245715   6.754   1.931   1.782  0.4449 -0.2377 -0.0493
 8075TIP3    H145716   6.834   1.931   1.834 -0.5441 -2.2561  1.6348
 8075TIP3    H245717   6.691   1.979   1.836  0.6793  2.1986 -1.7895
 8076TIP3   OH245718   3.327   4.549  13.148 -0.1883 -0.2396  0.2900
 8076TIP3    H145719   3.280   4.466  13.156 -0.1554 -0.2276  0.5906
 8076TIP3    H245720   3.260   4.611  13.117 -0.1273 -0.4593 -0.3076
 8077TIP3   OH245721   6.193   5.039   3.714  0.1428  0.5475  0.0156
 8077TIP3    H145722   6.142   5.119   3.700  2.9503  2.3580 -0.5146
 8077TIP3    H245723   6.277   5.069   3.749  0.4164 -2.3994  2.3860
 8078TIP3   OH245724   4.718   5.086  11.435 -0.3757 -0.6321 -0.6062
 8078TIP3    H145725   4.696   5.065  11.525 -1.0869  0.7459 -0.4268
 8078TIP3    H245726   4.804   5.128  11.440 -1.5405  1.8719 -0.1795
 8079TIP3   OH245727   0.976   6.204  14.898 -0.7221  0.9259  0.1669
 8079TIP3    H145728   0.917   6.194  14.973 -2.0900 -0.6183 -1.0319
 8079TIP3    H245729   0.929   6.262  14.838 -0.0246  1.4628  0.1327
 8080TIP3   OH245730   3.060   2.180   2.489  0.0196  0.0030  0.5264
 8080TIP3    H145731   3.136   2.201   2.436 -0.3066  1.3769  0.5602
 8080TIP3    H245732   2.988   2.170   2.427  0.1223 -0.8148  0.5315
 8081TIP3   OH245733   6.036   0.010  16.604 -0.5090 -0.3654 -0.1084
 8081TIP3    H145734   6.022  -0.083  16.624  0.0023  0.0922  2.7131
 8081TIP3    H245735   6.123   0.029  16.640 -2.0356  1.9859  2.6879
 8082TIP3   OH245736   1.405   6.019   4.053 -0.1044  0.1664 -0.0343
 8082TIP3    H145737   1.412   5.967   3.973 -1.1650  0.7764 -0.5407
 8082TIP3    H245738   1.486   6.071   4.054  0.2173 -0.3113 -0.3635
 8083TIP3   OH245739   2.917   4.628   0.368 -0.1241 -0.2891 -0.2583
 8083TIP3    H145740   2.954   4.715   0.358  0.4762 -0.4692  0.3357
 8083TIP3    H245741   2.835   4.642   0.415 -0.9895  0.1402 -1.8314
 8084TIP3   OH245742   6.733   4.552  15.403  0.2971  0.2870  0.5050
 8084TIP3    H145743   6.717   4.533  15.310  0.5786  1.3032  0.2436
 8084TIP3    H245744   6.826   4.576  15.407 -0.1162  1.9058  0.7680
 8085TIP3   OH245745   4.146   0.664   1.972  0.0681 -0.4803  0.5340
 8085TIP3    H145746   4.208   0.618   1.916  0.3788 -0.5304  0.9209
 8085TIP3    H245747   4.067   0.673   1.918  0.5393 -0.0690 -0.0917
 8086TIP3   OH245748   1.625   3.988  12.839  0.1771  0.0163  0.0670
 8086TIP3    H145749   1.550   3.949  12.884 -1.4206  2.3106 -0.4101
 8086TIP3    H245750   1.591   4.013  12.753  1.8004  0.1836 -0.5528
 8087TIP3   OH245751   2.266   4.372  15.686 -0.2325 -0.3906 -0.1274
 8087TIP3    H145752   2.358   4.372  15.661 -0.7098 -2.1322 -2.1605
 8087TIP3    H245753   2.267   4.388  15.780  2.0560  0.6831 -0.2668
 8088TIP3   OH245754   5.850   0.243  14.365 -0.0706  0.0583 -0.0422
 8088TIP3    H145755   5.763   0.222  14.331  0.0205 -0.5043  0.0710
 8088TIP3    H245756   5.852   0.339  14.366 -0.5409  0.0759 -0.4184
 8089TIP3   OH245757   0.237   2.836  15.617  0.5547  0.0336 -0.3005
 8089TIP3    H145758   0.307   2.799  15.671  1.5379  0.9812 -0.8667
 8089TIP3    H245759   0.159   2.786  15.639  0.4981  1.4392  3.2464
 8090TIP3   OH245760   3.743   6.315  14.417  0.5488 -0.2183 -0.2223
 8090TIP3    H145761   3.757   6.379  14.348  0.2956  1.1511  0.9527
 8090TIP3    H245762   3.795   6.346  14.490 -0.6966 -0.5512  0.8575
 8091TIP3   OH245763   0.928   3.013  16.747  0.0654 -0.2834  0.1890
 8091TIP3    H145764   0.858   3.053  16.799  0.0358  0.4199 -0.3715
 8091TIP3    H245765   1.008   3.036  16.794 -0.0038 -0.2228  0.2784
 8092TIP3   OH245766   3.563   4.748   0.956 -0.1816 -0.5094  0.1865
 8092TIP3    H145767   3.560   4.844   0.965 -0.5061 -0.6168  1.3320
 8092TIP3    H245768   3.472   4.721   0.963 -0.3552 -0.7741 -2.1374
 8093TIP3   OH245769   0.798   4.827  12.006 -0.1279 -0.3522 -0.3921
 8093TIP3    H145770   0.749   4.851  11.927  0.7486 -0.3604 -0.9549
 8093TIP3    H245771   0.855   4.755  11.978  1.6564  0.9629 -0.2976
 8094TIP3   OH245772   4.122   4.830  15.888  0.8081 -0.1711  0.7883
 8094TIP3    H145773   4.120   4.749  15.837 -1.2613 -0.3524  1.0554
 8094TIP3    H245774   4.161   4.895  15.830 -0.1835 -0.7071 -0.5099
 8095TIP3   OH245775   5.460   2.105   3.143 -0.5044 -0.0587 -0.1183
 8095TIP3    H145776   5.379   2.119   3.094 -0.1187 -0.3024 -0.8399
 8095TIP3    H245777   5.489   2.018   3.118  0.0483  0.0720  0.0415
 8096TIP3   OH245778   3.299   4.003   3.047 -0.2036 -0.3506 -0.2391
 8096TIP3    H145779   3.360   3.953   3.102  1.1586  1.5730  0.1061
 8096TIP3    H245780   3.326   4.094   3.059 -1.1405  0.2935 -2.5825
 8097TIP3   OH245781   3.344   1.234  15.167 -0.0203 -0.0671  0.2478
 8097TIP3    H145782   3.274   1.284  15.124 -0.3405  0.4929  1.3769
 8097TIP3    H245783   3.365   1.285  15.245  0.9024 -0.7918  0.4840
 8098TIP3   OH245784   5.751   3.892   5.681  0.7419 -0.3208 -0.2069
 8098TIP3    H145785   5.834   3.851   5.707  1.0615  0.8550  0.7066
 8098TIP3    H245786   5.743   3.968   5.739 -1.1338 -0.5820 -0.0854
 8099TIP3   OH245787   3.615   4.903  15.487  0.3375 -0.3981 -0.1766
 8099TIP3    H145788   3.616   4.810  15.511 -0.8620 -0.7295 -1.2342
 8099TIP3    H245789   3.706   4.924  15.465  0.8137 -1.0118  1.1432
 8100TIP3   OH245790   4.161   5.750  16.815  0.5704 -0.6023 -0.2841
 8100TIP3    H145791   4.221   5.758  16.741  0.0898  0.7997 -0.5499
 8100TIP3    H245792   4.082   5.796  16.786 -0.0295 -1.0134  0.6782
 8101TIP3   OH245793   4.671   0.668  14.388 -0.1181  0.3167  0.2271
 8101TIP3    H145794   4.722   0.673  14.469  0.0515 -0.5010  0.1726
 8101TIP3    H245795   4.707   0.738  14.333 -0.1081  0.7563  0.7793
 8102TIP3   OH245796   0.809   5.324  14.687  0.6863 -0.2774  0.0906
 8102TIP3    H145797   0.825   5.385  14.615 -2.0289  0.9789  0.4117
 8102TIP3    H245798   0.874   5.348  14.753  2.1419 -0.3366 -1.2695
 8103TIP3   OH245799   2.677   2.144   1.112  0.2746  0.3216  0.0155
 8103TIP3    H145800   2.754   2.121   1.164  0.4542  3.4397  1.3396
 8103TIP3    H245801   2.606   2.093   1.151  1.0861 -0.1175  0.9441
 8104TIP3   OH245802   4.242   6.148   5.118 -0.3584  0.0532  0.0837
 8104TIP3    H145803   4.223   6.054   5.114  0.9744 -0.2493  0.4533
 8104TIP3    H245804   4.337   6.153   5.123 -0.1147  1.5729 -3.5754
 8105TIP3   OH245805   1.439   4.496   2.010  0.2420 -0.2935 -0.5584
 8105TIP3    H145806   1.367   4.558   2.023 -0.2354 -1.0481  0.4729
 8105TIP3    H245807   1.518   4.550   2.023 -0.1681  0.0405  0.8020
 8106TIP3   OH245808   6.572   5.946  12.750 -0.7253  0.2984 -0.3769
 8106TIP3    H145809   6.640   5.991  12.800  0.6828 -2.0162 -0.0418
 8106TIP3    H245810   6.490   5.976  12.789  0.2799 -0.8868  3.0299
 8107TIP3   OH245811   6.701   5.266   6.207  0.0993 -0.0439  0.1257
 8107TIP3    H145812   6.748   5.198   6.256  1.9052  0.5611 -0.6756
 8107TIP3    H245813   6.686   5.335   6.271  1.9211  0.4946  0.0300
 8108TIP3   OH245814   1.100   3.330  14.121 -0.3774 -0.2457 -0.3818
 8108TIP3    H145815   1.183   3.364  14.088 -1.4955  2.0601 -1.0229
 8108TIP3    H245816   1.100   3.238  14.096  1.5925 -0.0850 -1.1477
 8109TIP3   OH245817   3.849   0.534   4.383  0.1451  0.0729  0.0808
 8109TIP3    H145818   3.921   0.474   4.399 -1.0110 -1.1735  0.7717
 8109TIP3    H245819   3.846   0.544   4.288  0.3183 -1.0175 -0.0416
 8110TIP3   OH245820   2.841   2.508  13.063  0.5445 -0.0087 -0.7026
 8110TIP3    H145821   2.779   2.469  13.001 -2.1892  1.5927  0.8310
 8110TIP3    H245822   2.861   2.594  13.026  0.1219  0.3344 -0.1463
 8111TIP3   OH245823   4.499   1.001   1.278  0.2977 -0.5141 -0.5427
 8111TIP3    H145824   4.464   0.915   1.301 -0.1865 -0.0757  0.4144
 8111TIP3    H245825   4.588   1.001   1.314  0.0954 -0.4168 -0.0231
 8112TIP3   OH245826   0.208   3.027  13.900 -0.2200 -0.6625  0.3534
 8112TIP3    H145827   0.177   3.114  13.873  0.4600 -0.7085 -0.6154
 8112TIP3    H245828   0.146   2.966  13.860  0.8997 -0.7401 -1.3311
 8113TIP3   OH245829   2.101   6.037   1.042 -0.0713 -0.3817  0.2785
 8113TIP3    H145830   2.129   6.032   0.951 -1.0185  3.5177 -0.4152
 8113TIP3    H245831   2.179   6.064   1.090 -0.1324 -0.0369  0.1864
 8114TIP3   OH245832   1.535   4.681  13.244  0.1751  0.3168  0.6354
 8114TIP3    H145833   1.522   4.776  13.240  0.8192  0.3771 -0.3464
 8114TIP3    H245834   1.615   4.671  13.296  0.3708  0.3418  0.3423
 8115TIP3   OH245835   1.078   3.865   2.168 -0.2422 -0.7229  0.1213
 8115TIP3    H145836   1.050   3.903   2.085  0.1975  1.2177  0.8187
 8115TIP3    H245837   1.032   3.915   2.235 -0.1484 -1.8710  1.0863
 8116TIP3   OH245838   5.664   0.404  14.939  0.1365  0.2721 -0.0750
 8116TIP3    H145839   5.591   0.466  14.933  0.5052  0.7501  0.2070
 8116TIP3    H245840   5.662   0.355  14.857 -0.0611  0.7805 -0.3789
 8117TIP3   OH245841   2.121   6.466  15.802  0.2751 -0.1450 -0.2230
 8117TIP3    H145842   2.147   6.489  15.713  1.1049 -0.8501 -0.1882
 8117TIP3    H245843   2.192   6.500  15.857 -0.2475  0.3150  0.1775
 8118TIP3   OH245844   6.451   4.986   3.174  0.1821  0.2242  0.2603
 8118TIP3    H145845   6.438   4.952   3.085  0.6651 -0.9517  0.6127
 8118TIP3    H245846   6.516   5.055   3.165  1.1718 -0.7355 -0.1478
 8119TIP3   OH245847   4.480   3.244   2.045  0.2694 -0.1201 -0.1042
 8119TIP3    H145848   4.569   3.264   2.075 -0.2630  1.5995  0.4507
 8119TIP3    H245849   4.426   3.312   2.085 -1.4860 -1.7794  0.5162
 8120TIP3   OH245850   6.325   5.959   1.346  0.2862 -0.0722 -0.3411
 8120TIP3    H145851   6.236   5.929   1.327 -0.1349  0.8914  0.0369
 8120TIP3    H245852   6.351   5.909   1.423 -0.4213  0.5562  0.3151
 8121TIP3   OH245853   1.318   2.250   0.308 -0.0101  0.2204  0.2125
 8121TIP3    H145854   1.261   2.237   0.385  0.4147 -1.0665  0.3366
 8121TIP3    H245855   1.277   2.321   0.260  0.3335  1.8604  2.2101
 8122TIP3   OH245856   0.828   0.117  14.346  0.0404  0.4203  0.6499
 8122TIP3    H145857   0.889   0.060  14.300  0.0151  0.1850  0.9050
 8122TIP3    H245858   0.805   0.069  14.425  1.1995  1.4338  1.6405
 8123TIP3   OH245859   0.766   4.743  16.537 -0.2519  0.4310  0.2998
 8123TIP3    H145860   0.842   4.778  16.582 -0.4704  0.6222  0.5223
 8123TIP3    H245861   0.797   4.725  16.448  0.7828 -1.9631  1.0513
 8124TIP3   OH245862   1.193   3.904  11.718 -0.3413 -0.1408 -0.0723
 8124TIP3    H145863   1.115   3.881  11.668 -0.0332  1.8397 -1.5814
 8124TIP3    H245864   1.267   3.877  11.663  0.0042  1.0679 -0.2432
 8125TIP3   OH245865   2.743   2.793  15.444 -0.3725 -0.4068  0.1331
 8125TIP3    H145866   2.742   2.832  15.356 -1.5551  0.3181  0.4418
 8125TIP3    H245867   2.686   2.716  15.437  0.7609 -1.2360 -0.1031
 8126TIP3   OH245868   6.624   3.993   5.607 -0.1353  0.0195 -0.4797
 8126TIP3    H145869   6.583   3.953   5.684 -1.5827 -0.1301 -1.2875
 8126TIP3    H245870   6.706   4.029   5.640 -0.0163 -1.3435  0.8155
 8127TIP3   OH245871   4.928   4.537   4.254 -0.3212 -0.2399 -0.5460
 8127TIP3    H145872   4.859   4.497   4.308 -2.1587  1.7777 -1.2842
 8127TIP3    H245873   4.972   4.462   4.214 -2.2157 -1.6267 -0.2078
 8128TIP3   OH245874   1.431   6.095   3.658 -0.2744  0.4282  0.8693
 8128TIP3    H145875   1.412   6.188   3.643  1.0797  0.6901  0.6467
 8128TIP3    H245876   1.513   6.095   3.706  0.1451 -0.6770  0.1691
 8129TIP3   OH245877   2.699   0.985  12.811 -0.1776  0.0075  0.7439
 8129TIP3    H145878   2.655   1.070  12.805 -1.5736 -0.7829 -3.7637
 8129TIP3    H245879   2.627   0.921  12.816  0.6369 -1.0755 -0.6740
 8130TIP3   OH245880   3.043   4.080   0.973  0.5762  0.0959 -0.0050
 8130TIP3    H145881   3.052   4.174   0.956 -2.0181  0.3596 -0.2376
 8130TIP3    H245882   3.051   4.073   1.068  1.4684  0.4355 -0.0407
 8131TIP3   OH245883   0.748   2.051  11.970 -0.3571 -0.0230 -0.0553
 8131TIP3    H145884   0.692   2.076  11.896 -1.9549 -1.7899  0.4727
 8131TIP3    H245885   0.812   1.990  11.932  1.8526  2.5387 -0.8077
 8132TIP3   OH245886   6.524   4.459  16.202 -0.0872  0.5450  0.2919
 8132TIP3    H145887   6.541   4.489  16.292 -1.4042 -0.2436  0.8356
 8132TIP3    H245888   6.443   4.504  16.177  0.7995  1.5196 -0.8956
 8133TIP3   OH245889   5.698   4.033  12.254  0.2970  0.0171  0.0996
 8133TIP3    H145890   5.783   4.070  12.230 -0.4139  1.2838 -0.5956
 8133TIP3    H245891   5.644   4.045  12.175  0.1879 -3.1515 -0.4021
 8134TIP3   OH245892   4.405   1.138  14.117 -0.6355  0.3256 -0.3512
 8134TIP3    H145893   4.497   1.160  14.131 -0.9217  2.0093 -0.8480
 8134TIP3    H245894   4.378   1.092  14.196  1.0235 -1.5904 -0.8437
 8135TIP3   OH245895   4.215   1.192   5.029  0.2418  0.5030  0.2146
 8135TIP3    H145896   4.297   1.208   4.982  0.2202 -0.2759 -0.1165
 8135TIP3    H245897   4.235   1.118   5.087 -0.0136  0.8077  0.6958
 8136TIP3   OH245898   0.634   4.857  15.303  0.0204  0.1463  0.3069
 8136TIP3    H145899   0.547   4.819  15.310  0.1008 -0.1256 -0.1105
 8136TIP3    H245900   0.693   4.782  15.304  0.2566  0.3354  0.6779
 8137TIP3   OH245901   5.993   4.407  15.575 -0.0536  0.4365 -0.3656
 8137TIP3    H145902   5.964   4.398  15.666  2.3899 -2.8321  0.2810
 8137TIP3    H245903   6.041   4.490  15.573  0.4661  0.2231  1.5718
 8138TIP3   OH245904   0.195   1.410  14.768 -0.1777 -0.4905 -0.1541
 8138TIP3    H145905   0.172   1.318  14.762  1.4009 -0.9675  0.5590
 8138TIP3    H245906   0.145   1.443  14.843 -0.8238 -0.7283 -0.4721
 8139TIP3   OH245907   2.259   6.283   0.182 -0.0844 -0.2700  0.1989
 8139TIP3    H145908   2.261   6.372   0.215 -0.1655 -0.0005 -0.5103
 8139TIP3    H245909   2.179   6.278   0.129 -0.6592 -1.0877  1.1078
 8140TIP3   OH245910   0.703   4.574   1.699  0.3979  0.3605  0.0975
 8140TIP3    H145911   0.666   4.494   1.662  0.7745  0.4625 -0.5105
 8140TIP3    H245912   0.783   4.589   1.648  2.0829 -0.6395  2.2653
 8141TIP3   OH245913   0.235   2.797   4.687  0.0001  0.2838 -0.3042
 8141TIP3    H145914   0.149   2.754   4.680 -0.2468  0.7539 -0.1493
 8141TIP3    H245915   0.272   2.789   4.599  0.2902 -0.9316 -0.0998
 8142TIP3   OH245916   4.849   1.017  13.223 -0.0978 -0.1151 -0.5293
 8142TIP3    H145917   4.755   1.016  13.206 -0.0843  3.0815 -1.4807
 8142TIP3    H245918   4.856   1.021  13.318 -0.7453 -2.9366 -0.2762
 8143TIP3   OH245919   3.631   0.362   0.186 -0.0783  0.1420  0.1062
 8143TIP3    H145920   3.721   0.373   0.218  0.5408 -2.2516 -0.5530
 8143TIP3    H245921   3.585   0.318   0.257 -0.4084  0.3615  0.0272
 8144TIP3   OH245922   5.344   3.890  16.812  0.2989  0.1239  0.6153
 8144TIP3    H145923   5.380   3.842  16.737  3.2373  0.2892  1.7671
 8144TIP3    H245924   5.314   3.822  16.872  1.2921 -0.1726  0.7919
 8145TIP3   OH245925   5.476   1.138  14.576 -0.8674 -0.3170  0.1191
 8145TIP3    H145926   5.440   1.062  14.622  1.0655 -1.2165  0.2329
 8145TIP3    H245927   5.571   1.133  14.591 -0.3873  0.5328 -2.2571
 8146TIP3   OH245928   3.029   0.770   1.439  0.2753 -0.1156 -0.0135
 8146TIP3    H145929   2.949   0.745   1.392  0.7077  0.9004 -1.3389
 8146TIP3    H245930   3.025   0.866   1.443  0.6246 -0.1444  1.3950
 8147TIP3   OH245931   0.006   3.515  16.670  0.1527 -0.4338  0.4696
 8147TIP3    H145932  -0.066   3.544  16.613 -1.1441  0.7874  2.5730
 8147TIP3    H245933  -0.036   3.500  16.755  2.0107 -2.0966  1.1688
 8148TIP3   OH245934   3.791   6.573  13.037  0.4668  0.3486  0.4255
 8148TIP3    H145935   3.714   6.517  13.039  1.6388 -1.3391  0.1261
 8148TIP3    H245936   3.858   6.524  13.083  1.4490  1.6754  0.4796
 8149TIP3   OH245937   0.363   5.637   0.421 -0.3896 -0.2656 -0.3044
 8149TIP3    H145938   0.360   5.605   0.511 -0.0222 -0.0979 -0.2293
 8149TIP3    H245939   0.294   5.703   0.416  0.9197  1.2314  0.4573
 8150TIP3   OH245940   5.077   3.768  15.832  0.6809  0.2032 -0.0521
 8150TIP3    H145941   5.067   3.803  15.921 -1.9312 -2.1315  0.7255
 8150TIP3    H245942   5.039   3.836  15.776  1.5960  1.3493  0.6646
 8151TIP3   OH245943   0.937   2.824  11.409  0.1109 -0.5280 -0.2883
 8151TIP3    H145944   0.885   2.903  11.394 -0.4489 -0.4927  1.5626
 8151TIP3    H245945   1.019   2.840  11.362 -0.4641  0.6150 -0.9592
 8152TIP3   OH245946   4.343   5.077  11.253  0.1215 -0.6854 -0.2019
 8152TIP3    H145947   4.327   4.985  11.232 -0.0082 -1.3946  2.6058
 8152TIP3    H245948   4.294   5.092  11.333 -1.4528  2.4525 -1.5804
 8153TIP3   OH245949   5.862   6.200  17.224  0.0274 -0.2925  0.0373
 8153TIP3    H145950   5.823   6.282  17.255  0.9976  1.0117 -1.9743
 8153TIP3    H245951   5.788   6.149  17.192 -0.4321  0.5242 -0.2304
 8154TIP3   OH245952   1.059   3.816   4.769  0.3472  0.5871 -0.0944
 8154TIP3    H145953   1.123   3.790   4.834  0.6691  0.1037 -0.5944
 8154TIP3    H245954   1.099   3.794   4.685  0.1253  1.6090 -0.4833
 8155TIP3   OH245955   6.657   0.542  15.970 -0.2186  0.2314 -0.3135
 8155TIP3    H145956   6.596   0.606  16.008 -1.3213 -0.4776 -0.8488
 8155TIP3    H245957   6.651   0.557  15.876  1.9509  1.4771 -0.3268
 8156TIP3   OH245958   0.312   3.255  14.543  0.2263  0.0536  0.9629
 8156TIP3    H145959   0.256   3.270  14.468  2.0527 -1.2802 -0.7793
 8156TIP3    H245960   0.272   3.181  14.589  0.2103 -0.5131  0.0661
 8157TIP3   OH245961   6.538   0.590   1.332  0.2147 -0.1294 -0.3266
 8157TIP3    H145962   6.519   0.496   1.323  0.6086 -0.1749 -0.6953
 8157TIP3    H245963   6.630   0.593   1.357 -0.2232  0.0946  1.3946
 8158TIP3   OH245964   1.614   0.900   6.390 -0.1120 -0.2333  0.1124
 8158TIP3    H145965   1.570   0.917   6.474  0.3590  0.5264  0.2152
 8158TIP3    H245966   1.705   0.881   6.415  0.7635  2.7717 -0.3481
 8159TIP3   OH245967   3.398   2.264  17.056  0.0220  0.2219  0.6473
 8159TIP3    H145968   3.425   2.356  17.062 -2.0971  1.1976 -2.3775
 8159TIP3    H245969   3.435   2.234  16.973 -0.4314 -1.2439  0.9493
 8160TIP3   OH245970   3.319   5.447  11.448  0.0589 -0.3419 -0.0863
 8160TIP3    H145971   3.408   5.444  11.414  0.1179 -0.4846  0.0787
 8160TIP3    H245972   3.295   5.540  11.445 -0.9093 -0.5650 -3.0125
 8161TIP3   OH245973   4.861   0.344  16.597 -0.3817 -0.5700 -0.1648
 8161TIP3    H145974   4.941   0.346  16.545  0.3455  0.6282  0.9321
 8161TIP3    H245975   4.807   0.414  16.561 -1.1956 -1.6891 -1.2216
 8162TIP3   OH245976   5.857   0.018   5.894 -0.1766 -0.3718 -0.0340
 8162TIP3    H145977   5.875   0.048   5.805 -1.1574  3.7075  0.9193
 8162TIP3    H245978   5.943   0.005   5.933  0.2892 -0.4912 -1.0718
 8163TIP3   OH245979   5.144   5.307   2.057  0.0615  0.1926 -0.2442
 8163TIP3    H145980   5.067   5.254   2.079 -1.6396  2.7139  0.3746
 8163TIP3    H245981   5.177   5.339   2.141  1.6898 -0.6690 -0.5248
 8164TIP3   OH245982   2.654   6.435  15.750 -0.1221  0.4836  0.2693
 8164TIP3    H145983   2.648   6.452  15.656 -0.7413  1.2833  0.4404
 8164TIP3    H245984   2.715   6.362  15.757 -0.6226 -0.0612 -0.8020
 8165TIP3   OH245985   6.529   3.394   4.005 -0.4572  0.0489  0.1248
 8165TIP3    H145986   6.599   3.432   3.952  0.4137 -1.0779  0.4230
 8165TIP3    H245987   6.496   3.466   4.057  0.6182  0.5714  0.1124
 8166TIP3   OH245988   4.658   4.527   3.256  0.2372 -0.0143  0.8866
 8166TIP3    H145989   4.581   4.498   3.305  0.2342 -0.0299  0.8723
 8166TIP3    H245990   4.622   4.562   3.174  0.0504  1.7914  1.6677
 8167TIP3   OH245991   2.429   2.395   4.827  0.4027 -0.3674 -0.3620
 8167TIP3    H145992   2.456   2.437   4.746  1.8592 -1.5550 -0.5370
 8167TIP3    H245993   2.450   2.303   4.815 -2.8825 -1.2765 -0.0704
 8168TIP3   OH245994   6.691   0.337   5.364  0.8980  0.1020 -0.4617
 8168TIP3    H145995   6.778   0.297   5.374  0.8847 -0.2858 -1.7334
 8168TIP3    H245996   6.705   0.408   5.301  0.1381 -0.5160 -1.3470
 8169TIP3   OH245997   5.892   2.935  13.709  0.0794  0.6062 -0.1712
 8169TIP3    H145998   5.967   2.892  13.750  0.6370  2.7469  1.2087
 8169TIP3    H245999   5.878   2.886  13.628  2.0321 -0.7654  0.2535
 8170TIP3   OH246000   4.646   2.571  12.191 -0.0168 -0.3425  0.0701
 8170TIP3    H146001   4.631   2.536  12.279 -2.9296 -1.3719 -0.7261
 8170TIP3    H246002   4.590   2.648  12.185  2.3422  1.5005 -0.0190
 8171TIP3   OH246003   3.851   5.397  12.737  0.1938  0.0884  0.4531
 8171TIP3    H146004   3.760   5.382  12.763  0.3965 -1.6941  0.2570
 8171TIP3    H246005   3.846   5.436  12.650 -0.3815 -0.7376  0.1091
 8172TIP3   OH246006   1.860   0.720  11.900 -0.0879  0.0454 -0.7652
 8172TIP3    H146007   1.872   0.745  11.808  1.0093 -0.0257 -0.6489
 8172TIP3    H246008   1.911   0.783  11.950 -1.5533  0.7453 -0.1060
 8173TIP3   OH246009   4.520   1.806  17.115  0.2321  0.3460  0.3077
 8173TIP3    H146010   4.555   1.780  17.201  1.9294  2.5982  0.3931
 8173TIP3    H246011   4.442   1.857  17.136 -0.4785 -0.7280  0.3668
 8174TIP3   OH246012   1.964   6.763   2.437 -0.3071  0.4929  0.1839
 8174TIP3    H146013   1.892   6.825   2.449 -1.6937 -0.8183 -0.9421
 8174TIP3    H246014   2.013   6.798   2.363 -0.7783  0.5322 -0.1164
 8175TIP3   OH246015   3.000   3.043   3.832  0.2641 -0.0295  0.2127
 8175TIP3    H146016   2.989   3.134   3.860 -0.3732 -0.3535  1.0296
 8175TIP3    H246017   3.008   2.993   3.913 -0.5365 -0.8535 -0.2008
 8176TIP3   OH246018   6.730   4.314   0.068 -0.5182 -0.5354 -0.1185
 8176TIP3    H146019   6.720   4.220   0.052  0.2590 -0.5373 -0.6830
 8176TIP3    H246020   6.726   4.324   0.163  1.6339 -1.4503  0.1432
 8177TIP3   OH246021   4.083   2.282   2.139 -0.2303 -0.0452 -0.2116
 8177TIP3    H146022   3.993   2.292   2.107  0.2933  0.1137 -1.7081
 8177TIP3    H246023   4.113   2.198   2.104  0.8758  0.8418 -1.4824
 8178TIP3   OH246024   6.607   1.813   2.877 -0.4196 -0.5177  0.4157
 8178TIP3    H146025   6.693   1.793   2.839 -0.2967 -1.1341  1.0023
 8178TIP3    H246026   6.602   1.757   2.955 -1.3623 -0.4948  0.3749
 8179TIP3   OH246027   2.326   2.690   2.948 -0.0525 -0.6806  0.2145
 8179TIP3    H146028   2.421   2.699   2.951 -0.2063  1.2079  0.7694
 8179TIP3    H246029   2.302   2.722   2.861 -0.2894  0.4903  0.6898
 8180TIP3   OH246030   1.982   5.840  15.155  0.4154 -0.1699  0.3681
 8180TIP3    H146031   2.068   5.863  15.190  0.7317 -0.4064 -0.2463
 8180TIP3    H246032   1.966   5.751  15.189  0.2822 -0.0115  0.7222
 8181TIP3   OH246033   5.914   5.554  15.214  0.0664  0.2782 -0.7323
 8181TIP3    H146034   5.831   5.591  15.183  0.9648  1.4729 -1.8525
 8181TIP3    H246035   5.909   5.559  15.310 -0.8786  0.9575 -0.8093
 8182TIP3   OH246036   5.380   2.191   2.479  0.0914  0.0279  0.4190
 8182TIP3    H146037   5.296   2.168   2.438 -0.6544  2.2636  0.5737
 8182TIP3    H246038   5.438   2.208   2.405  0.0555 -0.2761  0.3155
 8183TIP3   OH246039   5.556   2.890   5.519 -0.1554 -0.3521 -0.0097
 8183TIP3    H146040   5.472   2.919   5.483  0.4984  0.2667 -1.0924
 8183TIP3    H246041   5.544   2.894   5.613 -1.1285  0.3897 -0.1465
 8184TIP3   OH246042   3.843   5.124  15.570 -0.7767  0.1957  0.0814
 8184TIP3    H146043   3.876   5.190  15.508 -0.7259  0.7232  0.6594
 8184TIP3    H246044   3.923   5.081  15.602 -0.7989 -0.0325 -0.1637
 8185TIP3   OH246045   6.422   3.864   3.896  0.3346  0.1572 -0.2840
 8185TIP3    H146046   6.473   3.902   3.968  0.8858  0.2641 -0.7293
 8185TIP3    H246047   6.476   3.793   3.863  0.8418  1.1660 -1.6875
 8186TIP3   OH246048   1.700   2.576  16.397  0.3412 -0.3800 -0.0375
 8186TIP3    H146049   1.609   2.572  16.427  0.1676 -0.6284 -0.5832
 8186TIP3    H246050   1.724   2.485  16.381  0.6787 -0.3111  0.0728
 8187TIP3   OH246051   0.098   1.877   5.301  0.4111  0.0204  0.4463
 8187TIP3    H146052   0.120   1.965   5.333 -2.1149  0.5311  1.0024
 8187TIP3    H246053   0.098   1.822   5.379 -1.3789  0.3275  0.7247
 8188TIP3   OH246054   5.681   4.816  12.794 -0.4128 -0.2842  0.2875
 8188TIP3    H146055   5.619   4.878  12.754 -0.4995 -2.1520 -2.7625
 8188TIP3    H246056   5.767   4.844  12.762 -0.2541 -0.7182  0.3366
 8189TIP3   OH246057   1.017   0.669  13.223 -0.1854 -0.0391  0.2600
 8189TIP3    H146058   0.955   0.658  13.294  0.5406  0.2579  0.9563
 8189TIP3    H246059   1.006   0.760  13.195 -1.1079 -0.4077 -0.6360
 8190TIP3   OH246060   2.354   0.077  11.914  0.1517 -0.1726 -0.4135
 8190TIP3    H146061   2.348  -0.012  11.879  1.4461  0.0379 -1.2359
 8190TIP3    H246062   2.351   0.134  11.837 -1.4708  0.5720  0.1500
 8191TIP3   OH246063   3.216   0.118   2.713  0.1025 -0.3216 -0.0034
 8191TIP3    H146064   3.138   0.169   2.737  0.3023 -0.5274  1.1476
 8191TIP3    H246065   3.195   0.082   2.626 -1.7684 -1.6392  0.9108
 8192TIP3   OH246066   0.951   6.800   2.970 -0.5572 -0.6450  0.5213
 8192TIP3    H146067   0.911   6.851   3.041 -0.6527 -0.2029  0.1588
 8192TIP3    H246068   1.019   6.858   2.935 -2.7450  0.5942 -1.9918
 8193TIP3   OH246069   2.009   2.615  13.764  0.1811 -0.4682  0.0610
 8193TIP3    H146070   1.984   2.624  13.856 -1.0862 -0.4622 -0.2551
 8193TIP3    H246071   2.047   2.527  13.758  2.7640  0.5019  1.0810
 8194TIP3   OH246072   3.946   1.381  12.514  0.1514  0.1368  0.0873
 8194TIP3    H146073   3.952   1.444  12.442  0.3167 -1.9810 -1.8501
 8194TIP3    H246074   4.022   1.401  12.570  0.5615  1.2069 -0.8110
 8195TIP3   OH246075   4.147   3.605  12.721  0.1492  0.0917  0.3487
 8195TIP3    H146076   4.237   3.638  12.726 -0.2296  0.9690  2.4007
 8195TIP3    H246077   4.138   3.549  12.799 -0.5735 -1.4082 -0.7608
 8196TIP3   OH246078   5.488   0.516   0.801 -0.4295  0.1241 -0.0789
 8196TIP3    H146079   5.508   0.475   0.717 -2.2787 -0.8237 -0.1104
 8196TIP3    H246080   5.416   0.576   0.782 -1.1561 -0.4105  0.8849
 8197TIP3   OH246081   1.172   0.683   0.807 -0.7996  0.1508 -0.0659
 8197TIP3    H146082   1.103   0.694   0.873  0.5448  2.1136  1.1090
 8197TIP3    H246083   1.247   0.730   0.843  0.5024 -0.1114 -2.2819
 8198TIP3   OH246084   3.951   1.298  13.365  0.3068  0.6242  0.5640
 8198TIP3    H146085   4.017   1.234  13.393  0.1527  0.5709  0.8055
 8198TIP3    H246086   3.867   1.254  13.379  0.1604  1.1961  1.5693
 8199TIP3   OH246087   5.098   0.301   1.985 -0.1922 -0.4894 -0.4305
 8199TIP3    H146088   5.111   0.363   2.057 -2.5432 -1.5143  0.9566
 8199TIP3    H246089   5.149   0.224   2.009 -2.6909 -1.7082  1.3941
 8200TIP3   OH246090   6.313   0.516  14.916  0.0773 -0.0125  0.2165
 8200TIP3    H146091   6.408   0.519  14.921  0.0960  0.1264 -0.1612
 8200TIP3    H246092   6.293   0.423  14.906  0.2014 -0.0017 -0.1487
 8201TIP3   OH246093   5.914   4.085   5.119  0.1346  0.9584  0.0184
 8201TIP3    H146094   5.967   4.115   5.046  0.2142 -0.4489 -0.5206
 8201TIP3    H246095   5.825   4.109   5.095 -0.1002 -1.1154 -1.4689
 8202TIP3   OH246096   2.379   1.032  15.003 -0.8172 -0.3723  0.0262
 8202TIP3    H146097   2.361   1.019  14.910 -1.0788  1.0337 -0.1411
 8202TIP3    H246098   2.379   0.944  15.040  0.2623 -1.0477 -1.4700
 8203TIP3   OH246099   5.844   1.780  12.471 -0.3611  0.5699  0.2452
 8203TIP3    H146100   5.865   1.786  12.378  1.1218  0.5861  0.5426
 8203TIP3    H246101   5.777   1.712  12.477 -0.5855  0.6815 -0.8420
 8204TIP3   OH246102   1.950   0.929   4.768 -0.4667 -0.4777 -0.5165
 8204TIP3    H146103   1.984   1.006   4.722  0.7824 -1.1375 -0.7460
 8204TIP3    H246104   1.995   0.855   4.727  0.5956 -1.1167  1.6474
 8205TIP3   OH246105   4.370   2.732  10.829 -0.2309 -0.1260 -0.5137
 8205TIP3    H146106   4.439   2.798  10.817  1.8440 -1.7241  1.5070
 8205TIP3    H246107   4.289   2.782  10.838  1.0007  2.0110 -0.6578
 8206TIP3   OH246108   0.827   2.168   0.612  0.4271  0.1094 -1.1704
 8206TIP3    H146109   0.838   2.241   0.672  0.1969 -0.0442 -0.9373
 8206TIP3    H246110   0.915   2.130   0.604  0.5525  0.4320 -1.3201
 8207TIP3   OH246111   3.515   4.976   4.867 -0.1041  0.1130  0.0891
 8207TIP3    H146112   3.505   4.904   4.805 -0.6777  0.1312  0.1508
 8207TIP3    H246113   3.607   5.002   4.861  0.0311 -0.4274 -0.1492
 8208TIP3   OH246114   3.797   4.884  10.932 -0.4314 -0.3282 -0.2949
 8208TIP3    H146115   3.871   4.869  10.991  0.1283 -0.0226 -0.9050
 8208TIP3    H246116   3.833   4.938  10.862 -1.0683 -0.7513 -0.9615
 8209TIP3   OH246117   2.803   1.095   1.622  0.1136 -1.1049 -0.4678
 8209TIP3    H146118   2.760   1.052   1.696  0.2499 -0.1642  0.1681
 8209TIP3    H246119   2.752   1.067   1.546 -0.1766 -1.8864 -0.0003
 8210TIP3   OH246120   2.823   5.563   2.158  0.0268  0.1219 -0.2570
 8210TIP3    H146121   2.881   5.507   2.210 -1.3781 -1.1020  0.0688
 8210TIP3    H246122   2.868   5.647   2.153  0.9826 -0.2509  1.4862
 8211TIP3   OH246123   6.670   0.058   4.004 -0.4448 -0.2431 -0.0742
 8211TIP3    H146124   6.720   0.137   3.985  0.4324 -0.6966  0.2704
 8211TIP3    H246125   6.672   0.008   3.922  0.7759 -0.8301  0.2764
 8212TIP3   OH246126   0.503   1.391  15.629  0.5948 -0.0294 -0.0711
 8212TIP3    H146127   0.510   1.405  15.534  0.7799 -1.3269 -0.2671
 8212TIP3    H246128   0.422   1.341  15.639 -0.0827  1.1642  0.5964
 8213TIP3   OH246129   2.596   4.979   3.681 -0.1375 -0.3341  0.1901
 8213TIP3    H146130   2.552   5.031   3.613 -0.5514  0.1502  0.8186
 8213TIP3    H246131   2.611   4.894   3.640  0.1460  0.1314 -0.7100
 8214TIP3   OH246132   0.798   4.645  14.710  0.6228 -0.1525  0.3144
 8214TIP3    H146133   0.848   4.726  14.710 -0.7013  0.7063 -0.0849
 8214TIP3    H246134   0.817   4.605  14.795  1.2979  0.5732  0.5196
 8215TIP3   OH246135   1.406   2.025  14.721  0.1905 -0.0339  0.0876
 8215TIP3    H146136   1.395   1.930  14.719 -0.7507  0.0908 -0.9732
 8215TIP3    H246137   1.357   2.053  14.799  0.0230 -0.3600  0.1016
 8216TIP3   OH246138   1.561   6.515   0.232 -0.2172 -0.1998 -0.6364
 8216TIP3    H146139   1.617   6.564   0.292  1.8551 -2.3933 -0.6529
 8216TIP3    H246140   1.621   6.457   0.185 -2.1917 -0.7817 -2.6142
 8217TIP3   OH246141   2.527   1.595  16.395  0.4551 -0.4740  0.5546
 8217TIP3    H146142   2.565   1.559  16.315 -3.1174 -2.2941 -0.5409
 8217TIP3    H246143   2.475   1.669  16.365 -0.5776 -0.9107  1.2269
 8218TIP3   OH246144   0.637   1.312   5.078  0.2349  0.5582  0.0950
 8218TIP3    H146145   0.564   1.321   5.138  0.0933 -1.1799  0.2344
 8218TIP3    H246146   0.667   1.402   5.063  0.3855  1.0709  2.8715
 8219TIP3   OH246147   0.716   3.042  15.257  0.2775 -0.4842 -0.1617
 8219TIP3    H146148   0.681   3.082  15.337  1.3128 -0.4210  0.2852
 8219TIP3    H246149   0.643   3.041  15.196  0.3656  2.9340 -0.5397
 8220TIP3   OH246150   1.168   2.665  16.306  0.1218 -0.3499  0.1569
 8220TIP3    H146151   1.168   2.758  16.281 -0.5823 -0.5810 -0.7352
 8220TIP3    H246152   1.169   2.618  16.223 -3.0330 -1.1450  0.4281
 8221TIP3   OH246153   1.802   0.678   4.150 -0.5371  0.5854 -0.3303
 8221TIP3    H146154   1.790   0.716   4.237 -0.1746  0.2921 -0.1517
 8221TIP3    H246155   1.771   0.746   4.090 -2.1729  0.2474  0.0729
 8222TIP3   OH246156   2.845   2.692  16.892 -0.5625 -0.2613  0.4691
 8222TIP3    H146157   2.867   2.703  16.800  0.6479  1.7150  0.9343
 8222TIP3    H246158   2.857   2.599  16.909  0.6975 -0.4047 -1.0190
 8223TIP3   OH246159   6.380   0.857  12.801 -0.5000 -0.3143 -0.9198
 8223TIP3    H146160   6.321   0.870  12.726  0.0217 -0.8411 -1.4362
 8223TIP3    H246161   6.408   0.766  12.794  0.0125 -0.2019 -0.4145
 8224TIP3   OH246162   3.269   2.371  15.414 -0.3093  0.7799 -0.4674
 8224TIP3    H146163   3.254   2.318  15.336  1.4304 -0.8857  0.2559
 8224TIP3    H246164   3.224   2.453  15.396 -1.9872 -0.4294 -2.1972
 8225TIP3   OH246165   3.974   6.416  17.250 -0.0825 -0.0236  0.2541
 8225TIP3    H146166   4.034   6.453  17.186  0.5343 -1.4024  0.0134
 8225TIP3    H246167   4.018   6.427  17.334 -0.6803  1.3410  0.4273
 8226TIP3   OH246168   2.297   6.158   1.523  0.0066 -0.4396  0.7071
 8226TIP3    H146169   2.248   6.183   1.601  0.5352 -1.1542  1.2823
 8226TIP3    H246170   2.298   6.237   1.469 -1.4814 -0.3267  0.8278
 8227TIP3   OH246171   5.079   5.228  16.522  0.4427 -0.6064  0.6703
 8227TIP3    H146172   5.126   5.311  16.528  1.3443 -1.1952  4.4151
 8227TIP3    H246173   4.986   5.252  16.531  0.5698  0.0879  0.1905
 8228TIP3   OH246174   5.058   3.394  13.879 -0.5098  0.2577 -0.0747
 8228TIP3    H146175   5.112   3.435  13.945 -0.3440  0.7679 -0.5261
 8228TIP3    H246176   4.972   3.383  13.921 -0.2658  0.1144  0.3879
 8229TIP3   OH246177   3.497   1.879   5.038 -0.2412 -0.0927  0.1309
 8229TIP3    H146178   3.560   1.938   5.080 -0.8197  0.3689  0.3666
 8229TIP3    H246179   3.531   1.866   4.950  0.5776 -0.4462  0.4922
 8230TIP3   OH246180   5.463   0.084  14.689  0.2171  0.0512 -0.0421
 8230TIP3    H146181   5.414   0.124  14.617 -0.4151  0.5597  0.6519
 8230TIP3    H246182   5.530   0.149  14.711 -0.2394  0.3441  0.4950
 8231TIP3   OH246183   3.727   1.727  14.347  0.1545 -0.2780  0.3051
 8231TIP3    H146184   3.761   1.639  14.329  0.2697 -0.5092  1.5262
 8231TIP3    H246185   3.701   1.724  14.439 -2.1572  0.2348 -0.2569
 8232TIP3   OH246186   2.752   3.384   4.218  0.0601 -0.2504 -0.0836
 8232TIP3    H146187   2.771   3.341   4.135 -1.6961 -1.6466  0.1850
 8232TIP3    H246188   2.660   3.408   4.213 -0.1029 -0.4205  1.4705
 8233TIP3   OH246189   2.842   1.638  16.778 -0.5486 -0.0947  0.0169
 8233TIP3    H146190   2.780   1.573  16.810 -2.5740  1.9387  0.4820
 8233TIP3    H246191   2.808   1.664  16.692 -1.2980  2.0724  0.8804
 8234TIP3   OH246192   2.341   4.901   1.607 -0.4549  0.2926  0.1263
 8234TIP3    H146193   2.357   4.848   1.529  0.0681  0.0964  0.3613
 8234TIP3    H246194   2.246   4.904   1.615 -0.5605  1.2200 -1.1339
 8235TIP3   OH246195   3.336   2.901  13.893 -0.6602 -0.1200  0.3646
 8235TIP3    H146196   3.268   2.965  13.912 -0.3386  1.7094 -3.6158
 8235TIP3    H246197   3.401   2.912  13.962 -2.8487  0.3107  2.4675
 8236TIP3   OH246198   0.643   3.731   5.648  0.3055  0.1592  0.9054
 8236TIP3    H146199   0.711   3.704   5.587 -0.4696  0.3352 -0.0629
 8236TIP3    H246200   0.630   3.824   5.631 -0.8757 -0.0838  0.3417
 8237TIP3   OH246201   6.803   1.337  12.740  0.0549  0.7288  0.3329
 8237TIP3    H146202   6.722   1.322  12.788  0.3749  1.2315  1.0426
 8237TIP3    H246203   6.777   1.392  12.665 -0.3494  0.4010  0.2324
 8238TIP3   OH246204   0.400   3.383  11.177 -0.2132  0.6574 -0.0201
 8238TIP3    H146205   0.362   3.389  11.265  0.9555  3.2695  0.3938
 8238TIP3    H246206   0.433   3.471  11.159  1.9941 -0.4644 -1.9852
 8239TIP3   OH246207   2.882   6.258  15.812  0.0848 -0.0461 -0.0446
 8239TIP3    H146208   2.905   6.343  15.850 -0.2018 -0.7317  1.7843
 8239TIP3    H246209   2.959   6.234  15.760  1.7284 -0.2096  2.2726
 8240TIP3   OH246210   4.482   4.016  11.534 -0.0393  0.2735  0.1352
 8240TIP3    H146211   4.546   4.071  11.489  0.5127 -1.1798 -0.9723
 8240TIP3    H246212   4.523   3.929  11.536 -0.6029 -0.0075  2.3520
 8241TIP3   OH246213   5.626   2.142   1.184 -0.1629  0.1874 -0.0903
 8241TIP3    H146214   5.548   2.196   1.198  1.1818  2.3765 -0.6364
 8241TIP3    H246215   5.699   2.204   1.180  1.5588 -1.7178 -0.2878
 8242TIP3   OH246216   3.316   4.542   2.568  0.1804  0.2753  0.1886
 8242TIP3    H146217   3.294   4.484   2.495  0.2282  3.5652 -2.6857
 8242TIP3    H246218   3.411   4.554   2.561  0.2872  0.1524  1.2250
 8243TIP3   OH246219   1.045   1.079   3.322  0.0931  0.8556  0.2278
 8243TIP3    H146220   0.988   1.060   3.247  1.0782  2.3081 -0.9380
 8243TIP3    H246221   1.127   1.035   3.301  0.4279  1.4107  0.3503
 8244TIP3   OH246222   2.253   3.572  11.273  0.3303 -0.0538 -0.1540
 8244TIP3    H146223   2.269   3.550  11.181  0.2225  0.8084 -0.3902
 8244TIP3    H246224   2.163   3.604  11.275  0.1718 -0.5144  0.3417
 8245TIP3   OH246225   5.789   6.741  11.681  0.1003  0.2307  0.3201
 8245TIP3    H146226   5.882   6.754  11.665 -0.2851  0.5302 -2.0885
 8245TIP3    H246227   5.772   6.652  11.652 -0.4686  0.3890  0.1509
 8246TIP3   OH246228   1.204   6.349  14.304 -0.0368 -0.3946  0.2629
 8246TIP3    H146229   1.180   6.397  14.384 -0.0378 -0.6897  0.4393
 8246TIP3    H246230   1.124   6.351  14.251  0.0121 -0.0583  0.1978
 8247TIP3   OH246231   5.991   6.672  14.155  0.2907 -0.0012 -0.6435
 8247TIP3    H146232   6.011   6.618  14.078 -1.7460  0.4565 -1.5472
 8247TIP3    H246233   5.929   6.620  14.205  0.7244  0.2028  0.1251
 8248TIP3   OH246234   6.568   3.396  12.222  0.2267 -0.2075 -0.4597
 8248TIP3    H146235   6.579   3.301  12.222 -2.5175 -0.6127 -0.2375
 8248TIP3    H246236   6.535   3.417  12.135 -3.2062 -0.1774  0.6728
 8249TIP3   OH246237   4.852   3.670   3.586  0.4459  0.1037  0.1376
 8249TIP3    H146238   4.853   3.574   3.584 -1.3321  0.0143  0.8667
 8249TIP3    H246239   4.910   3.693   3.659 -0.7493 -0.5566  1.3421
 8250TIP3   OH246240   3.143   2.173   5.934  0.1491  0.1951  0.0515
 8250TIP3    H146241   3.123   2.162   5.841 -2.5808  2.1714  0.2755
 8250TIP3    H246242   3.164   2.085   5.965 -1.9950 -1.0794 -1.7926
 8251TIP3   OH246243   1.336   4.031   1.565  0.4831  0.2623 -0.0843
 8251TIP3    H146244   1.390   4.022   1.486 -0.4575  1.4268 -0.8999
 8251TIP3    H246245   1.321   4.125   1.572 -0.4121  0.0622  0.8457
 8252TIP3   OH246246   4.925   5.171  16.233 -0.2074 -0.2772 -0.2596
 8252TIP3    H146247   4.845   5.131  16.200 -0.1468 -1.3912  0.8708
 8252TIP3    H246248   4.988   5.099  16.239 -0.4418 -0.3503  2.9010
 8253TIP3   OH246249   2.042   1.731  13.319 -0.0283  0.4600 -0.5635
 8253TIP3    H146250   2.049   1.798  13.388  1.2897  0.1325 -0.3597
 8253TIP3    H246251   1.955   1.744  13.283 -0.0930  1.7851  0.0021
 8254TIP3   OH246252   1.282   2.515  10.730  0.3371  0.1119 -0.1982
 8254TIP3    H146253   1.366   2.555  10.708  0.4907 -0.5312 -0.8194
 8254TIP3    H246254   1.222   2.589  10.743  0.2853  0.5493 -2.5613
 8255TIP3   OH246255   0.141   3.488  17.005  0.2208  0.0415 -0.1010
 8255TIP3    H146256   0.075   3.420  17.020 -0.6730  0.6908 -0.9595
 8255TIP3    H246257   0.223   3.440  16.997  0.0540 -0.7143  1.9560
 8256TIP3   OH246258   1.760   1.333   4.351  0.1417  0.1649 -0.2140
 8256TIP3    H146259   1.714   1.265   4.399  2.0255 -2.0873 -1.3736
 8256TIP3    H246260   1.723   1.330   4.263 -0.6645  1.6078  0.0486
 8257TIP3   OH246261   2.957   1.121  13.130 -0.3497 -0.0828 -0.2739
 8257TIP3    H146262   3.047   1.110  13.161  0.4429  1.8007 -1.6914
 8257TIP3    H246263   2.914   1.039  13.153  1.2336 -0.3679  1.9947
 8258TIP3   OH246264   2.202   4.881   3.157 -0.2428  1.3389 -0.1016
 8258TIP3    H146265   2.261   4.947   3.119 -0.1097  0.4379 -1.5308
 8258TIP3    H246266   2.256   4.802   3.164 -1.5077  0.1392 -2.5671
 8259TIP3   OH246267   3.885   2.729  11.677  0.0302  0.4484 -0.5153
 8259TIP3    H146268   3.946   2.744  11.749  0.2946 -2.1866 -0.0920
 8259TIP3    H246269   3.807   2.692  11.720  0.3320 -1.5062 -1.5595
 8260TIP3   OH246270   0.394   3.980  11.621 -0.0342  0.0530  0.2024
 8260TIP3    H146271   0.303   3.975  11.593  0.1848 -1.4603 -0.3308
 8260TIP3    H246272   0.445   3.963  11.541  0.6373 -2.0143  0.9933
 8261TIP3   OH246273   6.175   1.172   1.900  0.3977 -0.1050  0.1256
 8261TIP3    H146274   6.271   1.180   1.902  0.2563  1.9668  0.8737
 8261TIP3    H246275   6.145   1.254   1.862 -1.1098 -0.5937  0.2135
 8262TIP3   OH246276   6.729   4.168   1.807  0.2960 -0.1569  0.1698
 8262TIP3    H146277   6.778   4.250   1.797  0.1787 -0.1739 -0.6037
 8262TIP3    H246278   6.672   4.165   1.730  0.8290 -1.3298 -0.1929
 8263TIP3   OH246279   3.411   0.258  16.174 -0.0848 -0.1424 -0.6896
 8263TIP3    H146280   3.488   0.279  16.122  1.2416 -1.8308  0.4553
 8263TIP3    H246281   3.399   0.164  16.161  1.3784 -1.0962  3.1807
 8264TIP3   OH246282   2.670   0.532   0.571  0.1008  1.4742  0.0625
 8264TIP3    H146283   2.764   0.545   0.566  0.1845  1.1615  0.7227
 8264TIP3    H246284   2.649   0.475   0.496  0.6730  0.2687  0.8018
 8265TIP3   OH246285   4.211   4.803   1.581  0.0742  0.0646 -0.4344
 8265TIP3    H146286   4.243   4.894   1.583  0.8245 -0.1380 -2.0716
 8265TIP3    H246287   4.224   4.775   1.491 -3.7079 -0.4226 -0.9827
 8266TIP3   OH246288   3.217   5.478  16.222  0.4352 -0.0012  0.0980
 8266TIP3    H146289   3.230   5.452  16.313 -1.7683 -0.5600  0.3143
 8266TIP3    H246290   3.304   5.505  16.192  1.0087  1.3732  2.7015
 8267TIP3   OH246291   5.396   4.857   1.205 -0.4773  0.2251  0.0858
 8267TIP3    H146292   5.364   4.816   1.285 -1.8846  0.1700 -0.4824
 8267TIP3    H246293   5.363   4.801   1.135  0.5424  0.4022 -0.5616
 8268TIP3   OH246294   4.665   0.609   3.357  0.2350  0.2872 -0.2076
 8268TIP3    H146295   4.600   0.679   3.355 -0.3073 -0.1447  0.9977
 8268TIP3    H246296   4.622   0.538   3.405  0.8372 -0.8081 -1.2485
 8269TIP3   OH246297   5.373   3.676   1.799 -0.0863  0.1096 -0.4037
 8269TIP3    H146298   5.376   3.590   1.759  0.7839  0.9157 -2.1599
 8269TIP3    H246299   5.464   3.698   1.816 -0.3688  0.2622  1.0353
 8270TIP3   OH246300   3.606   2.357   0.677  0.3592  0.0309  0.5641
 8270TIP3    H146301   3.664   2.382   0.605 -0.4142  1.6288  0.4403
 8270TIP3    H246302   3.660   2.303   0.734  1.1578 -0.7807 -0.9129
 8271TIP3   OH246303   4.037   3.584   0.494 -0.1375  0.1929  0.5253
 8271TIP3    H146304   3.973   3.575   0.564 -0.4972  0.0874  0.1797
 8271TIP3    H246305   3.994   3.639   0.429  0.5147  1.0232  0.7665
 8272TIP3   OH246306   6.018   5.708   2.854  0.0505 -0.2887  0.3187
 8272TIP3    H146307   5.950   5.754   2.806 -0.0519 -0.8321 -0.0638
 8272TIP3    H246308   6.067   5.660   2.788  0.8289  0.1139  0.5869
 8273TIP3   OH246309   3.371   5.805  14.260  0.4849  0.8770  0.5631
 8273TIP3    H146310   3.285   5.845  14.259  0.3841  0.7481  1.8689
 8273TIP3    H246311   3.414   5.842  14.338  1.0315 -0.1925  0.7945
 8274TIP3   OH246312   0.418   4.106  16.119 -0.2878  0.0454 -0.5280
 8274TIP3    H146313   0.415   4.098  16.214  2.3147  1.5002 -0.2259
 8274TIP3    H246314   0.467   4.030  16.089  0.5026  0.5265 -0.4847
 8275TIP3   OH246315   1.596   1.092   6.213 -0.5096  0.9279  0.2387
 8275TIP3    H146316   1.502   1.095   6.197 -0.8408 -3.3996  0.3773
 8275TIP3    H246317   1.608   1.019   6.273  2.9491  1.5766  0.5311
 8276TIP3   OH246318   1.009   0.611  14.159  0.1954 -0.1047 -0.3397
 8276TIP3    H146319   0.994   0.518  14.175  2.1948  0.0402  3.2582
 8276TIP3    H246320   0.944   0.656  14.213  1.0173  0.5501  0.1308
 8277TIP3   OH246321   4.709   6.164  14.589  0.1345 -0.2163  0.1514
 8277TIP3    H146322   4.757   6.243  14.562  0.4134 -0.0942  0.9802
 8277TIP3    H246323   4.691   6.118  14.507  1.0782  0.0755 -0.2374
 8278TIP3   OH246324   6.631   4.994   4.163  0.2923 -0.0739 -0.5656
 8278TIP3    H146325   6.702   4.938   4.196  0.0033 -0.6617 -0.9365
 8278TIP3    H246326   6.575   4.935   4.113 -0.0202  0.5501 -0.9618
 8279TIP3   OH246327   1.836   6.133   1.110  0.4594  0.3630 -0.0487
 8279TIP3    H146328   1.861   6.172   1.193  0.0973  0.9120 -0.1932
 8279TIP3    H246329   1.918   6.108   1.069  0.6771  0.6946  0.1815
 8280TIP3   OH246330   0.925   2.281  16.521 -0.0376 -0.4263  0.6222
 8280TIP3    H146331   0.895   2.211  16.463  1.6057 -1.4004  0.9085
 8280TIP3    H246332   1.001   2.318  16.476 -0.4525  0.7141  0.8235
 8281TIP3   OH246333   0.733   5.115  12.171  0.3210  0.1743 -0.2057
 8281TIP3    H146334   0.805   5.098  12.110 -0.6661  0.0449 -1.3767
 8281TIP3    H246335   0.654   5.086  12.124 -0.4114 -0.6154  1.4166
 8282TIP3   OH246336   5.040   1.642  16.536 -0.6280  0.3464  0.4129
 8282TIP3    H146337   5.032   1.646  16.441 -1.3300 -0.9086  0.4020
 8282TIP3    H246338   4.959   1.681  16.569  0.2145  2.1046  0.5578
 8283TIP3   OH246339   0.665   5.352  15.426  0.0050  0.1029  0.2369
 8283TIP3    H146340   0.741   5.294  15.435 -0.3992 -0.7394 -1.4136
 8283TIP3    H246341   0.612   5.312  15.358 -1.9403  0.6924  1.3499
 8284TIP3   OH246342   1.792   4.892   3.971  0.0855 -0.7038 -0.3956
 8284TIP3    H146343   1.810   4.807   3.931 -0.3415 -0.5993 -0.8189
 8284TIP3    H246344   1.702   4.912   3.946 -0.2856 -0.7543  0.8250
 8285TIP3   OH246345   6.379   3.196  16.487  0.4144 -0.7129  0.3695
 8285TIP3    H146346   6.428   3.137  16.545  0.0450 -0.5771  0.8238
 8285TIP3    H246347   6.408   3.172  16.399 -0.6473 -2.4150  0.4529
 8286TIP3   OH246348   3.230   1.159   6.574  0.3557  0.3867  0.1283
 8286TIP3    H146349   3.196   1.069   6.577  0.0955  0.4978  1.6954
 8286TIP3    H246350   3.324   1.148   6.563 -0.0044  0.0745 -4.0490
 8287TIP3   OH246351   1.098   4.910  13.232  0.7435  0.7438  0.6176
 8287TIP3    H146352   1.071   5.000  13.215  0.8241  0.6268 -0.1698
 8287TIP3    H246353   1.178   4.899  13.182  0.8907  0.3212  0.9404
 8288TIP3   OH246354   5.160   3.871   5.264  0.7310 -0.0985 -0.5309
 8288TIP3    H146355   5.140   3.955   5.222  0.2937 -0.7735 -1.7259
 8288TIP3    H246356   5.105   3.869   5.342  1.3935  1.0939 -0.0101
 8289TIP3   OH246357   0.002   5.702  13.857  0.0561  0.4526  0.4684
 8289TIP3    H146358  -0.006   5.796  13.877  3.1302  0.3118  3.3374
 8289TIP3    H246359  -0.021   5.658  13.938  1.1423 -1.1090 -0.0259
 8290TIP3   OH246360   4.110   1.680  12.653  0.0060 -0.0989  0.4311
 8290TIP3    H146361   4.176   1.613  12.636 -0.7545 -1.0779  1.1928
 8290TIP3    H246362   4.057   1.644  12.724 -0.4538  1.3045  0.8391
 8291TIP3   OH246363   2.267   6.110  12.896 -0.2386 -0.4856 -0.0227
 8291TIP3    H146364   2.325   6.092  12.822  0.8454 -3.0215  1.3358
 8291TIP3    H246365   2.290   6.200  12.923  2.5047 -1.0818 -0.0758
 8292TIP3   OH246366   1.329   0.060   4.038  0.0104  0.2788  0.4850
 8292TIP3    H146367   1.290  -0.015   3.994  0.3939 -0.0271  0.6609
 8292TIP3    H246368   1.299   0.054   4.129 -0.2060  0.5100  0.4298
 8293TIP3   OH246369   2.230   0.941   3.155 -0.7438 -0.4888 -0.5226
 8293TIP3    H146370   2.206   0.890   3.078 -0.7956  1.5912 -1.9402
 8293TIP3    H246371   2.276   0.878   3.211 -2.6220 -2.5904 -1.2158
 8294TIP3   OH246372   0.038   4.493   2.234  0.5346  0.1134  0.1692
 8294TIP3    H146373   0.066   4.402   2.245 -1.6339 -0.4136  2.2294
 8294TIP3    H246374  -0.045   4.487   2.187  0.2681  0.9904  0.5020
 8295TIP3   OH246375   1.559   5.145  13.550  0.6648 -0.1995 -0.1585
 8295TIP3    H146376   1.505   5.223  13.535 -0.7901 -1.2672 -0.7216
 8295TIP3    H246377   1.641   5.179  13.585  0.2674  1.6227 -0.8744
 8296TIP3   OH246378   1.100   5.731   3.916 -0.3404 -0.0925  0.1438
 8296TIP3    H146379   1.167   5.690   3.861  0.8987  0.9474  0.8111
 8296TIP3    H246380   1.052   5.658   3.955  1.0010 -0.8919  0.3523
 8297TIP3   OH246381   4.943   1.238   1.487  0.1113 -0.1877  0.3700
 8297TIP3    H146382   4.948   1.252   1.393 -1.7233  0.6604  0.3482
 8297TIP3    H246383   4.980   1.151   1.500 -0.2119 -0.5943 -1.2215
 8298TIP3   OH246384   0.926   5.645  11.453  0.4582 -0.4091 -0.2990
 8298TIP3    H146385   1.015   5.616  11.434  0.6465 -0.4097  0.5443
 8298TIP3    H246386   0.876   5.564  11.462  0.3780 -0.4094 -0.6943
 8299TIP3   OH246387   2.673   5.146   5.862 -0.1782  0.0022  0.3936
 8299TIP3    H146388   2.641   5.203   5.793 -0.4184  0.1421  0.6191
 8299TIP3    H246389   2.703   5.205   5.931  1.5854 -0.0864 -0.2355
 8300TIP3   OH246390   0.890   1.037   4.420  0.0268  0.2302  0.3185
 8300TIP3    H146391   0.818   0.982   4.388 -0.3214  1.5032 -1.1893
 8300TIP3    H246392   0.955   0.974   4.452 -0.1278 -1.1325 -1.8048
 8301TIP3   OH246393   5.784   6.776  12.680 -0.1616  0.4562  0.0742
 8301TIP3    H146394   5.696   6.780  12.643  0.1139  2.3113 -0.4977
 8301TIP3    H246395   5.780   6.707  12.746 -1.9901  0.3954 -0.0639
 8302TIP3   OH246396   0.100   3.057  11.474 -0.0386 -0.1732  0.5617
 8302TIP3    H146397   0.175   3.032  11.527  0.7092 -1.3394 -0.9458
 8302TIP3    H246398   0.126   3.138  11.431  0.3709 -0.5426  0.0904
 8303TIP3   OH246399   1.547   2.230   4.128  0.1208  0.5089  0.3524
 8303TIP3    H146400   1.633   2.194   4.151  0.6363  0.7461 -1.0865
 8303TIP3    H246401   1.514   2.172   4.059 -0.0650  1.4419 -0.3667
 8304TIP3   OH246402   0.508   0.631  11.993  0.6201 -0.4505  0.0997
 8304TIP3    H146403   0.509   0.595  12.081  0.6395  0.1948  0.3624
 8304TIP3    H246404   0.485   0.556  11.937  3.8044 -1.6712  0.2515
 8305TIP3   OH246405   1.800   4.825  15.899  0.1722 -0.4477 -0.2520
 8305TIP3    H146406   1.747   4.903  15.883  0.6292  0.1489  0.9848
 8305TIP3    H246407   1.863   4.824  15.827 -1.2167 -0.9250 -1.4873
 8306TIP3   OH246408   0.467   4.509   4.849 -0.0477  0.6996 -0.6859
 8306TIP3    H146409   0.474   4.603   4.833  1.9892  0.9338  1.1384
 8306TIP3    H246410   0.375   4.497   4.876 -0.2949  2.2010 -0.7469
 8307TIP3   OH246411   2.383   5.855   4.461 -0.5060  0.3391  0.2110
 8307TIP3    H146412   2.362   5.804   4.538 -5.2118  0.2045 -0.8734
 8307TIP3    H246413   2.438   5.797   4.408 -0.8611 -1.2776  1.5326
 8308TIP3   OH246414   2.427   5.033  16.867  0.4693 -0.1179  0.4136
 8308TIP3    H146415   2.492   5.092  16.827  0.2517  0.0791  0.3471
 8308TIP3    H246416   2.385   5.087  16.934  0.0946 -0.1191  0.1808
 8309TIP3   OH246417   5.976   5.147  15.400  0.0986  0.6685  0.3030
 8309TIP3    H146418   5.897   5.200  15.408 -0.7685  0.0782 -2.9148
 8309TIP3    H246419   5.948   5.059  15.425  0.0425  0.6709  0.2487
 8310TIP3   OH246420   6.427   1.451  14.051 -0.1986  0.4916 -0.0773
 8310TIP3    H146421   6.519   1.476  14.040  1.3645 -4.0169  0.6604
 8310TIP3    H246422   6.397   1.505  14.124  2.2234  1.3499  0.3897
 8311TIP3   OH246423   6.631   5.122   4.464 -0.1363  0.6913  0.1890
 8311TIP3    H146424   6.558   5.111   4.403 -0.5527  0.8162  0.6548
 8311TIP3    H246425   6.680   5.196   4.429 -0.9262  1.3980  0.5350
 8312TIP3   OH246426   3.589   4.380  15.151  0.1737 -0.0988  0.4809
 8312TIP3    H146427   3.606   4.435  15.075 -0.6748  1.7934  1.5861
 8312TIP3    H246428   3.610   4.291  15.122  0.8841  0.6965 -1.6052
 8313TIP3   OH246429   2.884   0.766  14.192 -0.4577 -0.4223 -0.5179
 8313TIP3    H146430   2.868   0.698  14.258  0.9329 -0.5161 -0.2429
 8313TIP3    H246431   2.952   0.728  14.136 -0.5290  0.2796 -1.0857
 8314TIP3   OH246432   3.222   3.418   2.793  0.2698 -0.2646  0.0141
 8314TIP3    H146433   3.198   3.508   2.768 -1.7423 -0.5891  0.6100
 8314TIP3    H246434   3.303   3.401   2.745  0.8348  1.9448  0.0569
 8315TIP3   OH246435   6.177   3.867   5.659  0.3659 -0.1416 -0.1322
 8315TIP3    H146436   6.256   3.820   5.686  0.5176 -0.0616 -0.4403
 8315TIP3    H246437   6.209   3.952   5.629 -0.0502  0.8773  2.0733
 8316TIP3   OH246438   2.724   1.836   1.045  0.0032  1.0294 -1.1607
 8316TIP3    H146439   2.717   1.805   0.954 -0.4430  0.3221 -0.8863
 8316TIP3    H246440   2.692   1.927   1.041 -0.2910  0.9102 -1.6613
 8317TIP3   OH246441   6.400   2.638   2.015 -0.3872  0.8909 -0.0561
 8317TIP3    H146442   6.423   2.626   1.923 -0.2797  0.2642  0.0492
 8317TIP3    H246443   6.417   2.553   2.056 -4.2124 -0.1438 -0.2331
 8318TIP3   OH246444   2.283   1.822   0.517 -0.6479  0.9403 -0.1080
 8318TIP3    H146445   2.314   1.871   0.441 -2.6956  1.4265 -0.6721
 8318TIP3    H246446   2.201   1.864   0.542  0.2885  1.2389  2.8578
 8319TIP3   OH246447   5.282   6.079  16.061 -0.8398  0.4460 -0.7788
 8319TIP3    H146448   5.227   6.099  16.137 -0.5435  0.7757 -0.6451
 8319TIP3    H246449   5.338   6.157  16.051  0.8612 -0.5834  0.2086
 8320TIP3   OH246450   6.522   3.820   2.564 -0.1144 -0.1338  0.0951
 8320TIP3    H146451   6.592   3.884   2.577  2.8116 -2.3943 -2.6101
 8320TIP3    H246452   6.537   3.754   2.631 -0.8293  0.2136  0.6102
 8321TIP3   OH246453   5.299   3.471  15.045 -0.0888 -0.0103  0.3434
 8321TIP3    H146454   5.344   3.392  15.076  1.3139 -0.0869 -1.6698
 8321TIP3    H246455   5.227   3.439  14.992 -0.7416  0.0999  1.1478
 8322TIP3   OH246456   3.657   2.085  12.715  0.1585 -0.5102 -0.0231
 8322TIP3    H146457   3.747   2.115  12.701 -0.2805  1.0290  0.2848
 8322TIP3    H246458   3.631   2.124  12.798 -0.2591 -2.3049  0.7308
 8323TIP3   OH246459   6.414   4.469  16.811  0.1332 -0.3563  0.0213
 8323TIP3    H146460   6.504   4.471  16.778  0.3717 -0.2335  0.6477
 8323TIP3    H246461   6.423   4.490  16.904 -0.7844  2.4233 -0.4123
 8324TIP3   OH246462   4.670   5.163   1.810  0.0065  0.0303 -0.4464
 8324TIP3    H146463   4.721   5.216   1.870 -0.4900 -0.0769  0.0737
 8324TIP3    H246464   4.687   5.202   1.724  0.2365  0.5590 -0.1667
 8325TIP3   OH246465   6.086   5.058   4.126  0.1299 -0.3244  0.1578
 8325TIP3    H146466   6.020   5.084   4.062 -1.4269 -1.5670  1.1857
 8325TIP3    H246467   6.036   5.040   4.206  1.5271 -2.6456  0.5854
 8326TIP3   OH246468   1.628   0.305   1.711  0.2807 -0.5238 -0.5552
 8326TIP3    H146469   1.600   0.265   1.628  1.9041 -2.2908 -0.3316
 8326TIP3    H246470   1.724   0.310   1.704  0.2976  1.1610  0.4350
 8327TIP3   OH246471   3.031   2.482  12.179 -0.5619  0.1054  0.0402
 8327TIP3    H146472   3.044   2.402  12.230 -1.6024 -0.1542 -0.0875
 8327TIP3    H246473   3.117   2.499  12.139 -0.1275 -0.5050  0.6867
 8328TIP3   OH246474   0.768   6.201  11.833 -0.6047  0.3713 -0.1108
 8328TIP3    H146475   0.777   6.140  11.760  0.1893  0.8706 -0.4404
 8328TIP3    H246476   0.857   6.210  11.868 -0.9386  0.3125  0.7795
 8329TIP3   OH246477   0.695   2.598   4.906  0.1286 -0.1929 -0.1791
 8329TIP3    H146478   0.716   2.516   4.951  1.9384  0.2379 -0.1653
 8329TIP3    H246479   0.612   2.581   4.862  0.2332 -1.8654  0.2137
 8330TIP3   OH246480   6.405   6.597   3.219 -0.1411 -0.0199  0.8176
 8330TIP3    H146481   6.480   6.656   3.230 -1.1982  1.9372 -1.4929
 8330TIP3    H246482   6.439   6.525   3.165  0.2640  0.5091  0.3481
 8331TIP3   OH246483   5.100   4.961   1.164  0.2518 -0.2494 -0.1022
 8331TIP3    H146484   5.049   5.030   1.122  1.6165  0.6408 -0.3676
 8331TIP3    H246485   5.104   4.892   1.099  1.5227  0.7257 -1.1173
 8332TIP3   OH246486   1.427   1.309  16.069  0.6857 -0.9377 -0.6350
 8332TIP3    H146487   1.368   1.378  16.041  1.7643  1.4191  2.3256
 8332TIP3    H246488   1.370   1.237  16.093 -1.2521  1.4109  2.5810
 8333TIP3   OH246489   5.931   6.664   4.171 -0.7057  0.2807 -0.0003
 8333TIP3    H146490   5.945   6.733   4.106 -1.7194  0.1045 -0.4155
 8333TIP3    H246491   5.853   6.618   4.141 -0.8778 -0.1431  1.0623
 8334TIP3   OH246492   5.598   6.764  13.515 -0.2397 -0.1528  0.0261
 8334TIP3    H146493   5.524   6.810  13.556 -0.8674  0.0822 -1.3321
 8334TIP3    H246494   5.614   6.811  13.433 -0.1734 -1.6717 -0.8717
 8335TIP3   OH246495   3.284   3.843   5.134 -0.1055 -0.5502  0.7011
 8335TIP3    H146496   3.313   3.766   5.085 -1.0060 -1.9680  2.2625
 8335TIP3    H246497   3.202   3.815   5.175 -0.3809  1.2122  1.4330
 8336TIP3   OH246498   4.293   1.379  13.664  0.5609 -0.0454 -0.2286
 8336TIP3    H146499   4.226   1.448  13.662  1.4691  0.8498 -0.6063
 8336TIP3    H246500   4.362   1.415  13.719  0.3265 -1.3698  0.9931
 8337TIP3   OH246501   1.512   6.248   1.368  0.0053 -0.3251 -0.7800
 8337TIP3    H146502   1.486   6.157   1.382 -0.0414 -0.0889  1.0216
 8337TIP3    H246503   1.539   6.278   1.455 -0.0675  1.4112 -1.3210
 8338TIP3   OH246504   5.115   3.482  16.411  0.2126  0.1743 -0.5874
 8338TIP3    H146505   5.116   3.412  16.346 -1.3104 -0.8061  0.3791
 8338TIP3    H246506   5.085   3.559  16.364  0.2956 -0.2271 -1.3039
 8339TIP3   OH246507   5.907   2.388   5.602  0.2991  0.0802 -0.3952
 8339TIP3    H146508   5.840   2.429   5.547  0.8655 -0.6853 -1.7010
 8339TIP3    H246509   5.875   2.399   5.692 -0.6079  1.4508 -0.8526
 8340TIP3   OH246510   1.010   1.761  17.243 -0.1232  0.3690  0.2693
 8340TIP3    H146511   0.993   1.792  17.332  0.1284 -2.0788  1.2510
 8340TIP3    H246512   0.925   1.767  17.199 -0.6974 -0.1179  1.2742
 8341TIP3   OH246513   5.078   3.101   2.152  0.3677 -0.6051 -0.4736
 8341TIP3    H146514   5.133   3.053   2.090  1.6869 -1.9672  1.6460
 8341TIP3    H246515   5.118   3.188   2.157 -0.6086  0.0410 -2.5163
 8342TIP3   OH246516   1.314   1.811   2.624 -0.0183 -0.1028  0.2036
 8342TIP3    H146517   1.246   1.878   2.611  0.1112 -0.0375 -0.1195
 8342TIP3    H246518   1.288   1.767   2.705  0.2405  0.7597  0.7672
 8343TIP3   OH246519   0.419   3.641   3.228 -0.3263 -0.0768 -0.5523
 8343TIP3    H146520   0.408   3.549   3.205  2.6752 -0.4758 -0.8154
 8343TIP3    H246521   0.468   3.678   3.155  3.7983  0.1615  2.0110
 8344TIP3   OH246522   2.327   3.542   5.709  0.7426  0.3475  0.2634
 8344TIP3    H146523   2.361   3.562   5.796  0.7204 -4.2176  1.5886
 8344TIP3    H246524   2.402   3.553   5.651  1.7078  0.2909  1.4582
 8345TIP3   OH246525   3.846   5.356   1.214 -0.0916  0.5437  0.3038
 8345TIP3    H146526   3.839   5.280   1.272 -0.3905 -0.6762 -1.2388
 8345TIP3    H246527   3.932   5.347   1.174 -0.6705  0.2008 -0.9172
 8346TIP3   OH246528   1.648   5.794  14.864  0.0145  0.0244  0.1402
 8346TIP3    H146529   1.725   5.738  14.874  0.6079  0.6826 -0.6195
 8346TIP3    H246530   1.574   5.733  14.872  0.6436 -1.3117 -2.6351
 8347TIP3   OH246531   5.679   4.887  16.578 -0.3357 -0.6534 -0.0914
 8347TIP3    H146532   5.699   4.909  16.669  0.5643  0.2874 -0.4960
 8347TIP3    H246533   5.592   4.848  16.581 -0.3160 -0.6331  1.1736
 8348TIP3   OH246534   3.404   1.553  13.571 -0.0403 -0.3602 -0.4661
 8348TIP3    H146535   3.314   1.580  13.552 -0.2743 -1.5320 -1.1176
 8348TIP3    H246536   3.401   1.524  13.663 -0.5354 -1.1770 -0.7302
 8349TIP3   OH246537   6.818   1.314  11.780  0.5676 -0.0464 -0.2717
 8349TIP3    H146538   6.869   1.285  11.856 -3.2903  0.8267  2.9651
 8349TIP3    H246539   6.759   1.241  11.761 -0.5865  0.8839 -0.3745
 8350TIP3   OH246540   0.594   2.878  16.357 -0.0442 -0.0659 -0.2972
 8350TIP3    H146541   0.631   2.886  16.445 -0.7879  1.6836 -0.0982
 8350TIP3    H246542   0.561   2.966  16.337  0.0145 -0.4560 -2.2925
 8351TIP3   OH246543   2.366   5.715   3.248 -0.4993  0.4007 -0.0667
 8351TIP3    H146544   2.390   5.640   3.303  0.1832 -0.2752 -1.2238
 8351TIP3    H246545   2.390   5.792   3.300  3.1014 -0.2044 -0.5666
 8352TIP3   OH246546   1.194   5.962   5.258 -0.1561 -0.5662  0.1175
 8352TIP3    H146547   1.259   6.016   5.304 -0.3178 -0.5793  0.3609
 8352TIP3    H246548   1.243   5.923   5.186 -0.0529 -0.0465 -0.0939
 8353TIP3   OH246549   6.147   1.827  12.492  0.0793  0.1607 -1.0127
 8353TIP3    H146550   6.087   1.848  12.564  0.0778  1.6475 -1.4092
 8353TIP3    H246551   6.101   1.760  12.442 -1.0754  0.9674 -1.0688
 8354TIP3   OH246552   2.435   2.546   4.560 -0.4950  0.1940 -0.3614
 8354TIP3    H146553   2.348   2.581   4.544 -1.0299 -0.5657  0.7417
 8354TIP3    H246554   2.493   2.623   4.555 -1.3312  0.8495 -0.2492
 8355TIP3   OH246555   1.314   0.581   3.624  0.1232  0.2754 -0.1186
 8355TIP3    H146556   1.268   0.657   3.660  1.0522  0.8773 -0.1681
 8355TIP3    H246557   1.302   0.588   3.529  1.0989  0.9713 -0.2055
 8356TIP3   OH246558   1.180   5.616  11.342  0.2521  0.7280 -0.3925
 8356TIP3    H146559   1.182   5.521  11.330  1.7660  0.4291  1.6553
 8356TIP3    H246560   1.271   5.644  11.329 -0.2339  1.9709 -1.3285
 8357TIP3   OH246561   0.629   0.503  12.559  0.2834 -0.0848  0.4917
 8357TIP3    H146562   0.621   0.409  12.542  3.5927 -0.8804  2.4906
 8357TIP3    H246563   0.576   0.518  12.636 -1.4897  0.1010 -0.7002
 8358TIP3   OH246564   6.514   3.361  13.329  0.2030 -0.3580 -0.4075
 8358TIP3    H146565   6.445   3.351  13.394  0.7412  0.1428  0.2578
 8358TIP3    H246566   6.493   3.296  13.262 -1.8931  0.9092 -1.0905
 8359TIP3   OH246567   6.295   4.395  12.008  0.6542 -0.2918 -0.1271
 8359TIP3    H146568   6.295   4.433  12.096  2.0395 -0.5197 -0.0066
 8359TIP3    H246569   6.218   4.339  12.005  0.4917 -0.1271  0.8819
 8360TIP3   OH246570   6.541   0.107   4.247 -0.2758 -0.4485 -0.2394
 8360TIP3    H146571   6.569   0.198   4.257  1.2967 -1.0751  1.7880
 8360TIP3    H246572   6.580   0.079   4.164  1.0185  0.1677  0.1323
 8361TIP3   OH246573   3.578   3.167  13.873 -0.8449  0.2242  0.7517
 8361TIP3    H146574   3.658   3.214  13.896  0.7814 -1.5612 -0.9017
 8361TIP3    H246575   3.578   3.090  13.930 -1.4938  0.3078  0.8717
 8362TIP3   OH246576   3.132   5.548   2.086 -0.8825  0.4849 -0.2086
 8362TIP3    H146577   3.048   5.530   2.044 -1.6652  0.6802  1.2163
 8362TIP3    H246578   3.137   5.644   2.088 -0.4248  0.4719 -0.6715
 8363TIP3   OH246579   5.736   0.537   2.465  0.0529  0.1395  0.0599
 8363TIP3    H146580   5.676   0.479   2.418 -0.0193  0.1552  0.1320
 8363TIP3    H246581   5.728   0.510   2.557 -0.4778  0.7050  0.1850
 8364TIP3   OH246582   3.612   6.667  15.494 -0.3364  0.0180  0.1364
 8364TIP3    H146583   3.625   6.709  15.409 -0.2713 -0.3032 -0.0152
 8364TIP3    H246584   3.517   6.664  15.506 -0.5305 -2.3770 -1.1890
 8365TIP3   OH246585   6.561   1.418   5.227  0.2620 -0.0100 -0.2259
 8365TIP3    H146586   6.610   1.343   5.194 -1.3466 -1.8546  1.3855
 8365TIP3    H246587   6.567   1.412   5.322  0.6580  2.3404 -0.0219
 8366TIP3   OH246588   1.892   4.088  13.949 -0.0419 -0.1346  0.1349
 8366TIP3    H146589   1.924   4.018  13.892 -1.5916 -1.6659  1.0575
 8366TIP3    H246590   1.945   4.081  14.029  0.0898  0.0306  0.0631
 8367TIP3   OH246591   6.152   3.012   0.970 -0.1142 -0.3332  0.1962
 8367TIP3    H146592   6.154   2.980   1.060 -0.0175  0.7198  0.5767
 8367TIP3    H246593   6.205   2.948   0.921  0.9088 -0.2267  1.1180
 8368TIP3   OH246594   5.414   5.694   1.101 -0.2209 -0.1574  0.2683
 8368TIP3    H146595   5.430   5.787   1.114 -1.1157 -0.0468  0.6034
 8368TIP3    H246596   5.343   5.690   1.037 -0.0566 -0.6126  0.1089
 8369TIP3   OH246597   3.683   4.218  16.858 -0.0170 -0.1745 -0.2111
 8369TIP3    H146598   3.710   4.182  16.773 -1.3098  2.0548 -1.6570
 8369TIP3    H246599   3.765   4.236  16.904  0.8105  0.6113 -1.9114
 8370TIP3   OH246600   1.465   0.928  15.120 -0.0137  0.3045 -0.3886
 8370TIP3    H146601   1.530   0.971  15.175 -1.1879 -0.1654  1.4682
 8370TIP3    H246602   1.458   0.839  15.156 -1.9087  0.4576 -0.2741
 8371TIP3   OH246603   5.068   2.823  11.669 -0.3659 -0.2918  0.0887
 8371TIP3    H146604   5.136   2.760  11.648 -0.1833  0.1199 -0.5700
 8371TIP3    H246605   5.028   2.789  11.749  1.0471 -0.1888  0.8774
 8372TIP3   OH246606   3.632   1.554   4.534  0.2091 -0.1171  0.2739
 8372TIP3    H146607   3.610   1.587   4.621  1.2328 -1.6718  1.1710
 8372TIP3    H246608   3.554   1.506   4.506 -0.5508  1.3434 -0.1964
 8373TIP3   OH246609   0.315   4.211  12.340 -0.1818 -0.1313  0.1253
 8373TIP3    H146610   0.223   4.216  12.314  0.0409 -0.0950 -0.6506
 8373TIP3    H246611   0.316   4.145  12.411 -0.6901 -0.7049 -0.3929
 8374TIP3   OH246612   2.284   1.810  13.635 -0.0405  0.1371 -0.1942
 8374TIP3    H146613   2.258   1.829  13.725  0.2449 -0.3544 -0.0027
 8374TIP3    H246614   2.215   1.848  13.582  0.3188  1.3551  0.1874
 8375TIP3   OH246615   1.612   3.364  14.239 -0.2669 -0.7780 -0.5587
 8375TIP3    H146616   1.581   3.274  14.241 -1.6747 -0.3131 -0.2224
 8375TIP3    H246617   1.554   3.411  14.300 -0.2872  0.5705 -1.5658
 8376TIP3   OH246618   2.324   4.353   5.835 -0.2452  0.0889 -0.2597
 8376TIP3    H146619   2.400   4.406   5.814  0.3651 -0.3190  0.8409
 8376TIP3    H246620   2.360   4.266   5.853 -1.0834 -0.3625 -0.7066
 8377TIP3   OH246621   3.562   5.379   3.151  0.4473 -0.1702  0.1441
 8377TIP3    H146622   3.508   5.433   3.209  2.2129  0.3467  1.3969
 8377TIP3    H246623   3.618   5.329   3.211  1.1887 -0.8452 -1.0880
 8378TIP3   OH246624   1.072   2.810   3.785  0.8658  0.2781 -0.1251
 8378TIP3    H146625   1.101   2.747   3.852 -1.0272  0.6112  1.0809
 8378TIP3    H246626   1.131   2.884   3.795  0.4437  0.4427  1.4246
 8379TIP3   OH246627   1.493   2.056   3.908  0.2251 -0.8114  0.0362
 8379TIP3    H146628   1.542   1.975   3.891 -1.0334 -1.6007  0.0989
 8379TIP3    H246629   1.401   2.030   3.904 -0.1967  0.2596  1.7459
 8380TIP3   OH246630   4.487   4.418   0.129 -0.1532 -0.0487 -0.1898
 8380TIP3    H146631   4.554   4.363   0.088 -1.4410 -1.8211 -0.0195
 8380TIP3    H246632   4.520   4.434   0.218  0.6403  0.2299 -0.5176
 8381TIP3   OH246633   3.430   3.146   6.241  0.3196  0.6004  0.2571
 8381TIP3    H146634   3.383   3.227   6.225 -2.4804 -0.4997  2.2110
 8381TIP3    H246635   3.408   3.121   6.331  1.4567 -2.0761 -0.0802
 8382TIP3   OH246636   1.369   6.660  13.112  0.2334 -0.3934 -0.7421
 8382TIP3    H146637   1.354   6.740  13.061 -1.1671 -0.7478 -0.9281
 8382TIP3    H246638   1.413   6.690  13.191  3.4390  0.0643 -2.5263
 8383TIP3   OH246639   5.977   1.645   6.491  0.0117 -0.3596  0.3394
 8383TIP3    H146640   5.950   1.730   6.525  1.0813 -0.7706  2.4117
 8383TIP3    H246641   6.070   1.656   6.472 -0.1701 -0.6742 -0.7664
 8384TIP3   OH246642   3.920   5.192  11.814 -0.5424 -0.5763  0.4444
 8384TIP3    H146643   3.922   5.287  11.822 -0.3720 -0.4682 -0.7294
 8384TIP3    H246644   3.866   5.163  11.887  0.7597  0.2901  1.8222
 8385TIP3   OH246645   2.653   1.022   2.519  0.1314  0.4724  0.7627
 8385TIP3    H146646   2.577   1.015   2.461  0.4808 -3.1731  0.5357
 8385TIP3    H246647   2.636   1.100   2.571 -2.5591  1.1419 -0.9060
 8386TIP3   OH246648   5.447   2.992   6.632  0.3917  0.0609  0.2730
 8386TIP3    H146649   5.437   3.063   6.568  1.3427  0.0846  0.1439
 8386TIP3    H246650   5.507   3.027   6.697 -0.8181  0.1545  1.3765
 8387TIP3   OH246651   2.542   1.780   0.094  0.0114 -0.1040 -0.5074
 8387TIP3    H146652   2.593   1.782   0.013  0.1324 -1.5695 -0.5024
 8387TIP3    H246653   2.555   1.691   0.127  0.5437  0.6595  1.4904
 8388TIP3   OH246654   0.184   5.065   1.999 -0.1033 -0.2853 -0.4746
 8388TIP3    H146655   0.203   5.109   2.081 -1.6404 -1.7374  0.7202
 8388TIP3    H246656   0.256   5.004   1.987  0.8529  0.8997 -0.9744
 8389TIP3   OH246657   3.256   5.338   4.514  0.5815 -0.0429 -0.4792
 8389TIP3    H146658   3.176   5.293   4.486  0.0378  0.6099 -0.0131
 8389TIP3    H246659   3.295   5.279   4.578 -1.5223  1.2030  2.1825
 8390TIP3   OH246660   4.672   2.062  14.545 -0.3138 -0.2683  0.2645
 8390TIP3    H146661   4.694   1.985  14.598  0.0590 -0.7193 -0.5253
 8390TIP3    H246662   4.756   2.101  14.523 -0.4338 -0.3543 -0.3761
 8391TIP3   OH246663   4.552   6.385  14.719 -0.6814  0.2631  0.2142
 8391TIP3    H146664   4.472   6.407  14.766 -0.7893 -1.4123  0.8738
 8391TIP3    H246665   4.524   6.326  14.649 -0.2285  1.0001 -0.6037
 8392TIP3   OH246666   1.085   5.906   3.065  0.0148  0.4285  0.0318
 8392TIP3    H146667   1.108   5.932   2.976 -0.3520  1.1163  0.1369
 8392TIP3    H246668   1.076   5.810   3.060 -0.6614  0.5252 -0.8201
 8393TIP3   OH246669   6.698   5.086  15.319  0.6250  0.4426 -0.5607
 8393TIP3    H146670   6.703   5.072  15.414  0.9457  4.3351  0.1458
 8393TIP3    H246671   6.655   5.007  15.286  0.0231 -0.8444  2.8413
 8394TIP3   OH246672   2.092   6.429  16.529  0.1622  0.0100  0.5383
 8394TIP3    H146673   2.182   6.395  16.534 -0.5102 -2.2044 -1.1896
 8394TIP3    H246674   2.054   6.386  16.453 -1.6816  2.6989 -0.1851
 8395TIP3   OH246675   3.404   6.365  13.315  0.2228  0.3520 -0.2875
 8395TIP3    H146676   3.330   6.405  13.269 -0.0095 -0.4483 -0.6321
 8395TIP3    H246677   3.423   6.286  13.264 -0.0990 -0.6166  1.0420
 8396TIP3   OH246678   6.734   3.406  15.359  0.5166  0.7242 -0.1854
 8396TIP3    H146679   6.709   3.485  15.310 -0.2045  0.5529 -0.1171
 8396TIP3    H246680   6.810   3.432  15.410  0.1733  1.4351 -0.0203
 8397TIP3   OH246681   6.483   5.837  15.623 -0.0362 -0.0336  0.3112
 8397TIP3    H146682   6.434   5.889  15.559  1.3010 -0.1777 -0.8897
 8397TIP3    H246683   6.516   5.901  15.686  1.0028  0.5240 -0.7615
 8398TIP3   OH246684   1.224   5.198   6.390  0.6539 -0.0703  0.5454
 8398TIP3    H146685   1.226   5.189   6.485  0.9208  0.5476  0.6050
 8398TIP3    H246686   1.314   5.179   6.362  1.0130  1.4581  0.5937
 8399TIP3   OH246687   6.417   6.808  12.230 -0.1960  0.1642  0.8718
 8399TIP3    H146688   6.503   6.829  12.265  1.0680 -0.4309 -1.6061
 8399TIP3    H246689   6.402   6.874  12.162 -0.9117 -0.6992  0.1556
 8400TIP3   OH246690   2.471   3.176   5.456  0.0697 -0.2263  0.2185
 8400TIP3    H146691   2.473   3.091   5.412  1.6837 -0.6787  1.1249
 8400TIP3    H246692   2.429   3.158   5.540  2.4596 -0.6791  1.4032
 8401TIP3   OH246693   6.413   2.112   0.764  0.3083  0.5951 -0.0243
 8401TIP3    H146694   6.453   2.138   0.847  1.0176 -0.4854 -0.0043
 8401TIP3    H246695   6.455   2.029   0.742 -1.1199 -0.0285 -0.5747
 8402TIP3   OH246696   4.695   4.467   5.434 -0.1431  0.3978 -0.1987
 8402TIP3    H146697   4.635   4.412   5.483 -0.1632 -0.3251 -1.0111
 8402TIP3    H246698   4.768   4.409   5.412 -0.5317  0.4634 -1.7401
 8403TIP3   OH246699   0.794   4.085   2.372 -0.5841 -0.0144 -0.3995
 8403TIP3    H146700   0.736   4.148   2.327  0.5062  1.6602  0.4414
 8403TIP3    H246701   0.752   4.000   2.359 -2.0200  0.8534 -1.7525
 8404TIP3   OH246702   2.724   5.559   2.495 -0.1070  0.3205  0.3325
 8404TIP3    H146703   2.699   5.581   2.406 -1.7927 -0.0363  0.6683
 8404TIP3    H246704   2.663   5.608   2.550 -0.0557 -0.5820  1.2374
 8405TIP3   OH246705   6.816   5.351   3.585 -0.4543 -0.0723  0.0494
 8405TIP3    H146706   6.762   5.428   3.570 -0.4257  0.0585  0.5782
 8405TIP3    H246707   6.754   5.280   3.601 -0.5007 -0.3741 -1.3547
 8406TIP3   OH246708   5.846   4.551  16.012 -0.6676 -0.5580  0.5958
 8406TIP3    H146709   5.760   4.532  16.048 -0.5706 -2.2669  0.0000
 8406TIP3    H246710   5.830   4.615  15.942 -1.5615 -1.4059 -0.0011
 8407TIP3   OH246711   2.936   2.127   3.044  0.3152  0.4433 -0.5598
 8407TIP3    H146712   2.940   2.151   2.952  1.2346 -1.1109 -0.9679
 8407TIP3    H246713   2.987   2.046   3.050  0.0049  0.3320  1.2564
 8408TIP3   OH246714   2.097   4.806  12.678  0.3309  0.1618 -0.6242
 8408TIP3    H146715   2.029   4.803  12.746  0.6959 -0.3637 -0.2783
 8408TIP3    H246716   2.151   4.881  12.702  0.9864 -0.5428  0.1939
 8409TIP3   OH246717   1.951   5.353  11.563  0.1157  0.5814 -0.4588
 8409TIP3    H146718   1.998   5.340  11.481  0.0790  1.3673 -0.6118
 8409TIP3    H246719   1.859   5.360  11.538  0.1178  0.9442 -0.3623
 8410TIP3   OH246720   3.538   0.185  14.301  0.4685 -0.2774  0.0065
 8410TIP3    H146721   3.485   0.151  14.373 -0.5916 -0.5639 -0.8743
 8410TIP3    H246722   3.625   0.149  14.315  0.2915 -0.2857  1.1658
 8411TIP3   OH246723   3.805   0.346   5.569  0.3307  0.4482  0.2738
 8411TIP3    H146724   3.709   0.346   5.567  0.3011  0.1191  1.1224
 8411TIP3    H246725   3.827   0.417   5.630  0.6031  0.0906  0.5974
 8412TIP3   OH246726   4.064   3.855  15.097 -0.1549 -0.4718 -0.6618
 8412TIP3    H146727   4.062   3.949  15.079  1.0699 -0.2928  0.0316
 8412TIP3    H246728   3.972   3.833  15.115 -0.5341  0.4816 -1.2891
 8413TIP3   OH246729   5.812   3.567   2.133 -0.1605 -0.3238 -0.3881
 8413TIP3    H146730   5.874   3.500   2.103  0.4874 -0.7435  1.7302
 8413TIP3    H246731   5.756   3.521   2.196 -2.2521  0.2213 -1.7179
 8414TIP3   OH246732   0.161   2.877   1.529 -0.4135 -0.1664  0.5603
 8414TIP3    H146733   0.096   2.879   1.599 -0.3758 -1.3449  0.6428
 8414TIP3    H246734   0.237   2.835   1.569 -0.5267 -1.2129 -0.2869
 8415TIP3   OH246735   2.619   4.112  11.509 -0.3933 -0.4020 -0.4855
 8415TIP3    H146736   2.662   4.034  11.475 -0.5595 -1.0915  0.8292
 8415TIP3    H246737   2.542   4.079  11.556  0.5844  0.3379  1.7621
 8416TIP3   OH246738   3.984   1.966  16.394  0.1833  0.2642  0.2717
 8416TIP3    H146739   3.975   1.943  16.487 -0.0905  0.4023  0.2779
 8416TIP3    H246740   3.923   1.908  16.349 -1.7265  2.0536  0.4361
 8417TIP3   OH246741   2.910   3.220  13.802  0.0293  0.0646 -0.1695
 8417TIP3    H146742   2.875   3.309  13.794 -0.8330 -0.2505 -0.0416
 8417TIP3    H246743   2.856   3.168  13.743  0.1995 -0.4647  0.1334
 8418TIP3   OH246744   0.787   4.520  14.957 -0.2894 -0.7151  0.2188
 8418TIP3    H146745   0.793   4.546  15.049 -0.1492 -1.0423  0.3017
 8418TIP3    H246746   0.811   4.428  14.956 -0.1113 -0.6665 -0.1720
 8419TIP3   OH246747   3.504   1.206   5.779 -0.6661 -0.1677  0.3514
 8419TIP3    H146748   3.465   1.242   5.858 -1.6425 -0.9603  0.2609
 8419TIP3    H246749   3.566   1.140   5.810  0.3370  0.8223  0.4878
 8420TIP3   OH246750   5.236   1.702   4.372  0.1899  0.0856  0.0464
 8420TIP3    H146751   5.253   1.610   4.350  1.2160  0.6381 -1.6762
 8420TIP3    H246752   5.305   1.725   4.434 -1.5869 -0.9514  2.5834
 8421TIP3   OH246753   5.904   3.267  14.533 -0.1027 -0.2483 -0.2095
 8421TIP3    H146754   5.819   3.311  14.527 -0.8717 -1.5668  0.5914
 8421TIP3    H246755   5.962   3.320  14.479 -1.2796  1.0458 -0.2564
 8422TIP3   OH246756   6.149   2.255  16.697 -0.0205 -0.0097  0.1961
 8422TIP3    H146757   6.207   2.323  16.662 -0.2968  0.9717  1.5753
 8422TIP3    H246758   6.159   2.262  16.792 -1.6644 -0.4782  0.4302
 8423TIP3   OH246759   0.928   2.564   2.194 -0.1699 -0.6291 -0.3221
 8423TIP3    H146760   0.919   2.564   2.289  0.8313  0.5526 -0.2083
 8423TIP3    H246761   0.924   2.471   2.170 -0.0467 -0.9714  0.9007
 8424TIP3   OH246762   3.513   2.213   2.701  0.1121  0.0887  0.2563
 8424TIP3    H146763   3.468   2.282   2.652 -0.4133  0.2213  0.9039
 8424TIP3    H246764   3.543   2.257   2.781 -0.4751 -0.4894  0.8094
 8425TIP3   OH246765   3.342   5.505  16.506  0.0932 -0.9276  0.2493
 8425TIP3    H146766   3.318   5.484  16.596  0.4769 -1.2761  0.2748
 8425TIP3    H246767   3.346   5.600  16.503 -3.0000 -0.7049 -0.1958
 8426TIP3   OH246768   0.542   2.889  16.709 -0.2717  0.0043 -0.3487
 8426TIP3    H146769   0.610   2.904  16.643 -1.3816  0.5173 -1.4189
 8426TIP3    H246770   0.527   2.794  16.707 -1.1550  0.1443 -1.7627
 8427TIP3   OH246771   0.074   4.595  12.691  0.2811  0.4182  0.7115
 8427TIP3    H146772   0.169   4.597  12.692  0.2801  0.5052  0.6829
 8427TIP3    H246773   0.051   4.519  12.638  0.3346  0.5210  0.5405
 8428TIP3   OH246774   0.581   3.163   4.158  0.8654 -0.0792 -0.3837
 8428TIP3    H146775   0.571   3.071   4.134  0.9538  0.4177 -2.4521
 8428TIP3    H246776   0.492   3.191   4.182  0.5488 -0.3033 -1.2664
 8429TIP3   OH246777   5.051   2.811  14.330  0.6772  0.7239 -0.4307
 8429TIP3    H146778   5.127   2.869  14.332  0.4416  1.2639 -3.2716
 8429TIP3    H246779   5.073   2.745  14.264  0.0403 -1.2079  1.1811
 8430TIP3   OH246780   0.291   5.603   5.441  0.3504 -0.1680 -0.0907
 8430TIP3    H146781   0.345   5.609   5.520 -0.4559  0.9311  0.3994
 8430TIP3    H246782   0.215   5.657   5.460 -0.8808 -1.5668 -0.8196
 8431TIP3   OH246783   6.402   3.224  11.304  0.4296 -0.9661  0.5072
 8431TIP3    H146784   6.456   3.199  11.379 -0.9692 -1.3457  1.4328
 8431TIP3    H246785   6.325   3.168  11.311  0.0320 -0.6287 -0.9322
 8432TIP3   OH246786   0.714   6.006  16.353  0.2818  0.0020  0.1528
 8432TIP3    H146787   0.665   5.937  16.309  1.8068 -1.5898  0.8627
 8432TIP3    H246788   0.686   6.000  16.445  1.3466 -0.5234  0.4514
 8433TIP3   OH246789   3.988   3.522  14.174  0.6092  0.6383 -0.0944
 8433TIP3    H146790   3.921   3.561  14.229 -1.6575 -0.9609 -1.5447
 8433TIP3    H246791   4.022   3.449  14.225 -0.9908 -0.4185 -0.4768
 8434TIP3   OH246792   0.821   1.345   0.261  0.3690  0.0767  0.2479
 8434TIP3    H146793   0.911   1.375   0.273  0.5837 -0.3575 -0.2382
 8434TIP3    H246794   0.790   1.393   0.184  0.0318  0.5488  0.6666
 8435TIP3   OH246795   0.976   0.497  16.496  0.1602 -0.1464 -0.0724
 8435TIP3    H146796   1.042   0.504  16.427  0.1830  0.3405 -0.0069
 8435TIP3    H246797   0.914   0.432  16.464  1.6003 -1.9565  0.6488
 8436TIP3   OH246798   0.859   5.075  14.873 -0.4862  0.4815 -0.1812
 8436TIP3    H146799   0.795   5.143  14.893 -1.8954 -1.0605  0.8818
 8436TIP3    H246800   0.895   5.049  14.957  1.7536  1.4224 -0.7747
 8437TIP3   OH246801   2.364   2.094  16.499  0.8382 -0.1417 -0.4763
 8437TIP3    H146802   2.272   2.069  16.506  1.0531 -0.6407  0.8866
 8437TIP3    H246803   2.375   2.121  16.408 -2.0117  5.3612  0.4071
 8438TIP3   OH246804   4.074   2.046   4.664  0.0320 -0.4944 -0.2393
 8438TIP3    H146805   4.105   2.049   4.754 -0.3826 -0.6799 -0.0878
 8438TIP3    H246806   4.107   2.126   4.624  0.6487 -0.6548 -0.0640
 8439TIP3   OH246807   5.951   6.078  15.694 -0.1941  1.0595 -0.8441
 8439TIP3    H146808   5.866   6.095  15.734  0.5722  0.1712  1.2787
 8439TIP3    H246809   6.007   6.149  15.724  0.2800  0.6439 -0.7313
 8440TIP3   OH246810   0.423   1.869  13.470 -0.0529  0.1485 -0.5118
 8440TIP3    H146811   0.487   1.807  13.503  1.3107  0.8342 -1.7459
 8440TIP3    H246812   0.390   1.914  13.548  1.0461 -0.1636  0.1444
 8441TIP3   OH246813   4.696   5.824  12.117  0.3527 -0.2979 -0.2916
 8441TIP3    H146814   4.695   5.913  12.152 -0.8196 -0.7684  0.9685
 8441TIP3    H246815   4.645   5.773  12.180 -2.7424 -1.0648 -3.1091
 8442TIP3   OH246816   5.210   4.452   1.204  0.2721 -0.0309  0.2331
 8442TIP3    H146817   5.216   4.547   1.192  1.0814  0.0975  1.5248
 8442TIP3    H246818   5.286   4.429   1.257 -0.8131 -1.1590  1.3755
 8443TIP3   OH246819   3.340   6.288  15.075 -0.1666  0.3111  0.5220
 8443TIP3    H146820   3.424   6.244  15.087 -0.0017  0.5967  0.4285
 8443TIP3    H246821   3.290   6.229  15.019  0.1342  0.3408  0.2172
 8444TIP3   OH246822   2.719   2.045   0.366 -0.4021 -0.3637  0.0366
 8444TIP3    H146823   2.782   1.982   0.330 -0.4108 -0.6317  0.4752
 8444TIP3    H246824   2.758   2.131   0.348  0.0278 -0.5250  0.1918
 8445TIP3   OH246825   5.281   0.728  16.077 -0.0070  0.0668 -0.0866
 8445TIP3    H146826   5.365   0.706  16.116  0.1122  0.3522 -0.1792
 8445TIP3    H246827   5.290   0.705  15.984 -0.0706 -0.0145 -0.0725
 8446TIP3   OH246828   6.511   4.222   5.735 -0.3885 -0.4991 -0.1613
 8446TIP3    H146829   6.500   4.160   5.663  0.0156 -1.5052  0.6107
 8446TIP3    H246830   6.445   4.195   5.799 -0.7251  0.3675 -0.1353
 8447TIP3   OH246831   5.185   6.569  12.993  0.0607  0.3333  0.0745
 8447TIP3    H146832   5.211   6.660  12.979 -1.6148  0.9893  0.8530
 8447TIP3    H246833   5.239   6.540  13.067  0.3216  0.8325  0.0862
 8448TIP3   OH246834   1.523   0.948  15.408 -0.5301 -0.5779  0.0130
 8448TIP3    H146835   1.455   0.896  15.451  0.8658 -1.2133  1.5831
 8448TIP3    H246836   1.533   1.025  15.464  0.8893 -1.1036  0.5176
 8449TIP3   OH246837   3.678   3.668   0.407 -0.4851 -0.2792 -0.2721
 8449TIP3    H146838   3.589   3.700   0.394  0.0438  1.0691 -0.8232
 8449TIP3    H246839   3.715   3.664   0.319  0.2520  0.0079  0.0127
 8450TIP3   OH246840   1.873   2.920   2.769  1.1315 -0.6754  0.2574
 8450TIP3    H146841   1.782   2.948   2.763  1.1674 -0.7362 -0.8224
 8450TIP3    H246842   1.889   2.910   2.863  0.0284 -0.6771  0.4601
 8451TIP3   OH246843   1.779   1.971  15.690  0.3589  0.7127  0.3049
 8451TIP3    H146844   1.810   2.001  15.776  2.2377 -0.6720  0.1614
 8451TIP3    H246845   1.737   1.887  15.708  0.2307  0.7038 -0.0405
 8452TIP3   OH246846   5.881   1.526   3.252 -0.3154  0.3922  0.9240
 8452TIP3    H146847   5.894   1.566   3.338 -0.7729  0.0349  1.1681
 8452TIP3    H246848   5.969   1.518   3.215 -0.0345 -0.1486  1.6852
 8453TIP3   OH246849   2.064   4.322   3.290 -0.5327 -0.3451  0.3550
 8453TIP3    H146850   2.112   4.261   3.234 -0.5437  0.0955 -0.1419
 8453TIP3    H246851   2.012   4.374   3.229 -0.4056  0.2651  0.7648
 8454TIP3   OH246852   4.138   5.882   0.179  0.0818 -0.1230 -0.6670
 8454TIP3    H146853   4.126   5.921   0.092  1.2137 -0.1747 -0.8605
 8454TIP3    H246854   4.220   5.920   0.211 -0.8878  0.7842  0.8757
 8455TIP3   OH246855   4.655   0.191   2.158  0.5128 -0.4170 -0.0573
 8455TIP3    H146856   4.646   0.286   2.145  2.4440 -0.2216 -0.2751
 8455TIP3    H246857   4.605   0.152   2.086 -1.3198  0.3693  0.7191
 8456TIP3   OH246858   6.350   1.214  14.162  0.0122  0.1075 -0.5977
 8456TIP3    H146859   6.333   1.274  14.235 -0.7319 -0.5211 -0.2335
 8456TIP3    H246860   6.370   1.270  14.088  0.0436  0.7832 -0.0866
 8457TIP3   OH246861   3.755   1.191   1.828  0.8456 -0.0518  0.3208
 8457TIP3    H146862   3.780   1.259   1.891  1.6831 -1.2957  1.3793
 8457TIP3    H246863   3.722   1.119   1.881 -3.0998  0.5810 -0.8747
 8458TIP3   OH246864   0.995   2.492   5.091  0.3816 -0.1257 -0.0168
 8458TIP3    H146865   0.950   2.408   5.081  0.0880  0.0309 -0.0093
 8458TIP3    H246866   0.933   2.547   5.140 -0.8013  1.1549 -2.7261
 8459TIP3   OH246867   0.598   0.137  13.961 -0.5909  0.5353  0.2363
 8459TIP3    H146868   0.631   0.051  13.988 -0.6752  0.1288 -0.9077
 8459TIP3    H246869   0.652   0.200  14.010  1.3780 -0.1255 -0.9485
 8460TIP3   OH246870   5.120   6.406   3.187  0.6446  0.2455  0.0398
 8460TIP3    H146871   5.160   6.398   3.273  1.2498 -1.5810 -0.3810
 8460TIP3    H246872   5.180   6.461   3.137  0.4180  1.0955  0.6836
 8461TIP3   OH246873   3.181   6.395  14.151  0.0721  0.5981 -0.4646
 8461TIP3    H146874   3.264   6.435  14.176  0.0554 -0.0265  0.6234
 8461TIP3    H246875   3.120   6.419  14.221  0.0045 -1.1014  0.1098
 8462TIP3   OH246876   4.907   1.281  11.472 -0.2412  0.7905 -0.2319
 8462TIP3    H146877   4.919   1.303  11.565 -0.9360  0.1902  0.0095
 8462TIP3    H246878   4.845   1.346  11.440 -1.8639 -0.4099  0.3421
 8463TIP3   OH246879   6.713   1.502  16.489 -0.6751  0.9091  0.5063
 8463TIP3    H146880   6.691   1.499  16.396  0.1118  0.3182  0.3246
 8463TIP3    H246881   6.630   1.489  16.534 -0.6979 -1.9049 -0.1630
 8464TIP3   OH246882   6.435   1.453  16.604 -0.1832  0.1119  0.0285
 8464TIP3    H146883   6.388   1.536  16.601 -1.9536 -0.8756 -1.0715
 8464TIP3    H246884   6.385   1.399  16.666  1.0882 -0.0720  0.9297
 8465TIP3   OH246885   6.489   5.438  16.104  0.4390  0.4178 -0.3986
 8465TIP3    H146886   6.490   5.530  16.076 -0.5993  0.3890 -0.5949
 8465TIP3    H246887   6.459   5.441  16.195  0.5530  0.2808 -0.3567
 8466TIP3   OH246888   4.944   5.080  15.920 -0.3896 -0.1727  0.1971
 8466TIP3    H146889   4.950   4.994  15.878 -0.4966 -0.6834  1.1902
 8466TIP3    H246890   4.851   5.088  15.943 -0.7516  1.0154 -1.4982
 8467TIP3   OH246891   1.113   1.407  14.777 -0.4526  0.1670  0.3338
 8467TIP3    H146892   1.065   1.328  14.754 -0.6169 -0.2184  1.9084
 8467TIP3    H246893   1.182   1.414  14.710 -1.4670 -0.3527 -0.8032
 8468TIP3   OH246894   5.892   0.927  16.285  0.0194 -0.6386  0.3690
 8468TIP3    H146895   5.913   0.841  16.250  1.0272 -1.2307  2.2673
 8468TIP3    H246896   5.876   0.982  16.208  1.1350 -2.0772 -0.9319
 8469TIP3   OH246897   2.124   4.946   0.152  0.0622 -0.5169  0.2063
 8469TIP3    H146898   2.213   4.914   0.168 -0.3032 -1.6096  0.1157
 8469TIP3    H246899   2.086   4.955   0.239  0.2189 -0.1246  0.2407
 8470TIP3   OH246900   4.034   5.558   0.445 -0.2364 -0.3493  0.2324
 8470TIP3    H146901   4.023   5.507   0.525  1.1472  0.7422  1.1723
 8470TIP3    H246902   4.118   5.531   0.410  1.2438  2.1996  1.5403
 8471TIP3   OH246903   2.881   1.095  14.786  0.2914 -0.2296  0.7139
 8471TIP3    H146904   2.888   1.074  14.693  0.0767  1.3141  0.3179
 8471TIP3    H246905   2.851   1.014  14.827 -0.2645 -0.7496 -0.6539
 8472TIP3   OH246906   2.312   4.555  11.094 -0.4949 -0.1634 -0.1926
 8472TIP3    H146907   2.299   4.512  11.009 -0.7584  3.2399 -2.0659
 8472TIP3    H246908   2.225   4.558  11.133 -1.2426  1.7890 -1.8040
 8473TIP3   OH246909   3.058   0.364  15.563 -0.1286 -0.1775  0.2146
 8473TIP3    H146910   3.071   0.405  15.649  1.3005  1.1219 -0.5513
 8473TIP3    H246911   3.147   0.354  15.528 -0.7197  0.3188 -1.5326
 8474TIP3   OH246912   2.930   3.566  10.769 -0.2087  0.5784  0.5859
 8474TIP3    H146913   3.019   3.572  10.805  0.0064  0.0802  0.1540
 8474TIP3    H246914   2.906   3.657  10.751  0.5858  0.6499 -0.1668
 8475TIP3   OH246915   6.557   1.177   4.178  0.4992  0.5007  0.1568
 8475TIP3    H146916   6.542   1.138   4.092  0.0013 -0.0060  0.4657
 8475TIP3    H246917   6.493   1.134   4.235 -0.8698  2.5891  0.2757
 8476TIP3   OH246918   3.911   0.516   5.740  0.5176 -0.2087  0.1148
 8476TIP3    H146919   3.817   0.522   5.760  0.1869  1.8130 -1.7370
 8476TIP3    H246920   3.951   0.585   5.793  0.6617  0.2793 -0.6231
 8477TIP3   OH246921   2.340   3.225  13.116  0.1956  0.3839  0.0026
 8477TIP3    H146922   2.369   3.245  13.027  0.7543 -1.3346 -0.2374
 8477TIP3    H246923   2.249   3.256  13.118  0.2809  0.7565 -1.0532
 8478TIP3   OH246924   1.260   0.748  12.908  0.4995 -0.2151 -0.8090
 8478TIP3    H146925   1.181   0.706  12.874  0.7955 -0.7568 -0.8570
 8478TIP3    H246926   1.254   0.738  13.003  0.4472 -0.1379 -0.8047
 8479TIP3   OH246927   1.509   4.668   3.462  0.2114  0.2203 -0.1015
 8479TIP3    H146928   1.524   4.606   3.390 -0.1169  0.1873 -0.1454
 8479TIP3    H246929   1.541   4.623   3.540 -0.8973 -0.4092  0.0153
 8480TIP3   OH246930   6.587   1.003   0.072 -0.1628 -0.3467 -0.0214
 8480TIP3    H146931   6.524   0.979   0.140  0.1513 -2.1178 -0.2981
 8480TIP3    H246932   6.627   1.084   0.103 -1.5092  0.0057  0.8731
 8481TIP3   OH246933   4.735   0.177  15.814 -0.0980  0.1631  1.2221
 8481TIP3    H146934   4.793   0.130  15.754 -1.0652  1.1437 -0.5583
 8481TIP3    H246935   4.764   0.150  15.901  1.9310 -0.6330  0.3586
 8482TIP3   OH246936   6.690   4.247  11.222 -0.0926 -0.2573  0.9691
 8482TIP3    H146937   6.770   4.275  11.267  1.5774 -1.6688 -0.9165
 8482TIP3    H246938   6.645   4.192  11.286  1.6109 -1.2556  1.3860
 8483TIP3   OH246939   2.819   3.449  13.661  0.3117 -0.2920  0.4762
 8483TIP3    H146940   2.789   3.399  13.586  1.8807 -0.3289 -0.1521
 8483TIP3    H246941   2.776   3.534  13.653  3.9626  1.5362 -3.2374
 8484TIP3   OH246942   5.752   0.622  15.944 -0.0677 -0.5161 -0.1283
 8484TIP3    H146943   5.823   0.683  15.924 -0.1947 -0.6443 -1.0194
 8484TIP3    H246944   5.739   0.573  15.863  0.7556 -2.5032  0.8821
 8485TIP3   OH246945   3.578   2.728   3.341  0.7291 -0.8065 -0.1244
 8485TIP3    H146946   3.599   2.732   3.435  0.6309  1.1053 -0.1382
 8485TIP3    H246947   3.655   2.686   3.302  1.2701 -0.6255  0.6995
 8486TIP3   OH246948   2.631   5.096  14.533  0.3566 -0.1082  0.0777
 8486TIP3    H146949   2.583   5.039  14.592  1.5605 -0.6768  0.5469
 8486TIP3    H246950   2.721   5.063  14.535  0.5616  0.2435 -1.5912
 8487TIP3   OH246951   4.442   5.375   1.793 -0.4653 -0.1445  0.2106
 8487TIP3    H146952   4.513   5.428   1.758 -1.5105  0.4498 -1.0968
 8487TIP3    H246953   4.406   5.428   1.864  0.5359 -0.5683  1.0612
 8488TIP3   OH246954   4.225   0.569   3.094 -0.3207  0.2803  0.3872
 8488TIP3    H146955   4.191   0.631   3.030 -0.4312  0.2394  0.4069
 8488TIP3    H246956   4.190   0.484   3.066 -0.3772  0.2639  0.5090
 8489TIP3   OH246957   2.092   3.241   1.788 -0.4282 -0.2076 -0.1346
 8489TIP3    H146958   2.066   3.162   1.834 -0.6175 -0.4238 -0.6041
 8489TIP3    H246959   2.067   3.225   1.697  2.5276 -0.9946 -0.9326
 8490TIP3   OH246960   3.771   2.152   0.527 -0.7777 -0.5190  0.0048
 8490TIP3    H146961   3.736   2.070   0.563 -1.7271  0.6068  1.7582
 8490TIP3    H246962   3.865   2.147   0.543 -0.7364 -1.5481 -0.5059
 8491TIP3   OH246963   4.257   4.111  11.659 -0.2557  0.4303 -0.2314
 8491TIP3    H146964   4.335   4.075  11.618 -0.1623  1.4846 -1.0374
 8491TIP3    H246965   4.270   4.206  11.656 -0.8572  0.5715  1.0690
 8492TIP3   OH246966   5.193   2.904  11.052 -0.3209 -0.6797 -0.6105
 8492TIP3    H146967   5.210   2.996  11.073  2.5109 -1.1500 -0.4363
 8492TIP3    H246968   5.111   2.905  11.003 -0.5127  1.8824 -0.3659
 8493TIP3   OH246969   4.698   6.287  14.189  0.2996  0.0643 -0.9230
 8493TIP3    H146970   4.726   6.195  14.193 -0.5733 -0.2264 -1.1384
 8493TIP3    H246971   4.698   6.308  14.095 -1.8103 -0.4935 -1.1075
 8494TIP3   OH246972   0.347   2.830   1.928 -0.1813 -0.4994 -0.3306
 8494TIP3    H146973   0.380   2.776   1.857 -0.2829 -1.6888  0.5030
 8494TIP3    H246974   0.317   2.911   1.885  0.8867 -0.6866 -1.4677
 8495TIP3   OH246975   3.870   1.519   6.406 -0.0964  0.6452 -0.2237
 8495TIP3    H146976   3.949   1.476   6.373 -1.3723 -2.5001  0.4178
 8495TIP3    H246977   3.902   1.582   6.471  1.9118 -0.1417 -0.3749
 8496TIP3   OH246978   6.334   3.685  14.695  0.6205 -0.5123 -0.2208
 8496TIP3    H146979   6.267   3.747  14.666  0.1412 -0.1958  1.4416
 8496TIP3    H246980   6.291   3.599  14.691 -0.2046 -0.2283  1.5773
 8497TIP3   OH246981   1.581   4.173  15.243  0.6197  0.2242  0.4692
 8497TIP3    H146982   1.571   4.241  15.310 -1.9899 -0.7048  1.1464
 8497TIP3    H246983   1.491   4.156  15.213  1.3404 -1.9658 -0.6430
 8498TIP3   OH246984   5.918   4.911  14.726  0.0497  0.4799 -0.1747
 8498TIP3    H146985   5.935   4.992  14.677 -0.4509  1.2791  0.9222
 8498TIP3    H246986   6.002   4.890  14.766  0.3632  0.0404 -1.0410
 8499TIP3   OH246987   4.121   3.522  15.267 -0.3196 -0.2962 -0.0022
 8499TIP3    H146988   4.116   3.550  15.175  0.3284  0.3352  0.1460
 8499TIP3    H246989   4.133   3.603  15.316 -0.6636 -0.6309  0.6526
 8500TIP3   OH246990   5.919   0.097   3.230  0.2987 -0.0138  0.2879
 8500TIP3    H146991   5.985   0.070   3.166 -0.6596 -0.3641 -0.5698
 8500TIP3    H246992   5.967   0.100   3.313  1.1812 -1.2689 -0.1385
 8501TIP3   OH246993   4.201   0.922   5.169 -0.2028 -0.2013 -0.5756
 8501TIP3    H146994   4.247   0.913   5.086 -1.7926 -0.5634 -1.4495
 8501TIP3    H246995   4.244   0.861   5.228  0.3028 -0.6791 -1.4278
 8502TIP3   OH246996   3.850   0.421   3.596 -0.3985 -0.2920  0.1358
 8502TIP3    H146997   3.804   0.387   3.672  0.8223 -0.1252  0.9810
 8502TIP3    H246998   3.892   0.344   3.557  1.9355  0.0716  1.7484
 8503TIP3   OH246999   5.758   1.421  13.512  0.9957 -0.1676 -0.9859
 8503TIP3    H147000   5.824   1.422  13.443  1.8708 -0.6846 -0.1712
 8503TIP3    H247001   5.717   1.335  13.506  0.3830  0.1500 -1.4869
 8504TIP3   OH247002   3.462   1.962  13.696 -0.2013 -1.3424  0.5306
 8504TIP3    H147003   3.372   1.940  13.672 -0.8894  1.7667 -0.1499
 8504TIP3    H247004   3.455   1.997  13.785 -0.4510  2.3400 -0.7512
 8505TIP3   OH247005   3.076   3.693   6.060  0.1498  0.5764 -0.0825
 8505TIP3    H147006   3.158   3.731   6.029  0.5368  0.3497  0.6415
 8505TIP3    H247007   3.059   3.736   6.144 -0.4162  0.5363 -0.1670
 8506TIP3   OH247008   2.412   5.975  16.349  0.0418 -0.5414 -0.4296
 8506TIP3    H147009   2.456   5.936  16.273 -0.1268 -1.5685 -0.0232
 8506TIP3    H247010   2.448   6.063  16.356  1.7873 -1.2388 -0.3055
 8507TIP3   OH247011   1.796   5.923   0.768 -0.3363 -0.0820  0.4195
 8507TIP3    H147012   1.846   5.886   0.840 -0.5619 -0.3465  0.4415
 8507TIP3    H247013   1.716   5.870   0.764  0.9336 -2.0062 -1.9145
 8508TIP3   OH247014   0.712   4.560  13.950 -0.2339 -0.4145 -0.0507
 8508TIP3    H147015   0.756   4.627  14.002 -0.7844 -0.3211  0.2968
 8508TIP3    H247016   0.622   4.559  13.982 -0.2463 -1.2994 -0.0720
 8509TIP3   OH247017   5.852   2.267  12.495 -0.1369  0.3414 -0.0718
 8509TIP3    H147018   5.889   2.279  12.407 -1.1307 -0.2098 -0.5843
 8509TIP3    H247019   5.772   2.217  12.480 -0.0767 -0.1647  1.2000
 8510TIP3   OH247020   3.046   4.673  16.288 -0.1618 -0.9046  0.0173
 8510TIP3    H147021   2.984   4.679  16.360  0.4627 -1.7982  0.6461
 8510TIP3    H247022   3.130   4.701  16.325 -0.4142  1.7841 -1.2104
 8511TIP3   OH247023   4.306   0.061   5.348  0.0179  0.4679  0.1305
 8511TIP3    H147024   4.300  -0.034   5.358  0.6811  0.3661 -0.3684
 8511TIP3    H247025   4.377   0.074   5.285 -1.4243  1.2022 -1.4237
 8512TIP3   OH247026   1.905   1.782  12.482  0.1330 -0.1047  0.6500
 8512TIP3    H147027   1.940   1.840  12.550 -0.0440  1.2446 -0.3765
 8512TIP3    H247028   1.941   1.816  12.400 -0.3800 -1.1473 -0.0258
 8513TIP3   OH247029   4.539   4.812   4.405 -0.1660  0.4296 -0.4854
 8513TIP3    H147030   4.497   4.833   4.322 -2.0802 -0.6620  0.1331
 8513TIP3    H247031   4.524   4.889   4.460 -1.3525  0.1025 -0.3107
 8514TIP3   OH247032   4.485   2.247  15.582  0.5894 -0.0559 -0.0076
 8514TIP3    H147033   4.508   2.159  15.612  1.7723 -0.0040 -0.7152
 8514TIP3    H247034   4.536   2.259  15.502 -0.3674  0.8825 -0.4957
 8515TIP3   OH247035   2.545   5.303   5.679 -0.1911  0.0040  0.7252
 8515TIP3    H147036   2.499   5.375   5.722  0.0828 -0.5197  1.9369
 8515TIP3    H247037   2.475   5.248   5.644 -0.3993  1.4176 -1.2641
 8516TIP3   OH247038   6.505   6.116  10.434  0.4219  0.6908 -0.2287
 8516TIP3    H147039   6.424   6.066  10.445  0.3138  0.3178 -2.2553
 8516TIP3    H247040   6.479   6.207  10.451  0.3774  0.2664  2.3982
 8517TIP3   OH247041   6.646   2.663   5.386 -0.2489  0.0999 -0.3416
 8517TIP3    H147042   6.585   2.595   5.416  0.4826 -1.3061 -1.8795
 8517TIP3    H247043   6.691   2.691   5.465 -1.1890 -0.5702  0.4651
 8518TIP3   OH247044   2.420   6.077   4.329  0.2852 -0.3626  0.0015
 8518TIP3    H147045   2.402   5.993   4.371  0.2432 -1.4828 -2.0768
 8518TIP3    H247046   2.334   6.110   4.304  0.4070 -0.7167 -0.9434
 8519TIP3   OH247047   5.784   6.061  14.451 -0.3088 -0.6236 -0.3895
 8519TIP3    H147048   5.716   6.116  14.489 -0.9452 -0.3253 -1.8747
 8519TIP3    H247049   5.780   6.080  14.357  1.5151 -0.9584 -0.5644
 8520TIP3   OH247050   0.237   2.876  12.871  0.4012 -0.3230  0.0766
 8520TIP3    H147051   0.273   2.963  12.851 -1.3315  0.3333 -0.4138
 8520TIP3    H247052   0.265   2.859  12.960  1.0579  0.6040  0.0648
 8521TIP3   OH247053   1.462   2.832   3.263 -0.1575 -0.9037 -0.0410
 8521TIP3    H147054   1.406   2.784   3.323 -0.1574 -0.2585  0.4927
 8521TIP3    H247055   1.410   2.841   3.183  0.2551 -2.7184 -0.5611
 8522TIP3   OH247056   5.632   1.485   4.195  0.0844 -0.1629  0.3702
 8522TIP3    H147057   5.656   1.560   4.140 -0.3748 -0.4989 -0.2967
 8522TIP3    H247058   5.552   1.514   4.240 -0.8536 -0.7177 -0.8887
 8523TIP3   OH247059   0.145   5.016  13.934  0.3485 -0.4498  0.0817
 8523TIP3    H147060   0.065   5.043  13.978  0.8946 -0.9536  1.4080
 8523TIP3    H247061   0.115   4.969  13.856 -0.6225  0.0920  0.1177
 8524TIP3   OH247062   1.217   3.763   5.651  0.2657 -0.6082 -0.1146
 8524TIP3    H147063   1.133   3.724   5.678  0.0320 -1.2993 -1.6879
 8524TIP3    H247064   1.214   3.853   5.684 -1.2929 -0.4891 -0.5060
 8525TIP3   OH247065   5.769   6.095   3.203 -0.3842  0.3179  0.1085
 8525TIP3    H147066   5.828   6.170   3.191  0.6422 -0.6672 -1.2846
 8525TIP3    H247067   5.810   6.044   3.273  1.0710 -0.8864 -1.5219
 8526TIP3   OH247068   0.997   2.059  12.540 -0.8262  0.6236 -0.0524
 8526TIP3    H147069   1.051   2.076  12.463 -1.7421  1.9296 -0.4366
 8526TIP3    H247070   1.027   1.974  12.572  1.4365  1.2942 -0.2417
 8527TIP3   OH247071   2.918   0.178   2.737  0.5048  0.0831 -0.1962
 8527TIP3    H147072   2.855   0.168   2.666  0.6786 -2.0177 -0.1157
 8527TIP3    H247073   2.901   0.104   2.795 -0.0013  2.0095  2.3073
 8528TIP3   OH247074   4.656   5.925  13.175 -0.1195 -0.1328 -0.0179
 8528TIP3    H147075   4.663   6.016  13.203  1.1756 -0.2321  0.0232
 8528TIP3    H247076   4.738   5.885  13.202 -0.6044 -1.2772 -0.1958
 8529TIP3   OH247077   0.991   0.186   3.574 -0.3319  0.1464  0.7993
 8529TIP3    H147078   1.072   0.171   3.623  1.4361  0.1840 -1.8784
 8529TIP3    H247079   1.017   0.243   3.502 -2.7695  0.1935 -0.1367
 8530TIP3   OH247080   5.518   5.458  11.434 -0.4191 -0.1566  0.2917
 8530TIP3    H147081   5.493   5.369  11.410  0.6277 -0.3020 -0.3243
 8530TIP3    H247082   5.598   5.447  11.487  1.9347  0.5192 -2.8049
 8531TIP3   OH247083   2.487   3.519   4.165 -0.4040 -0.7281  0.5070
 8531TIP3    H147084   2.454   3.528   4.076  1.9699 -0.5980 -0.4171
 8531TIP3    H247085   2.436   3.447   4.202 -3.7983  1.3353  0.2934
 8532TIP3   OH247086   2.586   1.649  12.540 -0.8407  0.5349 -0.0652
 8532TIP3    H147087   2.574   1.588  12.613 -2.0333  0.3472 -0.3880
 8532TIP3    H247088   2.675   1.681  12.549 -1.1576  0.9692  1.8192
 8533TIP3   OH247089   0.514   0.025  16.162  0.7103 -0.0069  0.1146
 8533TIP3    H147090   0.466   0.062  16.236 -0.3077 -0.8238 -0.1172
 8533TIP3    H247091   0.606   0.034  16.186  0.3998  0.0543  1.3325
 8534TIP3   OH247092   3.546   3.852  12.038  0.3855 -0.1891 -0.1891
 8534TIP3    H147093   3.595   3.885  11.962  0.8494 -0.2869  0.0622
 8534TIP3    H247094   3.602   3.872  12.113  0.7825 -1.6924 -0.0465
 8535TIP3   OH247095   5.919   0.190  14.615  0.1232 -0.1463  0.0384
 8535TIP3    H147096   5.901   0.198  14.522  2.4693 -1.9916 -0.6906
 8535TIP3    H247097   5.944   0.278  14.643  0.3207  0.2416 -1.3215
 8536TIP3   OH247098   3.248   3.434  13.569 -0.0246  0.2537  0.1006
 8536TIP3    H147099   3.180   3.498  13.548  1.3106  2.0555  0.9227
 8536TIP3    H247100   3.243   3.425  13.665  2.3753  2.3223  0.5270
 8537TIP3   OH247101   4.679   2.201  14.883 -0.0185  0.6842 -0.1099
 8537TIP3    H147102   4.672   2.287  14.924  2.0856  3.3465 -4.6116
 8537TIP3    H247103   4.601   2.195  14.827  1.0240  0.7818 -1.6015
 8538TIP3   OH247104   6.764   6.630  12.019  0.1583  0.0311  0.3935
 8538TIP3    H147105   6.851   6.664  12.000  0.6996 -1.6038 -0.1865
 8538TIP3    H247106   6.705   6.701  11.995  1.2557  0.7218 -0.3454
 8539TIP3   OH247107   6.359   0.869   3.203  0.0867 -0.5971 -0.0196
 8539TIP3    H147108   6.293   0.801   3.217  0.7265 -1.1697  0.2640
 8539TIP3    H247109   6.433   0.843   3.258 -0.0797  0.9523  1.0133
 8540TIP3   OH247110   0.879   5.460   2.734  0.3642  0.5176 -0.5437
 8540TIP3    H147111   0.917   5.517   2.801 -1.3247  0.9399  0.1086
 8540TIP3    H247112   0.895   5.371   2.766  2.0155  0.6177 -1.0050
 8541TIP3   OH247113   2.051   1.878  14.699  0.0166 -0.0112 -0.0064
 8541TIP3    H147114   2.102   1.854  14.622  0.9552  1.4942  0.1102
 8541TIP3    H247115   2.090   1.828  14.770  0.2444 -0.1292 -0.2116
 8542TIP3   OH247116   4.893   2.876  12.239 -0.1373 -0.0590 -0.5205
 8542TIP3    H147117   4.967   2.817  12.247 -1.2380 -1.3390  0.6514
 8542TIP3    H247118   4.922   2.943  12.177  1.8303 -0.7431 -0.3907
 8543TIP3   OH247119   4.789   4.893   5.756  0.6790  0.3589 -0.2353
 8543TIP3    H147120   4.793   4.823   5.691  0.9437  0.2890 -0.1436
 8543TIP3    H247121   4.695   4.910   5.767  0.6432  0.5007 -0.7672
 8544TIP3   OH247122   4.494   2.922  11.404  0.0490 -0.7319 -0.4606
 8544TIP3    H147123   4.421   2.875  11.365 -0.7803 -0.4902  0.7243
 8544TIP3    H247124   4.476   2.921  11.498  1.6101 -0.7243 -0.1212
 8545TIP3   OH247125   6.059   2.982   3.369 -0.0958 -0.1520  0.4484
 8545TIP3    H147126   6.050   2.962   3.462 -0.3683  2.4898  1.0955
 8545TIP3    H247127   6.056   3.078   3.365  0.5770 -0.1476 -2.2247
 8546TIP3   OH247128   3.689   4.553  14.970  0.2920 -0.1977 -0.1515
 8546TIP3    H147129   3.774   4.574  14.932  0.6262 -1.8596 -0.4219
 8546TIP3    H247130   3.632   4.624  14.943  1.6945  1.2292  0.4543
 8547TIP3   OH247131   3.628   0.099   2.793  0.4032  0.3656  0.2684
 8547TIP3    H147132   3.704   0.080   2.738 -0.0281 -0.2056 -0.1398
 8547TIP3    H247133   3.568   0.145   2.735  0.0401 -0.0419  0.3202
 8548TIP3   OH247134   0.796   4.550  13.389 -0.1406 -0.4005  0.1135
 8548TIP3    H147135   0.811   4.629  13.338 -0.2188 -1.1895 -1.1740
 8548TIP3    H247136   0.880   4.534  13.433  0.1125 -0.0208 -0.2190
 8549TIP3   OH247137   6.717   1.616  15.298  0.0373 -0.1003 -0.3979
 8549TIP3    H147138   6.730   1.580  15.386  1.4683 -0.1903 -0.6161
 8549TIP3    H247139   6.742   1.708  15.306  1.5473 -0.4313 -0.9931
 8550TIP3   OH247140   2.014   1.453  13.316  0.1132 -0.2803 -0.1182
 8550TIP3    H147141   2.018   1.435  13.222 -0.2572  0.4880 -0.2892
 8550TIP3    H247142   2.045   1.543  13.324  1.3630 -0.7670  0.6425
 8551TIP3   OH247143   4.578   1.956   3.685  0.1856  0.4118  0.3244
 8551TIP3    H147144   4.504   1.981   3.630  0.3972 -1.0434 -0.6833
 8551TIP3    H247145   4.635   2.033   3.684  0.0284  0.5491 -1.2392
 8552TIP3   OH247146   3.471   5.526  11.930 -0.3827 -1.0923 -0.3669
 8552TIP3    H147147   3.472   5.566  12.017  0.9118 -1.7921 -0.0280
 8552TIP3    H247148   3.400   5.570  11.884  0.5855  1.2027  0.1671
 8553TIP3   OH247149   3.349   1.786  15.714 -0.4743 -0.3752 -0.0324
 8553TIP3    H147150   3.262   1.747  15.709 -0.9511  0.3300  1.7531
 8553TIP3    H247151   3.370   1.783  15.808  0.3934  1.6151 -0.1257
 8554TIP3   OH247152   5.948   3.931   3.801  0.0616  0.6954 -0.5432
 8554TIP3    H147153   6.001   3.851   3.793 -0.4387  0.4556 -1.5886
 8554TIP3    H247154   5.956   3.956   3.893 -0.7163 -1.2191  0.0935
 8555TIP3   OH247155   0.987   1.797  14.585 -0.6893 -0.1408 -0.3785
 8555TIP3    H147156   1.026   1.744  14.515 -0.3547 -0.5180  0.0859
 8555TIP3    H247157   1.048   1.788  14.658 -0.6146  0.9132 -0.3012
 8556TIP3   OH247158   5.192   6.358   6.660  0.2794  0.1883 -0.5932
 8556TIP3    H147159   5.264   6.348   6.597  1.7231 -1.5503  1.2194
 8556TIP3    H247160   5.173   6.268   6.688 -0.1682  0.9242  1.5801
 8557TIP3   OH247161   0.048   6.317   2.337 -0.2501 -0.0437 -0.7796
 8557TIP3    H147162   0.105   6.270   2.275 -0.0407 -0.2444 -0.4365
 8557TIP3    H247163   0.003   6.248   2.385 -0.3456  0.1134 -0.6433
 8558TIP3   OH247164   4.900   2.362  16.534 -0.6125 -0.0503 -0.1111
 8558TIP3    H147165   4.965   2.352  16.604 -1.2441 -1.3925  0.3292
 8558TIP3    H247166   4.854   2.278  16.533 -0.5927 -0.0666 -2.1864
 8559TIP3   OH247167   0.937   1.573  16.461  0.3660 -0.1356 -0.0211
 8559TIP3    H147168   0.939   1.477  16.458  1.1200 -0.1429  0.5217
 8559TIP3    H247169   1.025   1.598  16.490  0.4718  0.7650 -1.0418
 8560TIP3   OH247170   5.611   3.770   1.226  0.1751  0.3114 -0.4628
 8560TIP3    H147171   5.702   3.761   1.254  0.3299  3.0625  0.1860
 8560TIP3    H247172   5.568   3.818   1.297 -1.1615  1.2351 -1.8255
 8561TIP3   OH247173   5.896   4.024  15.750 -0.3604  0.4716  0.3390
 8561TIP3    H147174   5.877   3.970  15.827 -0.9929  2.3048  1.5724
 8561TIP3    H247175   5.974   4.074  15.775  1.2818 -1.0667 -1.4570
 8562TIP3   OH247176   1.075   5.849  12.375  0.1818 -0.3507  0.7071
 8562TIP3    H147177   1.113   5.762  12.362  0.4337 -0.1646  0.1620
 8562TIP3    H247178   0.987   5.832  12.409 -0.0415 -0.8385 -0.0803
 8563TIP3   OH247179   2.139   3.979  16.654  0.0358  0.5612 -0.2849
 8563TIP3    H147180   2.212   3.988  16.715  1.6054 -1.3620 -1.7300
 8563TIP3    H247181   2.063   3.961  16.710  1.2864 -0.5056  1.1504
 8564TIP3   OH247182   4.030   4.279   2.831  0.4237 -0.0389  0.0786
 8564TIP3    H147183   4.067   4.233   2.756 -1.7506  1.3463 -1.9645
 8564TIP3    H247184   4.084   4.357   2.841  2.1077 -1.2751  1.5164
 8565TIP3   OH247185   5.028   5.321   3.531 -0.0069 -0.0461  0.1898
 8565TIP3    H147186   4.972   5.277   3.466 -3.1963  1.8462  1.3811
 8565TIP3    H247187   5.034   5.259   3.603  0.1630 -0.6057 -0.2974
 8566TIP3   OH247188   4.166   2.516   4.700 -0.1297 -0.2381 -0.7883
 8566TIP3    H147189   4.139   2.541   4.789  1.0110 -0.7558 -0.2728
 8566TIP3    H247190   4.260   2.501   4.707 -0.1591 -1.0989 -1.9002
 8567TIP3   OH247191   6.049   2.821   0.320 -0.2367 -0.3284  0.0399
 8567TIP3    H147192   6.045   2.727   0.333 -2.3429 -0.2085  0.6386
 8567TIP3    H247193   5.959   2.847   0.305  0.4486  1.4557 -1.3233
 8568TIP3   OH247194   1.886   3.500   1.563 -0.5008 -0.3228 -0.3343
 8568TIP3    H147195   1.802   3.525   1.601 -0.7414 -1.7163  0.1357
 8568TIP3    H247196   1.951   3.521   1.631 -0.6022 -0.2312 -0.2670
 8569TIP3   OH247197   3.327   0.451  15.621  0.4368 -0.3378  0.0874
 8569TIP3    H147198   3.382   0.419  15.693  0.3165 -0.4160  0.1458
 8569TIP3    H247199   3.363   0.537  15.600 -0.7596  0.5949  1.6054
 8570TIP3   OH247200   0.925   0.239  13.469 -0.4624  0.2414 -0.0055
 8570TIP3    H147201   0.955   0.247  13.378 -1.4286  0.5325 -0.3084
 8570TIP3    H247202   0.999   0.199  13.515 -0.1621 -0.4164 -1.0297
 8571TIP3   OH247203   6.640   4.726  16.547 -0.2271  0.4648  0.0440
 8571TIP3    H147204   6.638   4.804  16.602  0.1101  2.2406 -2.2780
 8571TIP3    H247205   6.677   4.756  16.464  1.5625 -2.5553 -0.4352
 8572TIP3   OH247206   5.607   3.064  11.548  0.0370 -0.0634 -0.0222
 8572TIP3    H147207   5.694   3.104  11.541  0.3727 -0.7674  0.0474
 8572TIP3    H247208   5.561   3.093  11.469  0.1800  0.6711  0.1562
 8573TIP3   OH247209   1.822   0.859  12.969  0.1400  0.4321  0.2555
 8573TIP3    H147210   1.830   0.856  12.874 -0.1623  0.6381  0.2222
 8573TIP3    H247211   1.728   0.859  12.985  0.1867 -0.3517  0.5835
 8574TIP3   OH247212   2.638   5.603  12.325 -0.6900 -0.4350 -0.0288
 8574TIP3    H147213   2.726   5.618  12.359  0.0065 -2.2791 -0.9182
 8574TIP3    H247214   2.646   5.617  12.230 -1.6453  0.5112  0.0053
 8575TIP3   OH247215   0.668   1.370   0.772 -0.1555 -0.0885 -0.7219
 8575TIP3    H147216   0.640   1.404   0.687 -0.0307 -1.5006 -1.3499
 8575TIP3    H247217   0.631   1.432   0.835 -0.1619  1.0469 -1.7914
 8576TIP3   OH247218   0.788   6.179   3.080 -0.0267 -0.3945  0.6217
 8576TIP3    H147219   0.718   6.129   3.039  0.0404 -0.0913  0.1303
 8576TIP3    H247220   0.744   6.241   3.138 -0.1398 -0.5473  0.6983
 8577TIP3   OH247221   4.989   1.848  14.242  0.0931  0.9327  0.1655
 8577TIP3    H147222   5.031   1.796  14.174 -0.2316  0.2257  0.4966
 8577TIP3    H247223   4.900   1.863  14.210 -0.2017  0.2169  0.6223
 8578TIP3   OH247224   1.298   4.192   0.423  0.2154 -0.4624 -0.6010
 8578TIP3    H147225   1.363   4.123   0.432 -0.4444 -0.8603  1.6877
 8578TIP3    H247226   1.349   4.273   0.424  0.8518 -0.8307 -1.5741
 8579TIP3   OH247227   6.181   1.957  17.020 -0.4546 -0.3292 -0.1841
 8579TIP3    H147228   6.098   2.004  17.033 -0.2035  0.0914 -0.0882
 8579TIP3    H247229   6.183   1.893  17.092 -0.6944 -0.3404 -0.1838
 8580TIP3   OH247230   3.510   4.764  14.882 -0.1111  0.2744 -0.0176
 8580TIP3    H147231   3.487   4.840  14.935  2.0292  0.7985  0.2718
 8580TIP3    H247232   3.571   4.799  14.817  1.0534 -1.2138  0.2226
 8581TIP3   OH247233   4.135   2.285  12.041 -0.3470  0.2845 -0.3997
 8581TIP3    H147234   4.131   2.217  12.108  0.4138 -0.2936 -0.9255
 8581TIP3    H247235   4.102   2.243  11.962  0.9952  0.2304 -0.9536
 8582TIP3   OH247236   2.235   1.710  17.036 -0.2967  0.1761  0.1231
 8582TIP3    H147237   2.244   1.787  16.980 -1.9182  2.4530  2.7524
 8582TIP3    H247238   2.325   1.687  17.060  0.5458 -1.2979 -3.6495
 8583TIP3   OH247239   6.128   3.232   3.449 -0.1135 -0.6785 -0.3728
 8583TIP3    H147240   6.161   3.280   3.524 -1.3801 -0.9704  0.4084
 8583TIP3    H247241   6.165   3.277   3.373  0.5147  0.1389  0.4018
 8584TIP3   OH247242   5.854   5.317   0.174  0.1681  0.2326 -0.0519
 8584TIP3    H147243   5.781   5.319   0.236 -1.0633 -3.4889 -1.0595
 8584TIP3    H247244   5.815   5.339   0.089  0.8080  0.8180 -0.2007
 8585TIP3   OH247245   4.084   0.345   3.050  0.5688 -0.2437  0.0563
 8585TIP3    H147246   3.996   0.380   3.066  0.9309  1.0925 -0.7481
 8585TIP3    H247247   4.074   0.251   3.062 -1.4100 -0.3572 -1.7173
 8586TIP3   OH247248   0.485   3.516   4.340 -0.0725  0.4786  0.9785
 8586TIP3    H147249   0.553   3.449   4.345 -0.1442  0.4439  1.6829
 8586TIP3    H247250   0.408   3.474   4.379 -1.0278 -0.0857 -1.3515
 8587TIP3   OH247251   2.310   1.402  11.719  0.5893  0.2012 -0.1424
 8587TIP3    H147252   2.378   1.336  11.706 -0.7647 -0.9645 -1.6761
 8587TIP3    H247253   2.237   1.374  11.663 -1.2148  1.3400  1.4904
 8588TIP3   OH247254   2.360   2.222  15.100  0.5543 -0.3232 -0.1890
 8588TIP3    H147255   2.450   2.188  15.102  0.7482  0.0615 -1.4061
 8588TIP3    H247256   2.329   2.201  15.012  0.3530  1.7938 -0.6560
 8589TIP3   OH247257   3.709   6.403   4.755 -0.1946 -0.0182  0.0880
 8589TIP3    H147258   3.764   6.413   4.833 -1.8058 -0.2603  1.3143
 8589TIP3    H247259   3.690   6.309   4.751  0.6046 -0.1450 -1.1448
 8590TIP3   OH247260   4.931   5.765   1.934 -0.1005  0.3668  0.1855
 8590TIP3    H147261   4.944   5.734   1.844  0.7922  1.6431 -0.1424
 8590TIP3    H247262   4.877   5.843   1.925  0.7221  1.0080  0.6680
 8591TIP3   OH247263   4.772   1.555  13.877 -0.2712 -0.6769  0.0433
 8591TIP3    H147264   4.867   1.544  13.871  0.0106 -0.4735  2.8124
 8591TIP3    H247265   4.760   1.637  13.924 -1.8717 -0.2462 -1.0455
 8592TIP3   OH247266   5.809   6.563  16.528  0.2352 -0.1777  0.7124
 8592TIP3    H147267   5.755   6.629  16.486  0.4892 -0.3320  0.1386
 8592TIP3    H247268   5.814   6.591  16.620 -1.8707 -0.8320  1.0893
 8593TIP3   OH247269   0.026   6.434  12.561 -0.0672  0.1252 -0.3733
 8593TIP3    H147270  -0.049   6.469  12.512 -0.6903  0.9137  1.0485
 8593TIP3    H247271   0.089   6.409  12.495 -1.6369 -0.6801 -1.6420
 8594TIP3   OH247272   3.460   4.084   0.638  0.5368 -0.2955 -0.2946
 8594TIP3    H147273   3.401   4.074   0.563  0.9109 -1.3817 -0.4670
 8594TIP3    H247274   3.440   4.008   0.694 -1.1295  1.4847  1.7254
 8595TIP3   OH247275   5.785   3.393  15.593 -0.1818  0.3664  0.1638
 8595TIP3    H147276   5.803   3.306  15.629 -0.5424  0.3473  0.3063
 8595TIP3    H247277   5.716   3.378  15.529  1.7479  0.0990 -1.9971
 8596TIP3   OH247278   0.508   4.592  11.016  0.3785  1.0863 -0.0103
 8596TIP3    H147279   0.526   4.680  10.984  1.2535  0.6401 -0.8102
 8596TIP3    H247280   0.467   4.547  10.942 -0.1349  0.8394  0.4155
 8597TIP3   OH247281   0.031   4.006   0.502 -0.5917  0.3245  0.5787
 8597TIP3    H147282   0.112   4.019   0.453 -1.4610  2.4061 -0.4667
 8597TIP3    H247283  -0.008   3.928   0.463  0.9985 -0.8668  1.2857
 8598TIP3   OH247284   2.278   2.432   5.075 -0.1209  0.4728 -0.2395
 8598TIP3    H147285   2.337   2.405   5.005 -1.3476 -0.0222 -1.1291
 8598TIP3    H247286   2.302   2.376   5.149  1.0619  0.8668 -0.3047
 8599TIP3   OH247287   4.744   4.114   0.726 -0.0047  0.0433  0.2392
 8599TIP3    H147288   4.724   4.190   0.672  1.0469  0.4639  0.4145
 8599TIP3    H247289   4.839   4.115   0.735 -0.0381 -0.8534  0.8876
 8600TIP3   OH247290   3.426   0.688  15.552  0.0585 -0.2142  0.1475
 8600TIP3    H147291   3.484   0.688  15.476 -0.4899  0.0656 -0.2835
 8600TIP3    H247292   3.476   0.731  15.621 -0.4081  2.0848 -0.8528
 8601TIP3   OH247293   4.284   2.021  12.503 -0.2431  0.0611 -0.3495
 8601TIP3    H147294   4.317   2.069  12.579 -1.7976  1.3009 -0.4050
 8601TIP3    H247295   4.191   2.043  12.500 -0.4806 -1.0428 -1.8343
 8602TIP3   OH247296   6.168   6.555  16.655 -0.1502  0.3837  0.2115
 8602TIP3    H147297   6.253   6.545  16.697 -0.1598  2.2200  0.7474
 8602TIP3    H247298   6.110   6.499  16.707  0.1110  1.5998  1.9005
 8603TIP3   OH247299   4.531   0.329   3.183 -0.7451 -0.7299  0.0630
 8603TIP3    H147300   4.497   0.355   3.097  1.0124 -0.1537 -0.5031
 8603TIP3    H247301   4.498   0.396   3.243  1.2765  1.2399 -0.8873
 8604TIP3   OH247302   0.921   2.783  15.471  0.1963  0.0220 -0.1471
 8604TIP3    H147303   0.963   2.842  15.534  2.2554 -0.2031 -1.2162
 8604TIP3    H247304   0.833   2.819  15.460  0.7878  1.8444  0.5755
 8605TIP3   OH247305   5.699   0.865  14.703  0.0838  0.4067 -0.3134
 8605TIP3    H147306   5.670   0.945  14.746  2.2234  1.1050 -0.0427
 8605TIP3    H247307   5.760   0.894  14.635  0.4682 -0.9501 -0.5943
 8606TIP3   OH247308   0.126   5.063  11.486  0.2189 -0.1311  0.1879
 8606TIP3    H147309   0.169   5.143  11.516 -0.4818  1.1158 -1.9408
 8606TIP3    H247310   0.069   5.039  11.559  0.0613  1.6209  0.6977
 8607TIP3   OH247311   0.560   5.795  16.410 -0.1452 -0.1190 -0.7325
 8607TIP3    H147312   0.500   5.720  16.404 -0.1616 -0.1229 -0.5435
 8607TIP3    H247313   0.636   5.761  16.458 -0.8933  0.4250  0.9383
 8608TIP3   OH247314   0.610   2.333  16.177  0.5222  0.1591  0.2757
 8608TIP3    H147315   0.540   2.296  16.230 -1.0589  1.4684 -0.8177
 8608TIP3    H247316   0.620   2.423  16.209  1.7747 -0.0307  0.4662
 8609TIP3   OH247317   3.766   2.269  15.014  0.5671  0.1846  0.1717
 8609TIP3    H147318   3.741   2.241  15.102  0.8832 -0.4703  0.0540
 8609TIP3    H247319   3.688   2.252  14.961 -0.5305  2.8191  0.7473
 8610TIP3   OH247320   2.229   6.103   0.631  0.1623 -0.4831 -0.5162
 8610TIP3    H147321   2.281   6.022   0.631  0.8646 -0.0770  1.2204
 8610TIP3    H247322   2.148   6.079   0.586  1.7444 -1.1684 -3.1994
 8611TIP3   OH247323   1.815   6.625   0.337  0.7395  0.8106  0.3026
 8611TIP3    H147324   1.764   6.704   0.325  0.5631  0.5728 -0.5540
 8611TIP3    H247325   1.865   6.615   0.256  1.7830  0.7733  0.9272
 8612TIP3   OH247326   0.591   0.070  15.449  0.0248 -0.4868 -0.9059
 8612TIP3    H147327   0.521   0.130  15.474  1.4026  0.8319 -0.0040
 8612TIP3    H247328   0.551  -0.017  15.454 -1.1006  0.0744  1.3306
 8613TIP3   OH247329   0.352   0.584  13.059 -0.2805 -0.3362 -0.2323
 8613TIP3    H147330   0.266   0.624  13.072 -0.2206 -0.0913 -0.5666
 8613TIP3    H247331   0.414   0.649  13.091 -0.1117  0.4306 -2.0033
 8614TIP3   OH247332   0.823   0.088  16.005 -0.0237  0.5188  0.2650
 8614TIP3    H147333   0.821   0.150  15.931  2.1581  0.0397 -0.2731
 8614TIP3    H247334   0.783   0.008  15.970  0.3479  0.5215 -0.1754
 8615TIP3   OH247335   4.609   4.707  12.085  0.4323  0.3892 -0.4603
 8615TIP3    H147336   4.612   4.628  12.030 -0.6225  0.6294 -0.8797
 8615TIP3    H247337   4.581   4.675  12.171  0.8466  0.1949 -0.3924
 8616TIP3   OH247338   3.126   3.396   6.091  0.2368 -0.2204 -0.5747
 8616TIP3    H147339   3.109   3.489   6.076  0.2650  0.0370  0.8426
 8616TIP3    H247340   3.221   3.387   6.080  0.6310  0.4649  1.7443
 8617TIP3   OH247341   0.983   3.969  16.128 -0.2358 -0.4577 -0.2172
 8617TIP3    H147342   1.009   3.977  16.220 -1.2985  1.1252 -0.0119
 8617TIP3    H247343   0.902   3.919  16.131  1.5099 -3.5889 -0.6816
 8618TIP3   OH247344   3.753   1.445   1.048 -0.1723 -0.3472 -0.1956
 8618TIP3    H147345   3.692   1.513   1.076 -0.8044 -1.2450  0.6830
 8618TIP3    H247346   3.794   1.414   1.129  1.2551  0.0273 -0.7393
 8619TIP3   OH247347   6.077   4.937   4.684 -0.1444  0.1910 -0.1472
 8619TIP3    H147348   6.146   4.987   4.727  0.0302  0.2955 -0.5367
 8619TIP3    H247349   6.087   4.848   4.716  2.1247 -0.4964 -2.4414
 8620TIP3   OH247350   4.583   0.424  15.493  0.8836 -0.5884 -0.1163
 8620TIP3    H147351   4.569   0.505  15.542 -0.6328  0.4984 -2.2133
 8620TIP3    H247352   4.606   0.452  15.405 -1.1356 -2.3641 -1.3136
 8621TIP3   OH247353   2.832   0.131  14.658  0.1180 -0.5573  0.4307
 8621TIP3    H147354   2.816   0.067  14.589  0.9536 -1.6101  1.1760
 8621TIP3    H247355   2.776   0.103  14.730  0.3324 -0.3300  0.6873
 8622TIP3   OH247356   5.051   1.816  11.428  0.6477 -0.3586 -0.0799
 8622TIP3    H147357   5.086   1.790  11.343  1.4035 -0.6133  0.2936
 8622TIP3    H247358   5.125   1.857  11.473 -0.3266  1.8244 -0.3688
 8623TIP3   OH247359   4.248   3.765  14.877 -0.0725 -0.0839  0.3646
 8623TIP3    H147360   4.186   3.791  14.945  1.9259  1.4374  1.7076
 8623TIP3    H247361   4.244   3.835  14.812 -1.1336 -0.9578 -0.5419
 8624TIP3   OH247362   4.740   3.717   3.338 -0.3857 -0.0721  0.3090
 8624TIP3    H147363   4.771   3.690   3.425  1.0935 -0.4992 -0.3153
 8624TIP3    H247364   4.752   3.812   3.337  1.7055 -0.2882 -0.1579
 8625TIP3   OH247365   0.702   5.252   2.581  0.9406  0.1637 -0.4572
 8625TIP3    H147366   0.683   5.259   2.674  0.4074 -1.3724 -0.4309
 8625TIP3    H247367   0.777   5.194   2.576  2.1227  1.6614 -0.9142
 8626TIP3   OH247368   4.224   6.073   2.791  0.0698  0.0329 -0.0430
 8626TIP3    H147369   4.199   6.021   2.867  1.8264  2.3838  2.3065
 8626TIP3    H247370   4.182   6.158   2.805 -2.1829 -0.3208 -3.4239
 8627TIP3   OH247371   5.192   2.151   1.015  0.0130  0.3961  0.1379
 8627TIP3    H147372   5.268   2.107   1.054  0.8660  0.3745 -1.4619
 8627TIP3    H247373   5.227   2.196   0.938 -1.7377 -0.4364 -1.2342
 8628TIP3   OH247374   4.892   0.494   3.821  0.2227  0.3755  0.4532
 8628TIP3    H147375   4.968   0.456   3.865  0.6406  0.7882  0.0891
 8628TIP3    H247376   4.817   0.446   3.857  0.7322 -0.7665  0.0547
 8629TIP3   OH247377   1.079   0.844  15.345 -0.5918 -0.6722  0.1653
 8629TIP3    H147378   1.173   0.836  15.364 -0.5855  1.5148  1.3515
 8629TIP3    H247379   1.063   0.776  15.280  1.9620 -0.6875 -0.5851
 8630TIP3   OH247380   4.476   2.653  14.581  0.0807  0.7798 -0.4339
 8630TIP3    H147381   4.551   2.615  14.626  0.5023 -0.5672 -2.1736
 8630TIP3    H247382   4.512   2.687  14.500 -1.0730  0.7189 -0.9817
 8631TIP3   OH247383   4.965   4.644   2.199 -0.3693  0.1853  0.1475
 8631TIP3    H147384   4.884   4.685   2.229 -1.2132 -2.1094  1.2979
 8631TIP3    H247385   4.996   4.594   2.275  1.4668 -0.0039 -0.6556
 8632TIP3   OH247386   6.550   4.346   3.812 -0.2114  0.2820  0.0729
 8632TIP3    H147387   6.582   4.282   3.876  0.2185  0.2820 -0.1354
 8632TIP3    H247388   6.530   4.423   3.864 -0.5285  0.0498  0.2988
 8633TIP3   OH247389   5.111   6.814  14.476  0.0719  1.0069 -0.0607
 8633TIP3    H147390   5.063   6.871  14.417  1.4771  0.9714 -1.2783
 8633TIP3    H247391   5.189   6.864  14.501 -0.2585  0.8503  1.4332
 8634TIP3   OH247392   2.884   0.438  12.547  0.3699  0.3161  1.2232
 8634TIP3    H147393   2.901   0.345  12.529  0.7116  0.5752  0.1388
 8634TIP3    H247394   2.877   0.443  12.642 -1.4524 -1.1374  1.2165
 8635TIP3   OH247395   0.757   6.322   1.950  0.4428 -0.1224 -0.1788
 8635TIP3    H147396   0.792   6.292   2.034 -0.9619  1.7541  1.1633
 8635TIP3    H247397   0.833   6.359   1.904  1.0168 -0.0207  0.8206
 8636TIP3   OH247398   6.447   4.776  14.291  0.1230  0.3932 -0.5107
 8636TIP3    H147399   6.413   4.710  14.352 -0.5844  2.3432  1.3105
 8636TIP3    H247400   6.535   4.745  14.270  0.4675 -0.3062  1.6596
 8637TIP3   OH247401   0.633   3.520   5.008  0.1401  0.2300  0.2570
 8637TIP3    H147402   0.633   3.438   4.958 -1.2540 -1.7724  3.2646
 8637TIP3    H247403   0.541   3.545   5.012  0.5310  1.8918 -0.4423
 8638TIP3   OH247404   0.243   1.311   1.972 -0.0057  0.1244 -0.3634
 8638TIP3    H147405   0.254   1.320   1.877 -0.4912  3.9965 -0.2260
 8638TIP3    H247406   0.332   1.305   2.006  0.1700 -1.4016 -0.9949
 8639TIP3   OH247407   1.359   3.929  14.473  0.2314 -0.2193 -0.5021
 8639TIP3    H147408   1.275   3.971  14.492  0.0333 -1.0270  0.4856
 8639TIP3    H247409   1.424   3.993  14.500 -0.0690 -0.3607  0.6199
 8640TIP3   OH247410   4.941   1.755   1.048  0.0491 -0.2993 -0.7843
 8640TIP3    H147411   5.035   1.769   1.033  0.1100 -0.1881 -0.2896
 8640TIP3    H247412   4.931   1.660   1.049  0.0286 -0.3151 -1.6194
 8641TIP3   OH247413   1.891   5.434  17.211 -0.4258  0.5497 -0.5096
 8641TIP3    H147414   1.936   5.396  17.136  1.0115 -0.4237  0.7653
 8641TIP3    H247415   1.872   5.524  17.186  0.4436  0.3771 -1.8587
 8642TIP3   OH247416   1.066   1.199  13.600 -0.1818 -0.1736 -0.4764
 8642TIP3    H147417   1.017   1.149  13.665 -0.4168  1.5387  0.7340
 8642TIP3    H247418   1.154   1.207  13.638  0.0766 -0.3655 -1.0329
 8643TIP3   OH247419   4.782   2.082   4.759  0.7584 -0.0024  0.1862
 8643TIP3    H147420   4.850   2.103   4.823  0.1541  0.6379  0.6291
 8643TIP3    H247421   4.715   2.035   4.809 -0.3644  1.7039  0.3612
 8644TIP3   OH247422   2.492   0.241   1.311  0.2116 -0.8104  0.3808
 8644TIP3    H147423   2.549   0.315   1.333 -1.5936  0.0501  2.5724
 8644TIP3    H247424   2.465   0.206   1.396 -1.8516 -1.6875 -0.5737
 8645TIP3   OH247425   2.644   0.952  11.256 -0.5525  0.1275  0.0759
 8645TIP3    H147426   2.725   0.970  11.303 -0.2603 -0.4117 -0.2231
 8645TIP3    H247427   2.575   0.977  11.317 -0.1651  1.0443  0.1537
 8646TIP3   OH247428   3.082   2.962   4.855  0.1603 -0.0864 -0.1272
 8646TIP3    H147429   3.058   3.021   4.926  0.6469  0.3989 -0.3656
 8646TIP3    H247430   3.144   3.011   4.802  1.6358 -1.2893  0.4213
 8647TIP3   OH247431   1.045   3.817   4.472  0.3683  0.1475  0.1500
 8647TIP3    H147432   0.991   3.877   4.523 -1.1676 -0.3708 -0.7866
 8647TIP3    H247433   1.104   3.873   4.421 -0.0948  0.7833  0.3061
 8648TIP3   OH247434   4.742   1.518  16.400  0.4557 -0.1436 -0.2721
 8648TIP3    H147435   4.768   1.604  16.367  0.3568 -0.1812 -0.4514
 8648TIP3    H247436   4.745   1.527  16.495 -0.5062  0.3494 -0.2783
 8649TIP3   OH247437   6.362   1.722   1.532 -0.1300 -0.7926 -0.3267
 8649TIP3    H147438   6.369   1.661   1.606 -1.1933 -1.6497 -0.8935
 8649TIP3    H247439   6.326   1.802   1.570  0.4855 -0.7933  0.2842
 8650TIP3   OH247440   6.243   0.908  11.180 -0.1353  0.0971 -0.4677
 8650TIP3    H147441   6.251   0.844  11.109  1.4864 -0.0106 -0.2318
 8650TIP3    H247442   6.281   0.988  11.144 -2.8985  1.2360 -1.0489
 8651TIP3   OH247443   3.092   3.876  14.980  0.8371 -0.1169 -0.4005
 8651TIP3    H147444   3.000   3.858  14.960  0.6628  0.7863 -0.4301
 8651TIP3    H247445   3.099   3.862  15.074  0.3098  1.2673 -0.1319
 8652TIP3   OH247446   4.405   1.408   0.947 -0.4919  0.1084  0.4323
 8652TIP3    H147447   4.409   1.347   1.021 -0.3496 -0.1127  0.2432
 8652TIP3    H247448   4.312   1.428   0.938 -0.5971 -0.4439  0.2027
 8653TIP3   OH247449   0.952   3.219  16.246 -0.1407  0.4501 -0.0069
 8653TIP3    H147450   0.893   3.279  16.201 -0.3832  1.0973  1.1521
 8653TIP3    H247451   1.009   3.185  16.177 -1.3530  0.4109 -1.0083
 8654TIP3   OH247452   4.960   4.572  11.784  0.0360 -0.1476  0.2152
 8654TIP3    H147453   5.026   4.523  11.736  0.4628  0.9740 -0.3700
 8654TIP3    H247454   4.995   4.579  11.873  0.5514  0.1320 -0.0054
 8655TIP3   OH247455   5.533   0.982  15.968  0.1922  0.2172  0.0734
 8655TIP3    H147456   5.438   0.977  15.955 -0.0952  0.7783  1.7050
 8655TIP3    H247457   5.549   0.933  16.048  1.4784 -0.8976 -0.8139
 8656TIP3   OH247458   6.722   0.612  14.127  0.4375  0.6685  0.4025
 8656TIP3    H147459   6.719   0.640  14.219 -0.2881  0.7514  0.3615
 8656TIP3    H247460   6.721   0.516  14.132  0.7277  0.6682  0.4862
 8657TIP3   OH247461   3.818   6.113  13.681 -0.1634  0.0793 -0.8552
 8657TIP3    H147462   3.775   6.189  13.641 -0.3640  0.2471 -0.3182
 8657TIP3    H247463   3.774   6.037  13.642 -0.5151  0.2443 -0.7780
 8658TIP3   OH247464   3.777   6.687   1.766 -0.2779  0.5747 -0.3543
 8658TIP3    H147465   3.833   6.657   1.694  0.4425 -1.9762  1.1391
 8658TIP3    H247466   3.688   6.667   1.736 -0.0117 -0.1004 -0.7325
 8659TIP3   OH247467   5.540   2.987   3.887  0.2361  0.1226 -0.5934
 8659TIP3    H147468   5.581   2.936   3.817 -0.2915 -0.8332 -0.2194
 8659TIP3    H247469   5.601   2.981   3.960  0.7339  1.0280 -0.9177
 8660TIP3   OH247470   2.936   6.195  17.213  0.3708 -0.2139  0.4528
 8660TIP3    H147471   3.020   6.219  17.253  0.6075 -0.3087  0.0192
 8660TIP3    H247472   2.892   6.141  17.279  0.2274  0.6428  1.0753
 8661TIP3   OH247473   0.618   6.039   0.497 -0.5989 -0.1921  0.7404
 8661TIP3    H147474   0.632   5.947   0.519  0.2717 -0.4438 -0.7314
 8661TIP3    H247475   0.527   6.044   0.469 -0.6169 -0.6160  0.7231
 8662TIP3   OH247476   1.402   1.446   0.844 -0.4851  0.0419 -0.1432
 8662TIP3    H147477   1.445   1.479   0.765 -0.1515 -0.1987 -0.0639
 8662TIP3    H247478   1.346   1.519   0.873 -1.4431 -0.2331 -1.1986
 8663TIP3   OH247479   3.972   2.548   4.179  0.1912  0.5156 -0.0327
 8663TIP3    H147480   3.887   2.577   4.211 -0.4062  1.0061 -1.9346
 8663TIP3    H247481   3.992   2.606   4.106  1.0736 -1.0351 -1.1052
 8664TIP3   OH247482   4.978   3.034  12.744  0.4688 -0.1989  0.0396
 8664TIP3    H147483   4.904   3.084  12.711 -0.5566 -0.5044  1.7786
 8664TIP3    H247484   5.022   3.094  12.805 -0.3421 -1.1052  1.5737
 8665TIP3   OH247485   3.174   1.714   5.096 -0.5819  0.1974  0.3431
 8665TIP3    H147486   3.204   1.627   5.071 -0.7852 -0.5725  2.5545
 8665TIP3    H247487   3.157   1.759   5.013  1.9618 -0.9800 -0.9174
 8666TIP3   OH247488   6.346   1.689  12.880 -0.4496 -0.1536  0.1114
 8666TIP3    H147489   6.330   1.597  12.900 -0.6286  0.1811  1.6613
 8666TIP3    H247490   6.394   1.688  12.798 -0.2701 -1.6483  0.2114
 8667TIP3   OH247491   1.567   4.906   1.584 -0.3484  0.5367  0.2966
 8667TIP3    H147492   1.471   4.914   1.581 -0.3361  0.3375 -2.5718
 8667TIP3    H247493   1.584   4.815   1.561  0.5685  1.2556 -2.0829
 8668TIP3   OH247494   0.762   5.285   3.351  0.3483  0.8987  0.5261
 8668TIP3    H147495   0.773   5.378   3.371 -0.4024  1.2293 -0.4876
 8668TIP3    H247496   0.841   5.260   3.304  0.6601  0.9526  1.0142
 8669TIP3   OH247497   2.116   4.067   1.335 -0.0287  0.1316 -0.3085
 8669TIP3    H147498   2.039   4.051   1.280  0.8955 -0.8740 -1.3810
 8669TIP3    H247499   2.176   4.117   1.279  0.8613 -0.7544 -0.1874
 8670TIP3   OH247500   0.721   1.873   4.614 -0.2864  0.7243 -0.0715
 8670TIP3    H147501   0.707   1.929   4.538 -1.1036 -0.2629 -0.6734
 8670TIP3    H247502   0.724   1.784   4.579 -0.8336  0.2348  1.0584
 8671TIP3   OH247503   2.060   5.896   1.284 -0.1974  0.1343  0.4186
 8671TIP3    H147504   2.045   5.802   1.292 -2.1221  0.2472 -1.1636
 8671TIP3    H247505   2.037   5.916   1.194 -1.9803  2.4785  1.3122
 8672TIP3   OH247506   1.138   3.471   2.297  0.6497  1.0245 -0.2069
 8672TIP3    H147507   1.044   3.477   2.280  0.4130  0.3277  0.7685
 8672TIP3    H247508   1.165   3.389   2.255  0.6928  0.9052  0.0513
 8673TIP3   OH247509   2.235   6.413  13.029  0.0659 -0.5681  0.0808
 8673TIP3    H147510   2.237   6.483  12.964 -0.4118 -0.1500  0.5024
 8673TIP3    H247511   2.304   6.436  13.092  0.7739 -1.1635 -0.4559
 8674TIP3   OH247512   4.219   1.697  15.410  0.6608  0.5159  0.0536
 8674TIP3    H147513   4.282   1.763  15.442  1.4797  0.5633 -1.5454
 8674TIP3    H247514   4.134   1.738  15.422  0.8581  0.3956  2.4279
 8675TIP3   OH247515   1.191   1.842  15.531 -0.2675 -0.0889  0.1962
 8675TIP3    H147516   1.197   1.924  15.580  2.2456  0.5826 -1.0867
 8675TIP3    H247517   1.259   1.786  15.568  0.3797 -0.2724 -1.1904
 8676TIP3   OH247518   3.855   0.703   0.382 -0.4300 -0.2688  0.4507
 8676TIP3    H147519   3.906   0.633   0.423 -1.0194 -0.7953  0.3027
 8676TIP3    H247520   3.872   0.780   0.437  0.1514 -0.5437  0.6669
 8677TIP3   OH247521   0.757   2.674  14.120 -0.0351  0.0572  0.6524
 8677TIP3    H147522   0.848   2.649  14.105 -0.1272  0.3612 -0.4610
 8677TIP3    H247523   0.740   2.743  14.057 -0.6101  1.0514  1.8446
 8678TIP3   OH247524   1.786   4.202   3.805  0.1515  0.4841 -0.7475
 8678TIP3    H147525   1.804   4.295   3.790  0.6369  0.1126 -2.8615
 8678TIP3    H247526   1.868   4.167   3.838 -0.2844  0.9267  0.8974
 8679TIP3   OH247527   5.110   6.157  14.274  0.0267  0.3513  0.5372
 8679TIP3    H147528   5.045   6.158  14.344 -0.3116 -0.7901  0.2689
 8679TIP3    H247529   5.060   6.135  14.195  0.5694  0.5556  0.1291
 8680TIP3   OH247530   4.323   0.329  16.637 -0.2231 -0.3825  0.1069
 8680TIP3    H147531   4.243   0.380  16.650 -0.1536 -0.0456 -0.7125
 8680TIP3    H247532   4.292   0.240  16.619 -0.3051 -1.1776  3.5327
 8681TIP3   OH247533   0.433   0.495  14.329 -0.2921 -0.3363  0.1631
 8681TIP3    H147534   0.463   0.405  14.324  0.4723 -0.1647  1.2963
 8681TIP3    H247535   0.401   0.515  14.241 -4.1876 -2.9548  0.7513
 8682TIP3   OH247536   2.476   6.126   2.101  0.2116 -0.5674  0.4240
 8682TIP3    H147537   2.482   6.217   2.129 -0.9070 -0.7036  1.1963
 8682TIP3    H247538   2.391   6.119   2.057  0.3415 -1.2043  0.2504
 8683TIP3   OH247539   6.586   5.665   4.351  0.6397  0.4167  0.5138
 8683TIP3    H147540   6.533   5.707   4.419  1.1070 -0.7786  1.6516
 8683TIP3    H247541   6.669   5.712   4.352  0.0658  1.4973 -0.4264
 8684TIP3   OH247542   2.589   4.981  15.164  0.0616 -0.4728 -0.2492
 8684TIP3    H147543   2.591   5.005  15.071  1.2973 -3.2493 -1.0822
 8684TIP3    H247544   2.498   4.956  15.180 -0.4015  1.0377 -0.3698
 8685TIP3   OH247545   0.525   2.724  15.024  0.5817  0.3553  0.2246
 8685TIP3    H147546   0.615   2.695  15.035  1.1228  1.0094 -1.9445
 8685TIP3    H247547   0.507   2.777  15.101  3.1450  2.7521 -0.6495
 8686TIP3   OH247548   0.466   1.484  15.377 -0.2148 -0.1306  0.3706
 8686TIP3    H147549   0.430   1.454  15.293 -0.5961 -0.0213  0.4984
 8686TIP3    H247550   0.529   1.552  15.353  0.1402 -0.5347  0.1287
 8687TIP3   OH247551   0.291   3.827   6.211 -0.3339  0.1359 -0.2718
 8687TIP3    H147552   0.366   3.767   6.203 -0.7252 -0.3353 -0.4838
 8687TIP3    H247553   0.271   3.851   6.121 -0.4610  0.2301 -0.2175
 8688TIP3   OH247554   4.875   5.568  15.074  0.0944  0.5100 -0.7294
 8688TIP3    H147555   4.888   5.662  15.085 -1.6805  0.5861  1.6010
 8688TIP3    H247556   4.948   5.528  15.120 -1.3206  0.8560  2.0262
 8689TIP3   OH247557   0.242   5.509  15.364 -0.3431  0.0712  0.1451
 8689TIP3    H147558   0.198   5.594  15.362 -1.9584 -0.7549 -0.4387
 8689TIP3    H247559   0.202   5.463  15.438 -1.1815 -1.0400 -0.9673
 8690TIP3   OH247560   6.730   6.623  12.871  0.1345 -0.0346 -0.0785
 8690TIP3    H147561   6.689   6.709  12.865  0.1351 -0.0474 -0.2787
 8690TIP3    H247562   6.756   6.603  12.781 -1.2910 -0.9350 -0.3303
 8691TIP3   OH247563   2.742   2.367  13.426  0.1409 -0.2011 -0.0015
 8691TIP3    H147564   2.745   2.461  13.446 -0.2215 -0.2904  0.4935
 8691TIP3    H247565   2.821   2.352  13.374  2.3895 -0.3363  3.1808
 8692TIP3   OH247566   1.205   2.173  17.096  0.2224 -0.1144  0.2547
 8692TIP3    H147567   1.266   2.246  17.087  0.0717 -0.2136 -2.4096
 8692TIP3    H247568   1.158   2.171  17.013 -3.0967 -0.3915  1.9923
 8693TIP3   OH247569   6.093   3.167   5.190 -0.4538  0.7496 -0.0585
 8693TIP3    H147570   6.106   3.253   5.231 -0.4844  0.9312 -0.4203
 8693TIP3    H247571   6.160   3.111   5.229 -0.7711  0.8018  0.5614
 8694TIP3   OH247572   2.743   3.276  16.991 -0.2321  0.1486  0.4538
 8694TIP3    H147573   2.720   3.278  16.898 -0.0271 -1.5390  0.3330
 8694TIP3    H247574   2.735   3.184  17.015 -0.2165  0.5563  2.1036
 8695TIP3   OH247575   0.759   5.039   5.593  0.0658  0.3426 -0.4865
 8695TIP3    H147576   0.835   4.994   5.629  0.9386  2.7747  0.9840
 8695TIP3    H247577   0.691   5.030   5.660  0.1237  0.8426 -0.3539
 8696TIP3   OH247578   1.339   3.489  16.680  0.5972 -0.3631  0.1208
 8696TIP3    H147579   1.414   3.479  16.621  0.3475 -1.3762 -0.0468
 8696TIP3    H247580   1.319   3.399  16.707 -0.7755 -0.1379 -0.1185
 8697TIP3   OH247581   4.910   1.952  11.034 -0.0294 -0.2653 -0.0225
 8697TIP3    H147582   4.973   2.019  11.008  0.9951 -0.9312  0.6438
 8697TIP3    H247583   4.938   1.873  10.988  0.4353 -0.8861  1.2559
 8698TIP3   OH247584   0.978   2.198  12.867  0.2061 -0.0853 -0.1174
 8698TIP3    H147585   1.031   2.214  12.789  0.9718 -0.8577  0.2314
 8698TIP3    H247586   0.951   2.107  12.860 -0.1005 -0.0308  0.3029
 8699TIP3   OH247587   0.295   0.636  13.707  0.1733 -0.4312 -0.1321
 8699TIP3    H147588   0.385   0.667  13.714 -0.0827  0.5231 -0.8557
 8699TIP3    H247589   0.276   0.597  13.792  1.7537 -2.0156 -0.4484
 8700TIP3   OH247590   2.245   6.807   4.021 -0.0350  0.3623 -0.1026
 8700TIP3    H147591   2.264   6.750   4.096  0.9149 -1.8980 -1.9531
 8700TIP3    H247592   2.270   6.894   4.051  1.8304 -0.6958  1.7180
 8701TIP3   OH247593   4.310   0.863  13.279 -0.3793 -0.0829  0.6140
 8701TIP3    H147594   4.223   0.901  13.291 -0.6041 -0.0571 -0.9441
 8701TIP3    H247595   4.370   0.925  13.322 -0.9355  0.9740 -0.1090
 8702TIP3   OH247596   4.370   3.458   0.254 -0.4665 -0.6290 -0.6700
 8702TIP3    H147597   4.465   3.459   0.237 -0.3068 -0.0111  0.2201
 8702TIP3    H247598   4.363   3.433   0.346 -1.2019 -1.2247 -0.8809
 8703TIP3   OH247599   0.415   1.520  12.528 -0.2856  0.4480  0.0560
 8703TIP3    H147600   0.419   1.441  12.582  0.5243  0.6999  0.3759
 8703TIP3    H247601   0.505   1.533  12.497 -0.0892  2.0171  1.1504
 8704TIP3   OH247602   6.424   3.206   3.552 -0.3146 -0.0013  0.3779
 8704TIP3    H147603   6.478   3.202   3.631 -0.5572 -0.5917  0.5237
 8704TIP3    H247604   6.367   3.129   3.558 -0.9993  0.4761  0.1030
 8705TIP3   OH247605   0.238   1.814  15.249 -0.1432  0.5059  0.1835
 8705TIP3    H147606   0.297   1.810  15.324 -1.0499  0.8488  0.9251
 8705TIP3    H247607   0.254   1.732  15.202  1.7625  1.0961 -0.2913
 8706TIP3   OH247608   5.698   6.094   2.958  0.5222 -0.1096 -0.0441
 8706TIP3    H147609   5.732   6.086   3.048 -0.5519 -1.5313  0.2634
 8706TIP3    H247610   5.700   6.188   2.941 -0.0170  0.2794  1.7871
 8707TIP3   OH247611   1.291   6.562  15.510  0.4540  0.4640  0.1327
 8707TIP3    H147612   1.334   6.597  15.432 -0.2216  2.0373  0.4273
 8707TIP3    H247613   1.267   6.640  15.561 -0.9088 -0.4418  0.9410
 8708TIP3   OH247614   5.154   0.061   3.841 -0.5044  0.0580 -0.0036
 8708TIP3    H147615   5.129   0.151   3.860 -1.6957  0.4881 -2.9538
 8708TIP3    H247616   5.126   0.011   3.917  2.1234  2.3349  2.7194
 8709TIP3   OH247617   3.659   1.862   0.607  0.0880  0.5013  0.1690
 8709TIP3    H147618   3.710   1.791   0.566 -0.1404 -0.0827  0.8844
 8709TIP3    H247619   3.583   1.873   0.550 -1.0315 -1.3696  1.2236
 8710TIP3   OH247620   3.274   2.961  12.348  0.3706  0.7552 -0.0293
 8710TIP3    H147621   3.301   3.050  12.371  0.0273  0.6587  0.8013
 8710TIP3    H247622   3.321   2.906  12.410 -0.8497  0.5027  0.7048
 8711TIP3   OH247623   5.042   5.275   5.157 -0.6839 -0.1462 -0.2110
 8711TIP3    H147624   4.948   5.255   5.158 -0.7474  0.1661  0.3083
 8711TIP3    H247625   5.063   5.287   5.064 -1.3643  0.7272 -0.2626
 8712TIP3   OH247626   3.090   5.840   3.197 -0.0894  0.3214 -0.1446
 8712TIP3    H147627   3.158   5.840   3.264  1.3011  0.2869 -1.5101
 8712TIP3    H247628   3.125   5.894   3.127 -0.7588 -0.9966 -1.5639
 8713TIP3   OH247629   5.720   0.987   0.585  0.1985 -0.5271  0.0516
 8713TIP3    H147630   5.752   1.023   0.668  0.4957  0.9274 -0.6610
 8713TIP3    H247631   5.796   0.992   0.527 -0.3907 -0.2250 -0.6934
 8714TIP3   OH247632   1.801   6.384  12.056 -0.3825 -0.6112 -0.6783
 8714TIP3    H147633   1.750   6.453  12.099 -1.5823 -1.4577 -0.6810
 8714TIP3    H247634   1.839   6.333  12.128  0.5297  0.0556 -0.6764
 8715TIP3   OH247635   5.393   6.078  14.311  0.0996 -0.4961 -0.8160
 8715TIP3    H147636   5.429   6.161  14.282 -1.0134 -0.4019 -2.0023
 8715TIP3    H247637   5.300   6.082  14.287 -0.6688 -0.8821  1.7634
 8716TIP3   OH247638   4.140   0.555   4.114 -0.7093  0.1008  0.0289
 8716TIP3    H147639   4.189   0.530   4.192 -1.0329  0.8813  0.4952
 8716TIP3    H247640   4.111   0.644   4.131 -0.8710  0.2536 -0.9457
 8717TIP3   OH247641   6.727   4.023  13.355  0.0212  0.1278  0.8118
 8717TIP3    H147642   6.817   4.050  13.368  0.1551 -0.3052  0.8063
 8717TIP3    H247643   6.685   4.035  13.440 -0.0476  0.8032  0.6885
 8718TIP3   OH247644   4.433   0.612  16.717 -0.6609 -0.2676  0.1764
 8718TIP3    H147645   4.454   0.527  16.754  0.1866  0.4899  1.5072
 8718TIP3    H247646   4.398   0.592  16.630 -1.4473 -2.0097  0.8576
 8719TIP3   OH247647   1.610   1.321   5.385 -0.2707  0.3376  0.3323
 8719TIP3    H147648   1.563   1.390   5.433  1.2397 -0.1993  2.7339
 8719TIP3    H247649   1.673   1.286   5.448  0.1903 -2.1036 -1.3361
 8720TIP3   OH247650   5.371   6.769  12.906  0.4317 -0.1736  0.0139
 8720TIP3    H147651   5.461   6.774  12.938  0.1194  0.0131  0.8985
 8720TIP3    H247652   5.338   6.858  12.913 -0.2962 -0.5027  1.1846
 8721TIP3   OH247653   4.170   4.097  17.088 -0.2740  0.2044 -0.3772
 8721TIP3    H147654   4.179   4.091  17.183 -1.2877 -0.0100 -0.2790
 8721TIP3    H247655   4.088   4.051  17.069 -0.5664  1.0505 -1.2498
 8722TIP3   OH247656   6.377   0.880  11.504  0.6658  0.0675 -0.3042
 8722TIP3    H147657   6.464   0.901  11.471  1.7409 -1.2048  1.5622
 8722TIP3    H247658   6.366   0.936  11.581  0.1143 -0.2732 -0.1289
 8723TIP3   OH247659   0.422   0.703  12.626  0.7247  0.1162  0.0785
 8723TIP3    H147660   0.507   0.720  12.665  0.1691  0.2596  1.2937
 8723TIP3    H247661   0.400   0.784  12.580  1.2343  0.0867 -0.2199
 8724TIP3   OH247662   6.138   3.908  12.305  0.5368 -0.3331  0.1226
 8724TIP3    H147663   6.170   3.890  12.394 -0.5682  0.4873  0.7178
 8724TIP3    H247664   6.098   3.826  12.277 -0.1886 -0.2670  0.8958
 8725TIP3   OH247665   2.002   3.301  13.335  0.0034  0.1573  0.5088
 8725TIP3    H147666   1.985   3.208  13.345 -0.4655  0.0068 -1.4278
 8725TIP3    H247667   2.079   3.318  13.390  1.1168 -1.7000 -0.4075
 8726TIP3   OH247668   4.733   0.991   0.963 -0.4263  0.0034 -0.4382
 8726TIP3    H147669   4.816   0.945   0.949 -0.8445 -1.4554  1.3680
 8726TIP3    H247670   4.677   0.925   1.005 -1.8172  1.5406  0.1993
 8727TIP3   OH247671   0.795   1.320  15.465 -0.3640 -0.2150 -0.1151
 8727TIP3    H147672   0.795   1.358  15.377  0.0381  0.4820  0.1735
 8727TIP3    H247673   0.863   1.253  15.463 -1.1829 -1.0514 -0.6740
 8728TIP3   OH247674   1.447   2.139  11.205  0.4709 -0.1011 -0.1950
 8728TIP3    H147675   1.463   2.095  11.122 -0.8556  0.3145 -0.6897
 8728TIP3    H247676   1.414   2.070  11.263  3.6055 -0.9444  0.8017
 8729TIP3   OH247677   2.908   4.446   5.199 -0.3339  0.0864  0.5068
 8729TIP3    H147678   2.970   4.401   5.141 -1.3798  2.3359 -2.5334
 8729TIP3    H247679   2.849   4.376   5.228  1.4339 -1.4673  0.6124
 8730TIP3   OH247680   4.171   5.394   4.342  0.0127 -0.2231  0.2480
 8730TIP3    H147681   4.243   5.331   4.344 -0.1090 -0.3696  0.0279
 8730TIP3    H247682   4.191   5.452   4.268 -1.2715 -1.6688 -1.2978
 8731TIP3   OH247683   1.280   1.466   4.710  0.0811  0.3117  0.2216
 8731TIP3    H147684   1.318   1.390   4.664  1.9038  1.2390  0.1378
 8731TIP3    H247685   1.249   1.523   4.639 -0.7687 -0.0661  0.2739
 8732TIP3   OH247686   2.461   0.792  11.114 -0.6510  0.4018  0.2496
 8732TIP3    H147687   2.538   0.832  11.155  0.6065  0.2328 -1.8143
 8732TIP3    H247688   2.408   0.761  11.188  1.0650  0.8474  1.7448
 8733TIP3   OH247689   0.368   2.087  12.047  0.2648 -0.7386 -0.6596
 8733TIP3    H147690   0.350   2.108  11.956 -0.8582 -0.0929 -0.3154
 8733TIP3    H247691   0.383   2.172  12.089 -0.7170 -0.8901  0.0393
 8734TIP3   OH247692   1.970   4.950  13.584  0.0326  0.0391 -0.3540
 8734TIP3    H147693   1.961   5.036  13.544 -0.9602 -0.4112 -1.1401
 8734TIP3    H247694   2.026   4.901  13.524  0.8913  0.2339  0.2726
 8735TIP3   OH247695   4.440   5.700   1.357 -0.1737 -0.5493 -0.6752
 8735TIP3    H147696   4.426   5.771   1.295 -1.1696 -1.7108 -1.8449
 8735TIP3    H247697   4.361   5.646   1.351  1.6331 -3.3373 -2.0077
 8736TIP3   OH247698   1.725   5.136  14.719  0.5421  0.0255 -1.5486
 8736TIP3    H147699   1.771   5.209  14.761  1.3087 -1.6003  0.6388
 8736TIP3    H247700   1.633   5.160  14.725  0.7012  0.3516  0.2037
 8737TIP3   OH247701   2.401   6.239   3.450  0.0245 -0.5314 -0.4568
 8737TIP3    H147702   2.448   6.257   3.532  2.6075 -0.9027 -1.7391
 8737TIP3    H247703   2.384   6.326   3.413  0.2549 -0.3953 -0.2482
 8738TIP3   OH247704   2.623   3.420  15.959 -0.4015 -0.0408  0.1090
 8738TIP3    H147705   2.643   3.384  15.872 -0.1492  0.6042 -0.1003
 8738TIP3    H247706   2.537   3.459  15.949  0.3713  1.6174 -0.3490
 8739TIP3   OH247707   6.546   1.238  11.242 -0.0642 -0.0983  0.1633
 8739TIP3    H147708   6.457   1.243  11.209  0.5083  1.2623 -1.2998
 8739TIP3    H247709   6.599   1.285  11.177  1.9981 -2.3507  0.0677
 8740TIP3   OH247710   5.534   3.611   4.407  0.0364  0.1564 -0.0214
 8740TIP3    H147711   5.439   3.622   4.402  0.2814  2.7529 -0.4057
 8740TIP3    H247712   5.549   3.569   4.491 -1.3745  1.1414  0.7534
 8741TIP3   OH247713   3.525   5.746   3.880 -0.0198  0.0517 -0.4181
 8741TIP3    H147714   3.536   5.653   3.857 -0.6398  0.1791 -1.2721
 8741TIP3    H247715   3.497   5.787   3.799 -3.3907  0.3367  0.7448
 8742TIP3   OH247716   4.120   0.264  16.954  0.1562  0.4458 -0.5121
 8742TIP3    H147717   4.161   0.332  17.007  1.6679 -1.3467  0.7196
 8742TIP3    H247718   4.039   0.243  17.001  1.5896 -1.2963  1.4004
 8743TIP3   OH247719   1.685   1.973  13.978  0.2720 -0.6356 -0.1652
 8743TIP3    H147720   1.726   1.939  13.898 -1.5848  2.7545 -2.8405
 8743TIP3    H247721   1.597   1.935  13.978 -0.8922  1.7344 -1.7563
 8744TIP3   OH247722   4.453   1.189  14.644 -0.0436 -0.0948  0.3863
 8744TIP3    H147723   4.435   1.097  14.665  0.7323 -0.2784  0.3014
 8744TIP3    H247724   4.380   1.215  14.587 -0.1625 -0.7284  0.2347
 8745TIP3   OH247725   2.731   1.687   2.937  0.0702 -0.0772 -0.2809
 8745TIP3    H147726   2.658   1.626   2.929  0.1676  0.0717 -3.2301
 8745TIP3    H247727   2.692   1.773   2.923  0.5489  0.1728 -0.0933
 8746TIP3   OH247728   3.095   5.964   5.589 -0.2591 -0.1394 -0.9003
 8746TIP3    H147729   3.182   5.997   5.570  0.7815 -1.8847  0.4660
 8746TIP3    H247730   3.096   5.874   5.556 -1.5355 -0.1987 -0.8276
 8747TIP3   OH247731   6.042   3.365  13.534  0.1676  0.0789 -0.1657
 8747TIP3    H147732   6.060   3.287  13.586  0.5977 -0.6340 -1.3420
 8747TIP3    H247733   6.065   3.340  13.444 -1.3251  0.9893 -0.8421
 8748TIP3   OH247734   4.582   6.365   5.993  0.0896 -0.2274 -0.0814
 8748TIP3    H147735   4.523   6.418   6.046  0.2325 -0.4535  0.3076
 8748TIP3    H247736   4.666   6.368   6.039  0.1422 -0.6561 -0.1413
 8749TIP3   OH247737   4.669   3.193  12.354 -0.2715 -0.4878 -0.1298
 8749TIP3    H147738   4.697   3.108  12.389  0.7432  0.3011  1.0796
 8749TIP3    H247739   4.610   3.228  12.421  1.2777  0.8158  0.6438
 8750TIP3   OH247740   4.601   1.722  11.361  0.5397  0.1159  0.5147
 8750TIP3    H147741   4.507   1.719  11.378  0.3894  0.0762 -0.2957
 8750TIP3    H247742   4.617   1.813  11.335  0.5249 -0.1520 -0.4439
 8751TIP3   OH247743   0.026   2.152  11.767 -0.4344  0.2140 -0.2935
 8751TIP3    H147744   0.030   2.109  11.852  2.5084  3.8739  1.7282
 8751TIP3    H247745  -0.065   2.179  11.758 -0.9913 -1.0049  1.2501
 8752TIP3   OH247746   0.547   4.927  15.039  0.1094 -1.1740  0.6090
 8752TIP3    H147747   0.545   5.021  15.020 -1.9090 -1.1676  0.6964
 8752TIP3    H247748   0.574   4.921  15.131 -1.1614 -0.5847  1.0325
 8753TIP3   OH247749   4.007   2.030   3.081 -0.2012 -0.1759 -0.4078
 8753TIP3    H147750   4.052   2.110   3.108 -0.7241 -0.3245  0.9812
 8753TIP3    H247751   3.951   2.058   3.007  1.0759  0.2918 -1.2258
 8754TIP3   OH247752   6.795   6.452   2.945 -0.0395  0.2084 -0.3398
 8754TIP3    H147753   6.719   6.510   2.933  0.2575  0.5219 -0.7352
 8754TIP3    H247754   6.793   6.429   3.038 -1.7108 -1.3113 -0.6764
 8755TIP3   OH247755   6.598   0.804   2.234  0.4485  0.2725  0.4457
 8755TIP3    H147756   6.626   0.721   2.195  2.2435  0.3925  1.3663
 8755TIP3    H247757   6.576   0.781   2.325 -0.5645  0.5618  0.2898
 8756TIP3   OH247758   1.103   5.757   0.536  0.5411 -0.0415  0.0532
 8756TIP3    H147759   1.121   5.851   0.539  3.5171 -0.5022 -0.3015
 8756TIP3    H247760   1.029   5.745   0.596 -1.4112  2.7313 -1.5137
 8757TIP3   OH247761   6.479   1.607  16.373  0.1516 -0.5293 -0.2321
 8757TIP3    H147762   6.501   1.692  16.410 -1.7930  0.3469 -0.9157
 8757TIP3    H247763   6.431   1.561  16.442 -1.7676  0.3384 -0.8948
 8758TIP3   OH247764   3.058   0.681  13.951  0.0750  0.1387  0.0106
 8758TIP3    H147765   3.070   0.588  13.931 -1.4044 -0.3192  1.1486
 8758TIP3    H247766   3.058   0.723  13.865  2.9297 -0.5628 -0.4656
 8759TIP3   OH247767   5.379   1.209  12.807 -0.1129  0.0822  0.2394
 8759TIP3    H147768   5.439   1.186  12.737 -2.0304  0.5159 -1.6600
 8759TIP3    H247769   5.385   1.304  12.814 -0.6660  0.1491 -0.0893
 8760TIP3   OH247770   6.486   3.892   5.942  0.2450 -0.8503  0.4877
 8760TIP3    H147771   6.468   3.818   6.000 -0.7954 -0.1731  1.0698
 8760TIP3    H247772   6.560   3.864   5.889  0.1866 -2.1124  1.0417
 8761TIP3   OH247773   3.159   0.215  11.149 -0.3492 -0.6310 -0.1201
 8761TIP3    H147774   3.080   0.250  11.107  0.0404  0.3878 -0.0301
 8761TIP3    H247775   3.211   0.180  11.077  0.3777  1.2241 -0.5462
 8762TIP3   OH247776   2.302   2.487  13.374 -0.5412 -0.8334 -0.4650
 8762TIP3    H147777   2.262   2.573  13.363  0.3102 -0.4945 -1.0595
 8762TIP3    H247778   2.253   2.429  13.315 -0.3529 -0.4891 -0.9670
 8763TIP3   OH247779   4.880   0.085  13.402  0.2156  0.1909  0.2150
 8763TIP3    H147780   4.905   0.170  13.439 -0.6511 -0.6315  2.9659
 8763TIP3    H247781   4.802   0.059  13.452 -0.1878 -1.7614 -1.2905
 8764TIP3   OH247782   1.190   5.588  15.249  0.0446  0.1657  0.0652
 8764TIP3    H147783   1.282   5.569  15.231 -0.4264 -1.6305 -0.6937
 8764TIP3    H247784   1.181   5.682  15.231  1.5584  0.2095 -0.6186
 8765TIP3   OH247785   0.371   2.777   3.262 -0.1996 -0.4066  0.2489
 8765TIP3    H147786   0.328   2.862   3.270  0.4758  0.0453 -0.6604
 8765TIP3    H247787   0.442   2.780   3.327  0.3197  0.0634 -0.3188
 8766TIP3   OH247788   0.815   5.335   2.132  0.0417  0.3567  0.1765
 8766TIP3    H147789   0.897   5.384   2.125  0.5622 -0.1879  1.8851
 8766TIP3    H247790   0.762   5.385   2.194 -1.0509  0.8286 -1.0855
 8767TIP3   OH247791   1.060   2.008   0.651 -0.9253 -0.1796 -0.0844
 8767TIP3    H147792   1.063   2.034   0.743  1.3213  0.0430 -0.1643
 8767TIP3    H247793   1.127   1.940   0.643 -2.8602 -2.0986 -1.0536
 8768TIP3   OH247794   5.222   5.598   6.009 -0.0275 -0.2527 -0.1486
 8768TIP3    H147795   5.203   5.655   6.084  0.0195  1.0497 -1.0951
 8768TIP3    H247796   5.144   5.602   5.955 -0.4905 -2.0642  0.3259
 8769TIP3   OH247797   2.619   2.113  12.882 -0.1390  0.3919  0.2879
 8769TIP3    H147798   2.662   2.178  12.826  0.6141 -0.2587  0.0882
 8769TIP3    H247799   2.609   2.036  12.826  0.7359 -0.3085  1.0635
 8770TIP3   OH247800   2.449   1.892  15.134 -0.0205  0.2063 -0.0017
 8770TIP3    H147801   2.485   1.817  15.087  1.1481 -0.7210  2.2460
 8770TIP3    H247802   2.360   1.901  15.099  0.8236 -0.2514 -2.4860
 8771TIP3   OH247803   3.098   1.892   3.302  0.2640 -0.4599  0.4358
 8771TIP3    H147804   3.186   1.888   3.266 -0.0062  1.2064 -0.5351
 8771TIP3    H247805   3.042   1.855   3.234 -0.1479  1.8730 -0.5804
 8772TIP3   OH247806   3.076   6.499  14.986  0.0910  0.1354 -0.0325
 8772TIP3    H147807   3.048   6.551  14.910  0.5896  1.2020  0.4954
 8772TIP3    H247808   3.129   6.428  14.948 -0.7084 -0.0912 -0.7725
 8773TIP3   OH247809   2.091   0.630  16.913  0.7186 -0.0051  0.2366
 8773TIP3    H147810   2.102   0.694  16.984 -2.5231  1.4508 -0.4233
 8773TIP3    H247811   1.997   0.621  16.902  1.0806 -1.7922 -2.5362
 8774TIP3   OH247812   5.635   1.261   5.571 -0.7652  0.2499 -0.5644
 8774TIP3    H147813   5.599   1.184   5.615  2.2395 -1.3246 -0.5903
 8774TIP3    H247814   5.631   1.330   5.637 -4.1087  0.4096 -0.7429
 8775TIP3   OH247815   3.913   4.604   1.999  0.0076 -0.2147  0.2601
 8775TIP3    H147816   3.916   4.683   1.945 -0.2615  0.5083  1.2500
 8775TIP3    H247817   3.938   4.533   1.941  1.3081  0.7432 -0.4007
 8776TIP3   OH247818   4.369   5.486  15.066 -0.0069  0.5063 -0.1364
 8776TIP3    H147819   4.335   5.539  15.139  1.1952  1.3165 -0.1285
 8776TIP3    H247820   4.441   5.436  15.105  0.1898  0.4257 -0.6006
 8777TIP3   OH247821   4.616   1.734   4.932  0.2078 -0.3655  0.6150
 8777TIP3    H147822   4.551   1.693   4.989 -1.9824  0.4386 -1.1180
 8777TIP3    H247823   4.589   1.825   4.926  1.6047  0.0364 -0.0773
 8778TIP3   OH247824   4.402   3.122  13.172  0.1407 -0.6461  0.2316
 8778TIP3    H147825   4.387   3.034  13.136  0.6359 -0.3835 -0.6362
 8778TIP3    H247826   4.369   3.117  13.262 -1.9516 -1.0673 -0.5017
 8779TIP3   OH247827   0.180   1.025   4.737 -0.2255 -0.2310 -0.2853
 8779TIP3    H147828   0.114   1.072   4.685 -0.4760  1.0451  1.1100
 8779TIP3    H247829   0.263   1.062   4.710 -0.3587  0.4623  0.2285
 8780TIP3   OH247830   3.820   4.647   3.319  0.4770  0.6294 -0.6816
 8780TIP3    H147831   3.735   4.613   3.344  0.2174  1.6062 -0.1663
 8780TIP3    H247832   3.854   4.585   3.255 -0.3549 -0.0888 -0.4325
 8781TIP3   OH247833   6.405   0.188  15.116 -0.1839 -0.0175 -0.3091
 8781TIP3    H147834   6.323   0.221  15.154  1.1494  0.1100  2.7398
 8781TIP3    H247835   6.401   0.215  15.025 -2.4294  2.2126  0.3219
 8782TIP3   OH247836   2.943   4.317   2.711  0.1011  0.1296 -0.0447
 8782TIP3    H147837   3.029   4.343   2.743  0.6948 -0.0541 -1.4388
 8782TIP3    H247838   2.888   4.394   2.725  0.7455  0.6038 -0.0791
 8783TIP3   OH247839   0.163   0.551  13.461  0.4606  0.2066 -0.1839
 8783TIP3    H147840   0.196   0.486  13.523  0.2990  0.4102  0.1195
 8783TIP3    H247841   0.239   0.602  13.436  1.0631 -1.5546 -2.2314
 8784TIP3   OH247842   5.833   3.205  11.532 -0.1045 -0.3556  0.3313
 8784TIP3    H147843   5.890   3.237  11.601 -2.0620  2.2565  0.9200
 8784TIP3    H247844   5.892   3.186  11.459  1.7239 -0.2946  1.7274
 8785TIP3   OH247845   0.954   2.061  13.968 -0.4959 -0.4783 -0.4343
 8785TIP3    H147846   0.872   2.111  13.970 -0.3942 -0.1336 -2.4297
 8785TIP3    H247847   0.988   2.067  14.057 -1.7707  0.8487  0.0096
 8786TIP3   OH247848   6.810   5.699  12.371 -0.2109 -0.7826 -0.0030
 8786TIP3    H147849   6.791   5.748  12.291  1.8564  0.0388 -0.0446
 8786TIP3    H247850   6.750   5.735  12.436  0.1559  0.6931 -0.4430
 8787TIP3   OH247851   4.702   2.268  12.683  0.7253  0.1484 -0.1842
 8787TIP3    H147852   4.678   2.213  12.609  0.9069  1.1020 -0.9681
 8787TIP3    H247853   4.796   2.282  12.672  1.3952 -2.0605  1.8481
 8788TIP3   OH247854   3.600   4.346  12.398  0.2191 -0.2932 -0.4743
 8788TIP3    H147855   3.662   4.395  12.345 -1.4675  0.6474 -1.6576
 8788TIP3    H247856   3.645   4.333  12.482  2.2464 -0.2600 -1.5036
 8789TIP3   OH247857   4.087   0.504   5.486 -0.0690  0.1001  0.0533
 8789TIP3    H147858   4.174   0.470   5.465 -0.0391  0.8248 -1.0599
 8789TIP3    H247859   4.050   0.438   5.545  0.6101 -1.0430 -0.7414
 8790TIP3   OH247860   2.190   1.196   2.072  0.2016 -0.1293 -0.2039
 8790TIP3    H147861   2.184   1.245   1.990  1.4998  0.4484  0.0053
 8790TIP3    H247862   2.268   1.232   2.115 -0.4010 -0.4801  1.2446
 8791TIP3   OH247863   1.015   3.667   0.950 -0.0632  0.2961 -0.6458
 8791TIP3    H147864   0.944   3.603   0.943  1.2542 -1.1131 -1.7979
 8791TIP3    H247865   1.084   3.621   0.998  1.2775  0.4535 -2.3108
 8792TIP3   OH247866   2.671   4.767   3.102 -0.3988  0.1502  0.2221
 8792TIP3    H147867   2.720   4.762   3.184 -1.3597  1.0452  0.8619
 8792TIP3    H247868   2.656   4.860   3.088  0.8132  0.1315 -1.6319
 8793TIP3   OH247869   4.636   2.234   1.697 -0.0717  0.1965 -0.4322
 8793TIP3    H147870   4.598   2.166   1.751  0.5414 -0.1297 -0.4067
 8793TIP3    H247871   4.635   2.198   1.608 -1.1393  0.7567 -0.6618
 8794TIP3   OH247872   3.587   0.372   4.322 -0.2110  0.1266  0.1680
 8794TIP3    H147873   3.678   0.359   4.349 -0.7685 -0.2153  2.0084
 8794TIP3    H247874   3.550   0.430   4.388 -1.5553 -0.4047 -0.0787
 8795TIP3   OH247875   3.985   4.801  12.371 -0.2991  0.5961 -0.0408
 8795TIP3    H147876   4.013   4.835  12.286 -1.5911  0.2606 -0.6097
 8795TIP3    H247877   4.054   4.830  12.431  0.9925  0.2504 -1.2968
 8796TIP3   OH247878   6.029   2.253   2.813 -0.6339  0.1042 -0.7080
 8796TIP3    H147879   6.033   2.213   2.726 -2.9565  1.6898 -1.6316
 8796TIP3    H247880   5.943   2.229   2.847 -0.3624  0.7674  0.5350
 8797TIP3   OH247881   0.667   5.225   2.847 -0.4867 -0.2757  0.4016
 8797TIP3    H147882   0.702   5.136   2.851 -1.1987 -0.5315  1.1653
 8797TIP3    H247883   0.632   5.241   2.935 -0.0443  0.8945  0.3853
 8798TIP3   OH247884   3.492   5.865   0.467  0.5263  0.4295 -0.1955
 8798TIP3    H147885   3.501   5.862   0.562  1.0237 -0.2786 -0.2608
 8798TIP3    H247886   3.425   5.932   0.451 -0.6216 -0.4598  0.7184
 8799TIP3   OH247887   3.598   2.600   2.605  0.3146  0.2193  0.1680
 8799TIP3    H147888   3.652   2.582   2.683 -0.1749  2.0709  0.9945
 8799TIP3    H247889   3.512   2.563   2.627 -0.0672  1.4719  0.9249
 8800TIP3   OH247890   4.895   4.110   2.612  0.3811  0.0056 -0.4518
 8800TIP3    H147891   4.911   4.167   2.537 -0.8622  1.8353  0.6032
 8800TIP3    H247892   4.896   4.168   2.688 -1.0974 -1.3408  0.6694
 8801TIP3   OH247893   0.605   0.305   1.362  0.0321  0.0592  0.2856
 8801TIP3    H147894   0.548   0.330   1.289 -2.4492 -0.5449  1.8828
 8801TIP3    H247895   0.661   0.237   1.326 -0.7345  0.1657 -1.2055
 8802TIP3   OH247896   3.340   1.596   4.590  0.1370 -0.0861 -0.0246
 8802TIP3    H147897   3.405   1.543   4.637 -0.0649 -1.0650 -0.8106
 8802TIP3    H247898   3.256   1.561   4.619 -0.0251  0.6584  0.4060
 8803TIP3   OH247899   5.305   3.220   5.346  0.4962 -0.3128 -0.5111
 8803TIP3    H147900   5.343   3.206   5.433  0.0091 -2.9644 -0.6501
 8803TIP3    H247901   5.380   3.213   5.286  0.6979  0.6837 -0.3982
 8804TIP3   OH247902   6.057   2.677   6.723 -0.7466 -0.2543 -0.2791
 8804TIP3    H147903   6.027   2.609   6.663  3.2277  0.0346 -3.0289
 8804TIP3    H247904   6.120   2.633   6.780  0.5576  0.6721 -0.9331
 8805TIP3   OH247905   2.143   2.174   5.792  0.4316  0.0133 -0.2964
 8805TIP3    H147906   2.226   2.222   5.791  0.6391 -0.0965  2.4781
 8805TIP3    H247907   2.094   2.214   5.864 -1.5502 -0.5744 -1.2504
 8806TIP3   OH247908   1.411   6.621  14.300  0.3192  0.2887  0.5524
 8806TIP3    H147909   1.326   6.578  14.288  1.1596 -1.5692  0.8910
 8806TIP3    H247910   1.403   6.666  14.385 -0.4342  0.4086  0.4250
 8807TIP3   OH247911   6.625   5.134   4.964 -0.0517  0.8443 -0.1293
 8807TIP3    H147912   6.609   5.100   5.052  0.3177 -2.1054 -1.0736
 8807TIP3    H247913   6.546   5.184   4.943 -1.1084 -0.2373  1.0892
 8808TIP3   OH247914   0.336   4.826   1.381  0.0332 -0.4054  0.5307
 8808TIP3    H147915   0.374   4.868   1.459 -1.7740  0.5762  0.9497
 8808TIP3    H247916   0.334   4.896   1.315  2.1672 -1.3954 -0.7113
 8809TIP3   OH247917   1.202   5.691   5.641 -0.2180 -0.4324  0.6593
 8809TIP3    H147918   1.267   5.686   5.571 -0.5640  0.3577  0.2745
 8809TIP3    H247919   1.124   5.649   5.605 -0.3974 -0.0213  0.5718
 8810TIP3   OH247920   6.025   2.501   3.056 -0.3039 -0.4631 -0.1311
 8810TIP3    H147921   6.111   2.534   3.083  1.2821 -2.2796 -2.4818
 8810TIP3    H247922   6.029   2.407   3.075 -1.4181 -0.7246 -1.0733
 8811TIP3   OH247923   6.740   6.196   2.518 -0.5572  0.0082  0.5440
 8811TIP3    H147924   6.656   6.152   2.508  0.4952 -1.7799 -1.1684
 8811TIP3    H247925   6.767   6.176   2.608 -1.6397  0.0783  0.9005
 8812TIP3   OH247926   1.132   5.567   1.079  0.4584  0.5320  0.1709
 8812TIP3    H147927   1.060   5.546   1.138  0.2731  0.4790 -0.0719
 8812TIP3    H247928   1.129   5.662   1.068  0.5527  0.5522  0.3237
 8813TIP3   OH247929   0.610   6.437  13.085 -0.4466  0.0201  0.2675
 8813TIP3    H147930   0.684   6.460  13.029 -0.3021 -0.2386  0.3515
 8813TIP3    H247931   0.604   6.342  13.080  0.2900 -0.1187  1.6034
 8814TIP3   OH247932   3.818   2.220  15.510  0.9647  0.5667 -0.5286
 8814TIP3    H147933   3.756   2.237  15.581 -0.0024 -1.2973 -0.8697
 8814TIP3    H247934   3.831   2.305  15.469  0.4941  1.4297  1.0426
 8815TIP3   OH247935   6.704   1.689  15.028 -0.0834 -0.7287  0.0661
 8815TIP3    H147936   6.652   1.656  15.101 -0.8942 -0.6964 -0.4886
 8815TIP3    H247937   6.655   1.764  14.995  0.0909 -0.9589 -0.7324
 8816TIP3   OH247938   1.166   5.761  15.593 -0.3344  0.2356  0.0621
 8816TIP3    H147939   1.164   5.721  15.680 -2.2211  1.7910  0.7911
 8816TIP3    H247940   1.117   5.700  15.538 -2.2942  0.9234  0.9391
 8817TIP3   OH247941   6.204   5.884   1.608  0.3263 -0.3371  0.4827
 8817TIP3    H147942   6.109   5.874   1.599  0.3004 -1.3256  1.6558
 8817TIP3    H247943   6.215   5.946   1.680  0.5774  1.1512 -0.7996
 8818TIP3   OH247944   5.301   1.837   1.697  0.4582  0.0722 -0.0503
 8818TIP3    H147945   5.282   1.755   1.744 -1.6191  1.1772  1.1553
 8818TIP3    H247946   5.251   1.829   1.616  0.8220 -0.1321 -0.2580
 8819TIP3   OH247947   0.988   4.681   6.480 -0.3305  1.0007  0.2880
 8819TIP3    H147948   0.935   4.679   6.559  0.1281  2.2351  0.6581
 8819TIP3    H247949   1.049   4.608   6.489 -0.7017  0.7465  0.7650
 8820TIP3   OH247950   4.760   4.273   0.147 -0.8600  0.0829  0.0930
 8820TIP3    H147951   4.799   4.289   0.061 -0.3737  0.1953  0.3323
 8820TIP3    H247952   4.828   4.296   0.209 -0.2582 -2.4351  0.4766
 8821TIP3   OH247953   5.283   4.774  15.783  0.5184  0.5447  0.3967
 8821TIP3    H147954   5.318   4.848  15.831  0.0917  0.2125  1.2425
 8821TIP3    H247955   5.192   4.767  15.813  0.5727 -0.3496  0.3741
 8822TIP3   OH247956   3.450   0.630   6.626  0.0808 -0.3960 -0.4393
 8822TIP3    H147957   3.540   0.636   6.659  0.7467  3.4293 -2.4528
 8822TIP3    H247958   3.437   0.711   6.578 -3.8761 -1.6742 -1.8464
 8823TIP3   OH247959   6.759   4.508  15.136 -0.1976 -0.0059  0.1813
 8823TIP3    H147960   6.668   4.491  15.111  0.3232 -1.1665 -1.0794
 8823TIP3    H247961   6.808   4.494  15.055  1.1406  0.1911  0.9451
 8824TIP3   OH247962   3.006   0.820   3.260 -0.4343 -0.1183  0.0752
 8824TIP3    H147963   3.076   0.877   3.227 -1.1339  0.0043 -1.2511
 8824TIP3    H247964   3.010   0.742   3.204 -1.6799  0.1128 -0.3530
 8825TIP3   OH247965   5.216   5.915  13.375  0.5280  0.2419 -0.7314
 8825TIP3    H147966   5.206   5.950  13.464 -1.5947 -2.0646  0.0807
 8825TIP3    H247967   5.215   5.992  13.318 -2.0151  1.6855  1.0317
 8826TIP3   OH247968   4.123   1.026   4.071  0.7726  0.2318  0.1471
 8826TIP3    H147969   4.093   0.959   4.132 -1.2094  0.4100 -0.5759
 8826TIP3    H247970   4.198   0.987   4.027 -0.6160 -1.7365 -0.5908
 8827TIP3   OH247971   3.543   6.097  14.414 -0.3750  0.6033 -0.1770
 8827TIP3    H147972   3.621   6.151  14.404 -0.5572  1.1506  1.1753
 8827TIP3    H247973   3.576   6.008  14.423  0.0559  0.7530 -0.2642
 8828TIP3   OH247974   1.810   3.869  12.496 -0.1016 -0.1321  0.0340
 8828TIP3    H147975   1.769   3.783  12.483  1.2272 -0.6434 -0.9438
 8828TIP3    H247976   1.831   3.871  12.589  0.0239 -0.9472  0.0311
 8829TIP3   OH247977   3.419   2.823  12.557  0.0996 -0.7440 -0.4076
 8829TIP3    H147978   3.506   2.806  12.521 -0.0647 -0.1211 -1.1097
 8829TIP3    H247979   3.436   2.861  12.643  0.4942 -2.0299  0.1156
 8830TIP3   OH247980   2.424   3.076   1.891  0.0939 -0.0671  0.0987
 8830TIP3    H147981   2.410   3.068   1.797 -0.7524 -1.3224  0.3024
 8830TIP3    H247982   2.337   3.095   1.926  0.7712  2.9320  0.4423
 8831TIP3   OH247983   1.873   5.719  12.560 -0.2896  0.1640 -0.4243
 8831TIP3    H147984   1.932   5.669  12.504  0.3533  0.1172  0.2635
 8831TIP3    H247985   1.932   5.775  12.612 -0.7112 -0.8966  1.2789
 8832TIP3   OH247986   5.544   0.453  12.141 -0.8611  0.1117  0.5281
 8832TIP3    H147987   5.460   0.407  12.133 -0.4188 -0.3837 -2.6622
 8832TIP3    H247988   5.522   0.538  12.178 -3.0548  0.4714 -1.3684
 8833TIP3   OH247989   5.841   5.753   1.324  0.0649 -0.4164 -0.2766
 8833TIP3    H147990   5.799   5.770   1.240 -0.2130  0.3590  0.0086
 8833TIP3    H247991   5.791   5.680   1.361 -1.3340  0.7471  0.2356
 8834TIP3   OH247992   3.936   2.615  10.891  0.3984 -0.1052 -0.1800
 8834TIP3    H147993   4.013   2.600  10.835 -0.5461  2.1401 -2.3016
 8834TIP3    H247994   3.877   2.542  10.871  1.8276 -1.7818  1.3718
 8835TIP3   OH247995   0.557   4.890  16.407 -0.1548 -0.4189  0.0317
 8835TIP3    H147996   0.623   4.839  16.454 -1.1479 -3.0240 -1.1841
 8835TIP3    H247997   0.574   4.871  16.314 -2.2351 -0.7776 -0.3289
 8836TIP3   OH247998   3.903   2.898   4.038 -0.3440 -0.6993 -0.1251
 8836TIP3    H147999   3.875   2.963   4.102 -1.2454 -0.0105 -1.1679
 8836TIP3    H248000   3.945   2.949   3.969  2.4870 -1.5970  0.7881
 8837TIP3   OH248001   5.454   0.857  13.998 -0.2185 -0.3515  0.2843
 8837TIP3    H148002   5.521   0.858  14.066  1.0796  1.2214 -0.9334
 8837TIP3    H248003   5.481   0.789  13.937  1.2202  1.2696 -1.0037
 8838TIP3   OH248004   2.297   1.923  16.834 -0.3686  0.2891  0.1192
 8838TIP3    H148005   2.362   1.853  16.830 -0.7704 -0.0643 -0.3667
 8838TIP3    H248006   2.345   2.000  16.865 -0.1593 -0.4825  1.7936
 8839TIP3   OH248007   2.348   6.414   3.231  0.4668 -0.5253  0.6712
 8839TIP3    H148008   2.317   6.495   3.190  0.1447  0.0080  1.9186
 8839TIP3    H248009   2.294   6.346   3.191 -1.1276  0.1885  1.4834
 8840TIP3   OH248010   1.880   2.843   1.401 -0.2797  0.2312  0.2907
 8840TIP3    H148011   1.856   2.817   1.312  2.6574  2.8874 -1.4986
 8840TIP3    H248012   1.809   2.902   1.428  0.4847  2.3243 -1.9088
 8841TIP3   OH248013   5.848   6.077   1.484 -0.5703  0.5216 -1.0284
 8841TIP3    H148014   5.791   6.097   1.409 -0.5049 -0.5621 -1.3795
 8841TIP3    H248015   5.818   5.991   1.514  0.0127  0.5411 -0.3766
 8842TIP3   OH248016   1.109   1.238  12.187  0.2465 -0.0828  0.0639
 8842TIP3    H148017   1.130   1.180  12.260 -0.2108  0.1314  0.3705
 8842TIP3    H248018   1.015   1.253  12.194  0.4762  1.3870  0.5206
 8843TIP3   OH248019   1.721   0.559   2.795  0.0107  0.2560 -0.1464
 8843TIP3    H148020   1.815   0.552   2.816 -0.1687 -0.8270  0.3880
 8843TIP3    H248021   1.712   0.518   2.710 -0.0407 -0.0515  0.0055
 8844TIP3   OH248022   6.219   2.569  15.140 -0.5623  0.0545  0.8335
 8844TIP3    H148023   6.227   2.550  15.234 -0.8069 -1.6081  0.5525
 8844TIP3    H248024   6.183   2.489  15.103  1.1278  0.0461 -0.9424
 8845TIP3   OH248025   2.896   2.757  13.206 -0.3540  0.1716  0.5974
 8845TIP3    H148026   2.878   2.834  13.259  0.4101  0.3814  0.5730
 8845TIP3    H248027   2.818   2.703  13.213 -0.6385  0.6525  1.1419
 8846TIP3   OH248028   2.975   0.500   0.468 -0.0097  0.1818 -0.2410
 8846TIP3    H148029   3.042   0.529   0.406  0.6134 -1.0648 -0.1901
 8846TIP3    H248030   2.981   0.563   0.540  1.3893 -0.1119 -0.0618
 8847TIP3   OH248031   5.552   6.707   5.085  0.5248  0.2985  0.4534
 8847TIP3    H148032   5.492   6.736   5.153 -1.9730  2.0811 -2.2485
 8847TIP3    H248033   5.635   6.693   5.131 -1.4368 -0.6685  4.1180
 8848TIP3   OH248034   0.898   4.085   0.170 -0.1446  0.7100  0.1371
 8848TIP3    H148035   0.938   4.087   0.083  0.3534  2.9542  0.3569
 8848TIP3    H248036   0.888   4.177   0.194 -5.2858  0.4459  0.2280
 8849TIP3   OH248037   5.937   3.859   2.709  0.1209 -0.6468 -0.2095
 8849TIP3    H148038   5.902   3.886   2.794 -0.4028 -0.9102 -0.3337
 8849TIP3    H248039   6.031   3.877   2.714 -0.2141  1.4446 -0.3765
 8850TIP3   OH248040   1.007   3.527  14.933 -0.4336  0.5290  0.0991
 8850TIP3    H148041   0.992   3.528  15.028 -0.3003 -0.4860  0.1392
 8850TIP3    H248042   0.919   3.526  14.895 -0.4840  0.6207  0.2128
 8851TIP3   OH248043   6.689   3.122   2.554  0.5586 -0.1753 -0.5430
 8851TIP3    H148044   6.695   3.123   2.459  0.6661  1.0495 -0.5335
 8851TIP3    H248045   6.613   3.066   2.573 -0.8790  1.3850 -1.4453
 8852TIP3   OH248046   5.377   5.029   5.357 -0.2519  0.1651 -0.3583
 8852TIP3    H148047   5.308   4.998   5.298  0.3406 -2.6514  0.2790
 8852TIP3    H248048   5.459   5.002   5.315  0.2569 -0.2971  0.8794
 8853TIP3   OH248049   0.817   5.518   5.363 -0.3313  0.6465 -0.0370
 8853TIP3    H148050   0.856   5.462   5.296  1.5361 -1.1082  2.3459
 8853TIP3    H248051   0.733   5.476   5.383 -1.1045  1.4241 -1.4802
 8854TIP3   OH248052   6.796   2.809  14.847 -0.1507 -0.1351 -0.1498
 8854TIP3    H148053   6.889   2.802  14.823 -0.2567 -0.9457 -0.3531
 8854TIP3    H248054   6.765   2.719  14.848 -0.5979  0.0172  1.3035
 8855TIP3   OH248055   2.667   2.726   2.828  0.4288  0.6270 -0.2827
 8855TIP3    H148056   2.755   2.760   2.810 -0.1097  2.9249  0.9736
 8855TIP3    H248057   2.643   2.765   2.912 -0.5866 -2.5076  1.0122
 8856TIP3   OH248058   5.660   1.174   1.433  0.1340  0.1918  0.0635
 8856TIP3    H148059   5.621   1.109   1.492 -0.3266 -0.5346 -1.0132
 8856TIP3    H248060   5.742   1.199   1.476 -0.0707 -0.5103  0.8820
 8857TIP3   OH248061   3.318   5.805   3.355  0.4356  0.2218 -0.3507
 8857TIP3    H148062   3.384   5.864   3.319  0.2550  0.5308 -0.1769
 8857TIP3    H248063   3.365   5.724   3.371  0.5564  0.1223 -1.1415
 8858TIP3   OH248064   6.768   3.965   4.747 -0.3973  0.0086 -0.1925
 8858TIP3    H148065   6.674   3.948   4.747 -0.2200 -1.4153 -2.0630
 8858TIP3    H248066   6.787   3.991   4.657  1.0886 -0.3978 -0.0231
 8859TIP3   OH248067   0.916   6.622  16.405 -0.2068 -0.3433  0.3277
 8859TIP3    H148068   0.881   6.538  16.436 -1.9601  1.1526  2.7479
 8859TIP3    H248069   0.984   6.645  16.468 -1.2686  1.0385  1.0284
 8860TIP3   OH248070   1.042   0.365   3.385  0.2016 -0.0514 -0.0046
 8860TIP3    H148071   1.111   0.431   3.374 -0.3192  0.1264 -3.0460
 8860TIP3    H248072   0.962   0.416   3.398  0.1819 -0.1677  0.3381
 8861TIP3   OH248073   4.940   6.504   5.708  0.0949 -0.3935 -0.1161
 8861TIP3    H148074   4.864   6.557   5.683  1.0865  0.3149 -1.8460
 8861TIP3    H248075   4.913   6.414   5.690 -0.0226 -0.0658 -1.7694
 8862TIP3   OH248076   1.648   6.108   3.111 -0.2170  0.3614 -0.0488
 8862TIP3    H148077   1.654   6.025   3.158 -0.4255 -0.0325 -0.7134
 8862TIP3    H248078   1.630   6.172   3.179  0.8778  0.0148  0.6066
 8863TIP3   OH248079   6.595   3.062  13.246  0.3305  0.0630  0.2461
 8863TIP3    H148080   6.623   2.971  13.241  0.3485 -0.0506  1.7982
 8863TIP3    H248081   6.502   3.058  13.266 -0.1066  0.4292 -1.5207
 8864TIP3   OH248082   1.836   0.860  15.403  0.8058  0.2269  0.0393
 8864TIP3    H148083   1.751   0.896  15.428  0.5169 -0.0248 -0.5530
 8864TIP3    H248084   1.866   0.915  15.331  0.4234 -0.6076 -0.7821
 8865TIP3   OH248085   5.314   1.270   1.661 -0.2472  0.2311  0.1152
 8865TIP3    H148086   5.370   1.259   1.584 -1.0151  0.3980 -0.4804
 8865TIP3    H248087   5.362   1.229   1.732  0.4434  0.0082 -0.4710
 8866TIP3   OH248088   2.252   1.449  14.882 -0.4290  0.0729 -0.5681
 8866TIP3    H148089   2.323   1.425  14.942 -0.5839 -0.6007 -0.6499
 8866TIP3    H248090   2.251   1.380  14.817 -2.7742 -1.3189  0.8163
 8867TIP3   OH248091   5.411   3.695  14.954  0.1631  0.1652  0.0823
 8867TIP3    H148092   5.385   3.606  14.978  1.0076  0.4105  2.1238
 8867TIP3    H248093   5.331   3.735  14.920 -0.7722 -0.7360  1.1465
 8868TIP3   OH248094   1.054   4.113  12.618 -0.6508  0.6963 -0.3382
 8868TIP3    H148095   0.975   4.074  12.655 -1.4237  0.7238 -1.8695
 8868TIP3    H248096   1.055   4.202  12.654 -0.6446  0.3164  0.6345
 8869TIP3   OH248097   0.813   5.597  14.541  0.4616  1.1526  0.7906
 8869TIP3    H148098   0.896   5.612  14.497  1.3154 -0.7125  1.6482
 8869TIP3    H248099   0.834   5.595  14.634 -0.4350  0.1953  1.0030
 8870TIP3   OH248100   2.771   4.399  15.471 -0.1579 -0.1586 -0.1224
 8870TIP3    H148101   2.815   4.316  15.452 -0.3542 -0.5106  0.9430
 8870TIP3    H248102   2.841   4.457  15.499 -0.3051 -0.6448  1.3252
 8871TIP3   OH248103   4.170   3.487  11.708 -0.0597 -0.1562 -0.2773
 8871TIP3    H148104   4.094   3.450  11.663 -0.7552 -0.3923  1.0265
 8871TIP3    H248105   4.239   3.489  11.642 -0.9032 -0.9088 -1.2117
 8872TIP3   OH248106   1.059   6.793   3.382  0.4509 -0.3597  0.1800
 8872TIP3    H148107   1.085   6.739   3.456  0.3213  0.4433  0.8227
 8872TIP3    H248108   0.971   6.824   3.405  1.0166  1.1350  0.4094
 8873TIP3   OH248109   4.835   2.163   2.766 -0.4359  0.1588 -0.6986
 8873TIP3    H148110   4.845   2.192   2.676 -0.7766  1.0910 -0.4447
 8873TIP3    H248111   4.741   2.162   2.782 -0.3622  0.5827 -0.1800
 8874TIP3   OH248112   6.640   4.153  14.374 -0.0422 -0.4184  0.0537
 8874TIP3    H148113   6.720   4.130  14.421 -0.4902 -1.4713  0.3326
 8874TIP3    H248114   6.616   4.239  14.408  0.2287 -0.6985  0.9729
 8875TIP3   OH248115   1.865   6.423   1.334 -0.4744 -0.0339 -0.0120
 8875TIP3    H148116   1.826   6.404   1.419  0.6411 -0.9511  0.3332
 8875TIP3    H248117   1.937   6.359   1.327 -0.3162  0.2850 -1.4696
 8876TIP3   OH248118   5.802   6.237   3.620  0.7963 -0.1309 -0.6987
 8876TIP3    H148119   5.843   6.309   3.573 -0.9641  0.3386 -1.6251
 8876TIP3    H248120   5.708   6.252   3.610  0.3169 -0.5750  2.1573
 8877TIP3   OH248121   5.027   1.837   3.077 -0.1620 -0.3544  0.1543
 8877TIP3    H148122   4.945   1.881   3.053  0.3082  0.3413 -0.2447
 8877TIP3    H248123   5.064   1.893   3.146 -0.4298 -1.1358  0.9448
 8878TIP3   OH248124   6.083   6.544  12.865 -0.2082  0.1967  1.0433
 8878TIP3    H148125   6.103   6.451  12.875  0.5471  0.4228  1.7807
 8878TIP3    H248126   6.093   6.561  12.772  0.4462 -0.2875  1.0165
 8879TIP3   OH248127   0.685   5.380   4.500 -0.1017 -0.6093 -0.0612
 8879TIP3    H148128   0.712   5.407   4.588  1.0488 -0.4652 -0.4421
 8879TIP3    H248129   0.589   5.376   4.505 -0.2837  2.1608  0.4372
 8880TIP3   OH248130   4.339   1.792  12.365 -0.4593  0.2402  0.2402
 8880TIP3    H148131   4.395   1.804  12.289  0.8590 -0.8460  0.9838
 8880TIP3    H248132   4.312   1.880  12.390 -4.1870  0.5137 -3.7287
 8881TIP3   OH248133   1.869   0.450  17.181  0.2710  0.3020  0.2625
 8881TIP3    H148134   1.958   0.453  17.216 -0.1830 -0.1601  1.5045
 8881TIP3    H248135   1.813   0.458  17.257 -0.7734  1.3513 -0.5744
 8882TIP3   OH248136   6.273   2.884  14.368 -0.3594 -0.5104 -0.3087
 8882TIP3    H148137   6.304   2.799  14.400  0.2430 -0.3524 -0.4581
 8882TIP3    H248138   6.241   2.929  14.446  1.3446 -0.0240  0.1386
 8883TIP3   OH248139   2.889   1.328  14.924 -0.1100  0.3797  0.1376
 8883TIP3    H148140   2.887   1.259  14.858  0.2640  0.1338  0.3746
 8883TIP3    H248141   2.859   1.406  14.879  0.4447  0.2831 -0.4157
 8884TIP3   OH248142   5.011   5.641  14.561 -0.1153 -0.1142  0.3186
 8884TIP3    H148143   4.994   5.725  14.604 -0.7593  0.0510 -0.2510
 8884TIP3    H248144   4.954   5.578  14.606 -0.2742 -0.0783  0.1657
 8885TIP3   OH248145   4.156   3.905  13.675  0.0138  0.1741 -0.3921
 8885TIP3    H148146   4.234   3.885  13.727  1.8135  0.1649 -2.9363
 8885TIP3    H248147   4.106   3.824  13.676  1.2686 -0.6358 -0.7192
 8886TIP3   OH248148   4.811   1.877  13.189 -0.0018  0.3673  0.6267
 8886TIP3    H148149   4.763   1.822  13.251  1.2334 -1.4838  0.0213
 8886TIP3    H248150   4.758   1.876  13.110  0.1034 -0.1205  0.5584
 8887TIP3   OH248151   2.849   3.344  10.889  0.0586 -0.0856  0.2449
 8887TIP3    H148152   2.841   3.288  10.812  0.8311 -0.2729  0.2944
 8887TIP3    H248153   2.864   3.432  10.854 -2.5185  0.3745  0.1333
 8888TIP3   OH248154   6.504   2.528   0.835  0.3981 -0.1195 -0.1332
 8888TIP3    H148155   6.518   2.609   0.787  2.4285  1.4555  2.7626
 8888TIP3    H248156   6.426   2.489   0.796 -0.2293  2.8388 -2.1259
 8889TIP3   OH248157   2.925   6.772  15.292  0.2234  0.0813 -0.3296
 8889TIP3    H148158   2.960   6.808  15.211  0.2049  0.3809 -0.2069
 8889TIP3    H248159   2.837   6.808  15.298  1.1527  2.3015  1.1927
 8890TIP3   OH248160   4.681   3.117  14.074 -0.1060 -0.2559 -0.4609
 8890TIP3    H148161   4.723   3.041  14.113 -1.0837 -1.1559 -1.1201
 8890TIP3    H248162   4.723   3.126  13.988 -0.8673 -0.8239 -0.8966
 8891TIP3   OH248163   6.445   0.987  10.987 -0.4484 -0.2352 -0.0310
 8891TIP3    H148164   6.456   1.075  10.952  1.7131 -0.1218  0.7521
 8891TIP3    H248165   6.431   0.932  10.911  1.6641  0.3392 -0.9124
 8892TIP3   OH248166   2.141   1.228   4.954  0.7910 -0.5881  0.3071
 8892TIP3    H148167   2.166   1.320   4.952 -0.0412 -0.3199  1.2214
 8892TIP3    H248168   2.130   1.204   4.862  2.8306 -0.3162 -0.0525
 8893TIP3   OH248169   2.265   3.268  11.316  0.1801  0.4232  0.0620
 8893TIP3    H148170   2.237   3.352  11.280  0.2486  0.5221  0.2361
 8893TIP3    H248171   2.279   3.212  11.240 -1.4348  0.0667  0.0055
 8894TIP3   OH248172   4.611   0.547   0.772  0.1941 -0.4309 -0.0653
 8894TIP3    H148173   4.524   0.522   0.804  0.0161 -0.1095 -0.2905
 8894TIP3    H248174   4.663   0.467   0.780 -0.0169 -0.5235  0.4361
 8895TIP3   OH248175   1.641   0.730   1.310 -0.2701 -0.1781 -0.6419
 8895TIP3    H148176   1.560   0.724   1.362  0.0091  1.9094  0.1009
 8895TIP3    H248177   1.613   0.759   1.224 -0.3470  0.2554 -0.4718
 8896TIP3   OH248178   6.616   1.986  14.961 -0.0794  0.3748  0.9278
 8896TIP3    H148179   6.697   2.003  15.010 -0.1979  0.1597  1.2047
 8896TIP3    H248180   6.548   2.031  15.011 -0.1572  0.4003  0.7981
 8897TIP3   OH248181   2.394   0.663  14.693 -0.2375  0.5358  0.2500
 8897TIP3    H148182   2.334   0.609  14.640 -0.6881  1.5809 -0.3288
 8897TIP3    H248183   2.471   0.607  14.706 -0.8774 -0.4120  0.0514
 8898TIP3   OH248184   0.523   4.323   1.167 -0.4936 -0.5608  0.1657
 8898TIP3    H148185   0.605   4.367   1.144 -1.5194  0.6473 -1.4998
 8898TIP3    H248186   0.549   4.243   1.213  1.5696  0.0981  0.2116
 8899TIP3   OH248187   0.668   4.354   3.568  0.5391  0.0651 -0.8894
 8899TIP3    H148188   0.600   4.335   3.632  0.9936  1.0877 -0.0697
 8899TIP3    H248189   0.727   4.279   3.574  0.9640  0.4677  0.4484
 8900TIP3   OH248190   1.120   1.422  11.358  0.0151 -0.7077  0.6481
 8900TIP3    H148191   1.154   1.442  11.445  0.0740 -2.8136  1.1673
 8900TIP3    H248192   1.187   1.455  11.298  1.2197 -1.4484  1.5293
 8901TIP3   OH248193   2.374   1.661   6.658 -0.1694 -0.6729  0.2883
 8901TIP3    H148194   2.427   1.730   6.618 -0.3260  0.4652  1.9434
 8901TIP3    H248195   2.421   1.580   6.637  2.6859  0.3250  2.1759
 8902TIP3   OH248196   4.944   5.574   4.810 -0.1345 -0.1440 -0.6340
 8902TIP3    H148197   5.036   5.554   4.828  0.3265  0.6822 -1.9520
 8902TIP3    H248198   4.925   5.649   4.866 -0.8003 -1.8343  1.5566
 8903TIP3   OH248199   6.397   2.067   0.445  0.3010  0.3056 -0.0248
 8903TIP3    H148200   6.416   2.025   0.361  0.3239  0.4763 -0.1070
 8903TIP3    H248201   6.334   2.010   0.488  0.7433 -0.0943  0.0993
 8904TIP3   OH248202   1.700   5.275  11.460 -0.1244  0.2218  0.2831
 8904TIP3    H148203   1.634   5.229  11.512 -0.5979 -1.7269 -1.9034
 8904TIP3    H248204   1.651   5.341  11.411 -0.1738 -0.0126  0.0152
 8905TIP3   OH248205   4.665   1.871   5.241 -0.5485 -0.3444  0.2750
 8905TIP3    H148206   4.736   1.815   5.273 -0.5077  1.1570  3.1610
 8905TIP3    H248207   4.703   1.918   5.166  0.9509 -0.7598  0.7512
 8906TIP3   OH248208   1.589   0.550   3.621 -0.1258  0.0067 -0.0428
 8906TIP3    H148209   1.494   0.560   3.626 -0.1402 -0.1864  0.0788
 8906TIP3    H248210   1.608   0.473   3.675 -0.0290 -0.6951 -1.0412
 8907TIP3   OH248211   5.316   0.430   3.089  0.0570 -0.2847 -0.1513
 8907TIP3    H148212   5.317   0.521   3.060 -0.1156 -0.4063 -0.5542
 8907TIP3    H248213   5.247   0.426   3.156  0.2111 -0.0744  0.0177
 8908TIP3   OH248214   2.863   1.848  10.586 -0.2035  0.6813  0.3636
 8908TIP3    H148215   2.783   1.818  10.629 -0.7920  0.5186 -0.8264
 8908TIP3    H248216   2.909   1.768  10.562 -1.5011  0.6254 -2.2988
 8909TIP3   OH248217   1.186   0.389   6.937  0.5454 -0.0049  0.1557
 8909TIP3    H148218   1.272   0.383   6.978 -0.8544 -1.4056  3.1619
 8909TIP3    H248219   1.177   0.307   6.888  1.0873  0.3919 -0.6342
 8910TIP3   OH248220   5.331   0.891   2.270 -0.3317  0.7242 -0.1901
 8910TIP3    H148221   5.245   0.852   2.290 -0.0008  0.0405 -0.0522
 8910TIP3    H248222   5.394   0.829   2.307  0.2087  1.7268  0.6211
 8911TIP3   OH248223   0.701   0.077  14.608  0.3298  0.0710  0.2417
 8911TIP3    H148224   0.776   0.101  14.662  2.6972  0.6769 -2.9590
 8911TIP3    H248225   0.703  -0.019  14.605  1.1240  0.0803  0.0958
 8912TIP3   OH248226   1.834   4.122   1.428 -0.0528  0.2587 -0.5112
 8912TIP3    H148227   1.904   4.076   1.476 -0.4333  0.6488  0.4383
 8912TIP3    H248228   1.859   4.113   1.336  0.3479 -1.0928 -0.2997
 8913TIP3   OH248229   1.912   2.521  15.955 -0.5569 -0.1429 -0.0714
 8913TIP3    H148230   1.921   2.440  15.905 -5.2217 -0.4749 -0.9089
 8913TIP3    H248231   1.926   2.590  15.890 -1.5424 -0.4591 -0.6416
 8914TIP3   OH248232   3.374   2.836  15.296  0.1750 -0.0423  0.5136
 8914TIP3    H148233   3.323   2.915  15.281  0.6136  0.4872  1.6938
 8914TIP3    H248234   3.353   2.811  15.386  0.3915 -1.0107  0.3087
 8915TIP3   OH248235   3.384   4.558   0.765  0.1164 -0.3641 -0.1904
 8915TIP3    H148236   3.477   4.554   0.788 -0.0827  0.2139  0.7806
 8915TIP3    H248237   3.360   4.467   0.749  0.3792 -0.7999  1.6252
 8916TIP3   OH248238   5.331   0.968   1.283 -0.0952  0.0597  0.0442
 8916TIP3    H148239   5.359   0.940   1.370 -0.9967  0.4225  0.4647
 8916TIP3    H248240   5.412   0.989   1.237  0.3306  1.3943  1.3282
 8917TIP3   OH248241   2.262   4.035   4.993  0.1332 -0.2859 -0.3918
 8917TIP3    H148242   2.286   3.947   5.023  1.9840 -0.1876 -1.4700
 8917TIP3    H248243   2.344   4.083   4.990 -0.6981  1.1818 -0.8499
 8918TIP3   OH248244   0.011   5.329  14.849 -0.1220 -0.0795  0.5971
 8918TIP3    H148245  -0.019   5.298  14.935  1.0385 -1.6442  0.4942
 8918TIP3    H248246   0.098   5.289  14.839 -0.2364  0.0643 -1.3073
 8919TIP3   OH248247   5.532   4.628  16.233 -0.1135  0.8220 -0.0870
 8919TIP3    H148248   5.531   4.561  16.302  1.4439 -2.7531 -3.1772
 8919TIP3    H248249   5.587   4.698  16.268 -0.1596 -0.3390  2.6045
 8920TIP3   OH248250   0.562   2.199  11.529 -0.2382 -0.1460  0.3651
 8920TIP3    H148251   0.556   2.272  11.467  1.2536 -0.5650 -0.3046
 8920TIP3    H248252   0.472   2.167  11.536 -0.4275 -0.2714 -1.8422
 8921TIP3   OH248253   1.425   1.668   1.824 -0.2425 -0.8802  0.1333
 8921TIP3    H148254   1.476   1.588   1.811  0.8961 -0.1996  0.2421
 8921TIP3    H248255   1.448   1.696   1.913 -1.3351 -0.9034  0.4417
 8922TIP3   OH248256   2.740   2.151  16.149  0.5270 -0.2783  0.3533
 8922TIP3    H148257   2.667   2.182  16.202  0.6219 -0.2599  0.4745
 8922TIP3    H248258   2.802   2.115  16.213  2.0131  2.4208  0.5831
 8923TIP3   OH248259   5.619   5.944   2.052  0.4457  0.3754 -0.4936
 8923TIP3    H148260   5.600   5.969   1.962  0.6496  1.2759 -0.3017
 8923TIP3    H248261   5.689   6.004   2.080  1.4578 -0.8849 -0.2174
 8924TIP3   OH248262   6.618   4.196   4.260  0.1971  0.1725  0.2630
 8924TIP3    H148263   6.642   4.283   4.292  2.5732 -0.4786  0.4115
 8924TIP3    H248264   6.640   4.197   4.167  1.6411 -0.6950  0.5674
 8925TIP3   OH248265   3.596   5.626  11.546 -0.9614  0.3263  0.9729
 8925TIP3    H148266   3.502   5.631  11.532 -0.6543  0.7397 -1.4553
 8925TIP3    H248267   3.629   5.578  11.469  0.8861  1.0270  1.2686
 8926TIP3   OH248268   3.647   5.652   0.566  0.0257  0.7100 -0.3303
 8926TIP3    H148269   3.554   5.632   0.557  0.1356 -0.2669  0.6060
 8926TIP3    H248270   3.691   5.568   0.554  0.7690  1.0907 -0.3090
 8927TIP3   OH248271   5.781   2.139  13.308  0.2101 -0.2352 -0.4581
 8927TIP3    H148272   5.842   2.146  13.234  0.0267  1.7353 -0.4733
 8927TIP3    H248273   5.736   2.055  13.293  1.4511 -0.7554 -1.5626
 8928TIP3   OH248274   0.818   0.134   1.980 -0.1393 -0.0046 -0.3914
 8928TIP3    H148275   0.748   0.146   2.043  0.1275  0.0211 -0.0972
 8928TIP3    H248276   0.774   0.120   1.896 -0.4898  0.7190 -0.3362
 8929TIP3   OH248277   1.309   3.745   5.234 -0.1289  0.0160  0.8777
 8929TIP3    H148278   1.364   3.824   5.236  0.4697 -0.4092  1.6189
 8929TIP3    H248279   1.367   3.675   5.263 -0.9720 -0.5076  1.3235
 8930TIP3   OH248280   0.014   5.206   1.793  0.5331  0.5628 -0.5395
 8930TIP3    H148281   0.078   5.266   1.756  1.6725 -0.0090  0.4154
 8930TIP3    H248282   0.063   5.156   1.859 -0.3483 -1.4564 -1.3314
 8931TIP3   OH248283   6.680   0.617  13.513  0.2254 -0.3957 -0.0695
 8931TIP3    H148284   6.737   0.664  13.575 -0.6287 -1.4357  1.5964
 8931TIP3    H248285   6.687   0.525  13.540 -0.6637 -0.7924 -1.1439
 8932TIP3   OH248286   3.295   6.692  16.663  0.8186  0.2245 -0.9267
 8932TIP3    H148287   3.340   6.762  16.616 -0.5583  0.6632 -1.6327
 8932TIP3    H248288   3.323   6.701  16.754  0.5232  1.7961 -0.9782
 8933TIP3   OH248289   0.260   2.151   2.305  0.4574 -0.4505  0.1783
 8933TIP3    H148290   0.321   2.153   2.378 -3.1951  1.7049  3.5713
 8933TIP3    H248291   0.246   2.243   2.282 -1.1922 -0.8813 -0.7296
 8934TIP3   OH248292   0.909   4.332  16.736  0.4761  0.3629 -0.4749
 8934TIP3    H148293   0.845   4.350  16.668  1.0710  1.7413 -0.7020
 8934TIP3    H248294   0.891   4.241  16.763  1.0609 -0.7049 -3.3479
 8935TIP3   OH248295   3.459   0.103  15.519 -0.0200  0.4701 -0.6376
 8935TIP3    H148296   3.374   0.115  15.477  0.3362  1.7245 -1.0474
 8935TIP3    H248297   3.513   0.174  15.484  1.1480 -0.1993 -0.2481
 8936TIP3   OH248298   0.611   2.834   3.440  0.4551 -0.1859 -0.0424
 8936TIP3    H148299   0.634   2.804   3.528  1.0674  0.5698  0.0622
 8936TIP3    H248300   0.690   2.820   3.388  0.6527  0.9261 -0.0691
 8937TIP3   OH248301   2.583   0.922  15.236 -0.1560  0.3654  0.0948
 8937TIP3    H148302   2.549   0.948  15.322  0.8786  1.4955  0.1972
 8937TIP3    H248303   2.673   0.955  15.236 -0.3962  1.1190 -1.7298
 8938TIP3   OH248304   5.679   1.714   3.738 -0.1781  0.4235 -0.0063
 8938TIP3    H148305   5.743   1.776   3.773  0.2221  1.0163 -1.6988
 8938TIP3    H248306   5.609   1.769   3.702  0.1565 -0.0637 -1.4920
 8939TIP3   OH248307   1.803   6.722   4.455 -0.0486  0.3179 -0.5794
 8939TIP3    H148308   1.711   6.723   4.480 -0.5485 -0.5086 -2.2409
 8939TIP3    H248309   1.850   6.740   4.537 -1.5994 -0.9034  0.6606
 8940TIP3   OH248310   1.633   2.172  11.536  0.3984 -1.6809  0.5118
 8940TIP3    H148311   1.608   2.206  11.622 -0.8685 -1.0555 -0.0761
 8940TIP3    H248312   1.608   2.242  11.475  0.8793 -2.2979 -0.4105
 8941TIP3   OH248313   2.468   0.720   3.074 -0.4950 -0.2215  0.2498
 8941TIP3    H148314   2.450   0.672   3.156 -1.1856 -0.8942 -0.2832
 8941TIP3    H248315   2.549   0.680   3.041 -1.2271 -1.2536 -0.3448
 8942TIP3   OH248316   5.075   5.033  12.434  0.4520  0.0090 -0.1279
 8942TIP3    H148317   5.166   5.023  12.462  1.2136  2.1868 -1.5603
 8942TIP3    H248318   5.024   5.008  12.511  2.1833 -2.3138  0.3670
 8943TIP3   OH248319   5.542   5.301   1.598 -0.3539  0.1490 -0.1069
 8943TIP3    H148320   5.478   5.371   1.587 -0.6334 -0.2339 -1.0985
 8943TIP3    H248321   5.503   5.243   1.663  0.6395  1.7181  2.0206
 8944TIP3   OH248322   5.103   1.486   0.825  0.2157  0.1408 -0.1992
 8944TIP3    H148323   5.023   1.436   0.809  0.3110  0.4315 -1.7791
 8944TIP3    H248324   5.165   1.423   0.863 -0.6363 -0.1622  0.7172
 8945TIP3   OH248325   0.078   1.238  16.493 -0.5073  0.1317 -0.3964
 8945TIP3    H148326   0.168   1.214  16.473 -0.4887  0.6664 -0.9925
 8945TIP3    H248327   0.078   1.333  16.496 -0.5326  0.1303  2.1874
 8946TIP3   OH248328   2.036   3.788  11.090 -0.4957 -0.3927  0.3879
 8946TIP3    H148329   2.127   3.817  11.100 -0.2187 -1.5639  1.4533
 8946TIP3    H248330   2.016   3.803  10.997  0.0486  1.8799  0.5810
 8947TIP3   OH248331   1.813   4.541  14.664  0.0233  0.9154  0.0254
 8947TIP3    H148332   1.800   4.511  14.574 -2.1957 -1.3860  1.0125
 8947TIP3    H248333   1.873   4.478  14.702 -0.0555  1.1341  0.5205
 8948TIP3   OH248334   4.672   0.393  14.401  0.7020 -0.1723 -0.1346
 8948TIP3    H148335   4.764   0.380  14.421  0.9765  0.5901 -0.8425
 8948TIP3    H248336   4.660   0.488  14.401 -0.1102 -0.2643  0.0724
 8949TIP3   OH248337   1.826   5.365  16.775 -0.6077  0.0590 -0.1476
 8949TIP3    H148338   1.864   5.308  16.709 -1.7598  1.3854 -2.0354
 8949TIP3    H248339   1.895   5.375  16.841 -0.1238 -2.8545 -0.1000
 8950TIP3   OH248340   3.825   5.664   0.279 -0.1571 -0.0885  0.1768
 8950TIP3    H148341   3.892   5.601   0.305  0.9763  0.8606 -0.3931
 8950TIP3    H248342   3.805   5.643   0.188  1.2258  1.2112 -0.4539
 8951TIP3   OH248343   1.464   5.300   0.232  0.4842 -0.2832  0.5034
 8951TIP3    H148344   1.416   5.354   0.294  0.3156  1.3319 -0.9498
 8951TIP3    H248345   1.462   5.349   0.150  0.7476 -2.2911 -0.7967
 8952TIP3   OH248346   3.649   1.890   3.034  0.1514 -0.5039  0.2615
 8952TIP3    H148347   3.689   1.850   3.111  1.0964  1.0064  0.6006
 8952TIP3    H248348   3.587   1.953   3.070  0.2099 -0.1660 -0.2169
 8953TIP3   OH248349   5.214   4.648  11.473  0.1449  0.1255 -0.3897
 8953TIP3    H148350   5.175   4.663  11.387 -0.4131 -0.9399 -0.3483
 8953TIP3    H248351   5.140   4.622  11.528  0.6996 -0.6164  0.0377
 8954TIP3   OH248352   4.535   6.793   1.380  0.2156  0.3841  0.3422
 8954TIP3    H148353   4.440   6.784   1.374  0.3579 -0.2383 -1.6283
 8954TIP3    H248354   4.548   6.861   1.446 -1.5380 -0.3003  1.4961
 8955TIP3   OH248355   2.503   1.196  15.180  0.1275  0.3551 -0.0841
 8955TIP3    H148356   2.472   1.140  15.109  1.4039  0.8042 -1.0316
 8955TIP3    H248357   2.519   1.135  15.253 -1.4685 -0.0699 -0.0504
 8956TIP3   OH248358   1.100   5.289  15.887  0.1303  0.1406  0.5700
 8956TIP3    H148359   1.093   5.197  15.914 -0.4701  0.0406  0.0987
 8956TIP3    H248360   1.057   5.292  15.802 -0.1123  0.9217  0.7127
 8957TIP3   OH248361   6.125   3.627   1.042  0.2367 -0.4073 -0.3706
 8957TIP3    H148362   6.147   3.676   0.962  1.9378 -3.0441 -1.6367
 8957TIP3    H248363   6.209   3.612   1.085 -0.5844  0.3277  1.6006
 8958TIP3   OH248364   4.471   2.355  15.260  0.0811  0.3950 -0.4562
 8958TIP3    H148365   4.544   2.316  15.309 -0.2738 -0.1899 -0.3874
 8958TIP3    H248366   4.431   2.416  15.323 -1.5360 -1.7096  0.6957
 8959TIP3   OH248367   1.364   1.317   6.319  0.0645 -0.4816  0.5995
 8959TIP3    H148368   1.317   1.249   6.272 -0.4997  0.9745 -1.0301
 8959TIP3    H248369   1.310   1.395   6.310  1.6207  0.6653  0.7177
 8960TIP3   OH248370   0.772   2.866  10.419  0.6607  0.1590 -0.0235
 8960TIP3    H148371   0.857   2.904  10.397  1.2211 -1.1311 -0.1471
 8960TIP3    H248372   0.754   2.804  10.349 -0.8738  1.1074 -0.5362
 8961TIP3   OH248373   3.026   5.682  10.864 -0.4162  0.4633  0.3814
 8961TIP3    H148374   2.950   5.679  10.806  0.6078  1.6360 -1.1289
 8961TIP3    H248375   3.046   5.775  10.872  1.3613  0.1662 -0.0263
 8962TIP3   OH248376   4.135   4.507  14.125  0.1981  0.4147 -0.0138
 8962TIP3    H148377   4.136   4.455  14.045 -0.3484  0.8678 -0.3233
 8962TIP3    H248378   4.157   4.445  14.195  0.9344  0.0717 -0.5420
 8963TIP3   OH248379   1.141   4.648  15.965 -0.3222 -0.3549 -0.0676
 8963TIP3    H148380   1.104   4.660  16.052 -2.1018 -0.2040 -0.8011
 8963TIP3    H248381   1.140   4.735  15.926  1.4173 -0.2281  0.0721
 8964TIP3   OH248382   3.699   5.774   0.818  0.8482  0.3917  0.0164
 8964TIP3    H148383   3.780   5.726   0.835 -0.2036 -1.9373 -1.1344
 8964TIP3    H248384   3.697   5.786   0.723 -0.3077  0.0684 -0.0241
 8965TIP3   OH248385   5.603   0.735  14.467 -0.3466  0.1951 -0.5891
 8965TIP3    H148386   5.508   0.740  14.475 -0.4526 -1.7092  0.0142
 8965TIP3    H248387   5.636   0.781  14.544 -0.7525  1.3599 -1.1013
 8966TIP3   OH248388   2.109   1.350   0.282  0.0383 -0.1440 -0.0604
 8966TIP3    H148389   2.160   1.418   0.239 -0.2918 -0.2974 -0.7025
 8966TIP3    H248390   2.133   1.269   0.236 -0.8959 -0.1931 -0.4842
 8967TIP3   OH248391   4.468   0.833   2.023  0.2498 -0.4015  0.4404
 8967TIP3    H148392   4.499   0.761   1.968  0.8036 -1.9809  2.6509
 8967TIP3    H248393   4.373   0.828   2.017  0.2926 -0.8253 -0.0320
 8968TIP3   OH248394   6.714   4.042  15.394 -0.2267  0.2236 -0.0846
 8968TIP3    H148395   6.767   4.105  15.345  0.8742  0.4120  1.2711
 8968TIP3    H248396   6.627   4.046  15.353 -0.1609  2.5189 -0.1445
 8969TIP3   OH248397   3.932   3.215  16.665  0.4684 -0.3066  0.1083
 8969TIP3    H148398   3.871   3.201  16.737  1.2377 -1.1044  0.6216
 8969TIP3    H248399   4.011   3.250  16.706  0.8310 -0.5289 -0.3824
 8970TIP3   OH248400   4.900   3.768  11.704 -0.4570 -0.5282  0.1307
 8970TIP3    H148401   4.948   3.829  11.760  1.0628 -1.9824  0.4812
 8970TIP3    H248402   4.811   3.803  11.702 -0.1042  0.6100  1.9159
 8971TIP3   OH248403   0.022   0.484  15.596 -0.5402 -0.2182  0.8166
 8971TIP3    H148404  -0.059   0.451  15.634 -0.8846  0.4834  0.7031
 8971TIP3    H248405   0.024   0.447  15.508 -0.1988 -1.1005  1.1882
 8972TIP3   OH248406   4.095   1.606   4.361 -0.4451 -0.0661 -0.0123
 8972TIP3    H148407   4.023   1.568   4.412 -0.3975 -1.5652 -0.9854
 8972TIP3    H248408   4.146   1.656   4.424 -0.9963 -0.9617  1.1901
 8973TIP3   OH248409   0.328   2.561  15.004  0.3446 -0.3070 -0.2383
 8973TIP3    H148410   0.397   2.624  14.986 -0.9308  1.3116  0.2591
 8973TIP3    H248411   0.331   2.548  15.099  0.3774 -0.7236 -0.2961
 8974TIP3   OH248412   1.926   4.263   1.835  0.4621  0.2126 -1.2034
 8974TIP3    H148413   1.831   4.257   1.829  0.5370 -0.4466 -1.7462
 8974TIP3    H248414   1.954   4.176   1.860  0.8760  0.5886 -0.3188
 8975TIP3   OH248415   2.656   0.298  12.045 -0.5551  0.6493 -0.2640
 8975TIP3    H148416   2.721   0.255  11.990  0.1923 -1.0543  1.8043
 8975TIP3    H248417   2.573   0.257  12.020 -0.1328 -0.5803  0.2934
 8976TIP3   OH248418   0.530   5.125   1.274  0.4457 -0.3573  0.4947
 8976TIP3    H148419   0.538   5.121   1.179 -1.7130 -0.3029  0.2613
 8976TIP3    H248420   0.566   5.042   1.305 -2.2391 -2.0928 -0.7191
 8977TIP3   OH248421   0.086   1.542   6.172  0.3190  0.0561 -0.2180
 8977TIP3    H148422   0.178   1.541   6.145  0.6243  0.9313  0.7538
 8977TIP3    H248423   0.050   1.621   6.131  0.1565  0.0601 -0.0653
 8978TIP3   OH248424   3.783   6.477  12.252  0.0422  0.4445 -0.7997
 8978TIP3    H148425   3.740   6.408  12.201 -1.2253  1.4440 -1.1617
 8978TIP3    H248426   3.710   6.528  12.289  0.9320  0.3671  1.1750
 8979TIP3   OH248427   6.806   5.675   4.139  0.0940  0.2582  0.4072
 8979TIP3    H148428   6.816   5.761   4.178  0.0523  0.1917  0.5652
 8979TIP3    H248429   6.742   5.630   4.194  0.4116 -0.0142  0.5636
 8980TIP3   OH248430   1.325   1.287   5.511 -0.1385 -0.1283 -0.0177
 8980TIP3    H148431   1.349   1.320   5.597  1.5607  0.3407 -0.6483
 8980TIP3    H248432   1.297   1.364   5.462 -1.5231 -0.4508  0.2033
 8981TIP3   OH248433   3.257   2.332   4.395 -0.1185  0.3652  0.4192
 8981TIP3    H148434   3.268   2.424   4.418 -1.6434  1.0327 -1.2564
 8981TIP3    H248435   3.277   2.285   4.476  0.0467  2.2001  1.5205
 8982TIP3   OH248436   4.953   5.049  16.871  0.4902 -0.0235  0.3581
 8982TIP3    H148437   4.994   4.983  16.927  3.0917 -1.2539 -2.6592
 8982TIP3    H248438   4.962   5.013  16.782 -0.1063  3.3563 -1.2114
 8983TIP3   OH248439   6.144   5.384   4.263 -0.2185  0.7217 -0.1553
 8983TIP3    H148440   6.057   5.387   4.222 -0.1201  2.1319 -0.3294
 8983TIP3    H248441   6.204   5.365   4.192 -0.2573  1.1543 -0.3096
 8984TIP3   OH248442   4.418   4.455  14.591 -0.2273 -0.2591 -0.6054
 8984TIP3    H148443   4.385   4.533  14.547 -1.9346 -0.7773 -0.3245
 8984TIP3    H248444   4.405   4.474  14.684 -2.3649 -1.5311 -0.5796
 8985TIP3   OH248445   3.463   4.700   1.346 -0.2898  0.1442  0.2591
 8985TIP3    H148446   3.434   4.687   1.256 -0.2279  1.4569  0.0198
 8985TIP3    H248447   3.399   4.653   1.400 -1.3662  0.8201 -0.3906
 8986TIP3   OH248448   3.685   6.552   4.263  0.2908 -0.4840  0.7652
 8986TIP3    H148449   3.671   6.552   4.357  1.1851  0.8283  0.9321
 8986TIP3    H248450   3.706   6.461   4.241  0.8694 -0.6615  1.9634
 8987TIP3   OH248451   6.078   5.511  11.315 -0.4747  0.6818 -0.0837
 8987TIP3    H148452   6.106   5.420  11.308  0.1133  0.7263  1.2989
 8987TIP3    H248453   6.070   5.541  11.225 -0.9890 -0.8204 -0.5778
 8988TIP3   OH248454   1.023   3.391  12.605 -0.6932  0.0393  0.0707
 8988TIP3    H148455   1.085   3.404  12.532 -0.4094 -0.7258  0.1690
 8988TIP3    H248456   0.982   3.477  12.616 -0.6575  0.1978 -0.9155
 8989TIP3   OH248457   1.107   2.878  15.627  0.3035 -0.5622 -0.0453
 8989TIP3    H148458   1.199   2.881  15.601  0.5836  2.6706  0.8699
 8989TIP3    H248459   1.108   2.835  15.713  0.8256 -1.3334 -0.4272
 8990TIP3   OH248460   4.878   3.061   3.047  0.3699 -0.6186 -0.1827
 8990TIP3    H148461   4.788   3.063   3.016  0.4615 -0.5417 -0.4506
 8990TIP3    H248462   4.872   3.030   3.137  0.0683 -0.5325 -0.1711
 8991TIP3   OH248463   5.343   6.074  13.134 -0.1380 -0.1667 -1.1515
 8991TIP3    H148464   5.367   5.989  13.097 -1.1943 -0.8235 -0.3941
 8991TIP3    H248465   5.256   6.091  13.097 -2.2777 -1.9023  2.5443
 8992TIP3   OH248466   5.260   0.308  16.627 -0.0263 -0.0647 -0.5478
 8992TIP3    H148467   5.212   0.331  16.706  1.3248  1.5420 -0.1374
 8992TIP3    H248468   5.209   0.346  16.556  0.3774  1.2923 -0.1515
 8993TIP3   OH248469   5.189   5.139   4.532  0.1324  0.5933  0.8128
 8993TIP3    H148470   5.094   5.142   4.542 -0.2249 -2.2972 -0.6325
 8993TIP3    H248471   5.205   5.168   4.443  0.0723 -2.6545 -0.3937
 8994TIP3   OH248472   4.376   3.497   2.113  0.1552 -0.1922  0.3969
 8994TIP3    H148473   4.336   3.570   2.064 -1.5320 -1.6108 -0.4582
 8994TIP3    H248474   4.336   3.501   2.199 -0.9184 -0.8201 -0.0483
 8995TIP3   OH248475   2.088   2.067   0.969  0.1148  0.4727 -0.0050
 8995TIP3    H148476   2.054   2.112   0.891  1.5765  4.0637  1.2366
 8995TIP3    H248477   2.126   1.986   0.935 -1.5067  0.6847 -2.6287
 8996TIP3   OH248478   2.109   1.816  11.119  0.3265  0.1430  0.1136
 8996TIP3    H148479   2.136   1.730  11.152  0.3994  0.8249  1.9546
 8996TIP3    H248480   2.059   1.797  11.039  0.0205 -1.6354  0.6900
 8997TIP3   OH248481   6.064   0.069   0.200 -0.1020 -0.0700  0.1392
 8997TIP3    H148482   6.062  -0.020   0.234 -1.6621 -1.0904 -2.3141
 8997TIP3    H248483   6.039   0.124   0.274  3.9275 -1.1738  2.6370
 8998TIP3   OH248484   5.432   6.693   4.646 -0.5477 -0.3338 -0.4622
 8998TIP3    H148485   5.390   6.629   4.588 -1.4591  1.3244 -1.7430
 8998TIP3    H248486   5.503   6.731   4.594 -0.2339 -0.0663  0.1463
 8999TIP3   OH248487   5.190   0.009   1.840  0.0974  0.0696  0.0519
 8999TIP3    H148488   5.206   0.037   1.930 -0.4199  2.1869 -0.4381
 8999TIP3    H248489   5.145  -0.075   1.847  4.0473 -2.1788  1.6308
 9000TIP3   OH248490   1.410   4.962  13.353 -0.3906 -0.1326  0.4859
 9000TIP3    H148491   1.478   5.001  13.409  1.5301 -0.8028 -1.2863
 9000TIP3    H248492   1.356   4.910  13.413  0.4645  0.6525  1.9850
 9001TIP3   OH248493   4.723   6.762   3.960  0.5502  0.0529 -0.5103
 9001TIP3    H148494   4.769   6.729   4.037 -1.2934  0.2983  0.7602
 9001TIP3    H248495   4.785   6.822   3.918  1.8596 -0.6639  0.3367
 9002TIP3   OH248496   1.815   5.495   1.981  0.1598 -0.2640 -0.3237
 9002TIP3    H148497   1.812   5.416   1.928 -1.2896  0.4571 -1.3898
 9002TIP3    H248498   1.898   5.537   1.958  0.5683 -1.0683 -0.3431
 9003TIP3   OH248499   2.533   6.412   4.307 -0.4405  0.1199 -0.5341
 9003TIP3    H148500   2.459   6.368   4.265 -0.8944 -0.4368  0.7756
 9003TIP3    H248501   2.493   6.476   4.365 -0.0668 -1.5793  1.7587
 9004TIP3   OH248502   4.623   2.394  16.296  0.1382  0.1702 -0.3897
 9004TIP3    H148503   4.628   2.306  16.257 -0.5209 -0.2975  0.5337
 9004TIP3    H248504   4.588   2.379  16.384 -1.7738  1.5172 -0.8362
 9005TIP3   OH248505   4.040   4.511   4.383 -0.1615  0.0996  0.4038
 9005TIP3    H148506   4.015   4.471   4.300 -0.2731 -0.2576  0.6062
 9005TIP3    H248507   4.030   4.605   4.368  2.4998  0.2812 -0.8895
 9006TIP3   OH248508   4.186   5.936  17.177  0.8852  0.0631 -0.1177
 9006TIP3    H148509   4.180   5.844  17.152  2.5639  0.2817 -1.5085
 9006TIP3    H248510   4.264   5.969  17.131  2.0056  1.4698  2.5638
 9007TIP3   OH248511   2.000   4.998  14.183  0.1044  0.5639  0.0276
 9007TIP3    H148512   2.095   5.012  14.188  0.1717  0.0386  0.2833
 9007TIP3    H248513   1.963   5.066  14.239  0.2727  1.3712 -0.8220
 9008TIP3   OH248514   5.599   0.478   0.050  0.2873 -0.1518 -0.3293
 9008TIP3    H148515   5.525   0.499  -0.006  0.5812 -3.2485 -2.0724
 9008TIP3    H248516   5.617   0.559   0.098 -2.0809  1.6533 -2.2835
 9009TIP3   OH248517   2.403   5.934  12.659 -0.1238 -0.0766  0.4556
 9009TIP3    H148518   2.429   5.871  12.727 -0.5140  0.3000  0.9678
 9009TIP3    H248519   2.449   5.906  12.581 -1.1534 -1.6727  0.3852
 9010TIP3   OH248520   0.402   3.067   4.403  0.1742 -0.3297 -0.0847
 9010TIP3    H148521   0.396   3.090   4.496  0.3588 -1.4351  0.2155
 9010TIP3    H248522   0.312   3.045   4.378 -0.0848  1.1069 -0.4944
 9011TIP3   OH248523   5.050   4.108  12.370 -0.4896  0.5247 -0.0279
 9011TIP3    H148524   5.138   4.109  12.332  0.2300 -2.3443  1.2960
 9011TIP3    H248525   5.060   4.146  12.457  0.2725 -2.6063  1.4015
 9012TIP3   OH248526   6.348   5.874   6.375 -0.0747  1.1304  0.1616
 9012TIP3    H148527   6.310   5.862   6.462  1.5049  2.6907  1.1070
 9012TIP3    H248528   6.420   5.811   6.371 -0.6053  0.5323 -0.3464
 9013TIP3   OH248529   0.757   3.421  12.399 -0.4831 -0.0928 -0.5638
 9013TIP3    H148530   0.774   3.505  12.356  1.4403 -0.1813 -0.1052
 9013TIP3    H248531   0.720   3.444  12.484 -0.1492  0.3055 -0.5221
 9014TIP3   OH248532   2.062   0.704   5.739  0.3413  0.3174  0.3882
 9014TIP3    H148533   2.091   0.619   5.770  1.4818  0.3208 -0.6027
 9014TIP3    H248534   1.981   0.685   5.691 -0.7449  0.1538  2.1762
 9015TIP3   OH248535   4.636   0.145   4.662  0.3346  0.0242  0.2406
 9015TIP3    H148536   4.566   0.210   4.671  1.3138  0.9832  1.1559
 9015TIP3    H248537   4.628   0.091   4.741 -0.0310 -0.5415 -0.1757
 9016TIP3   OH248538   0.713   3.940  13.145 -0.0438 -0.4014 -0.8487
 9016TIP3    H148539   0.635   3.992  13.124 -0.6083  0.7423  3.1054
 9016TIP3    H248540   0.785   4.002  13.143 -0.4405  0.3188  2.0990
 9017TIP3   OH248541   4.602   4.309   4.105 -0.0226  0.6639  0.0046
 9017TIP3    H148542   4.548   4.272   4.036  1.4373 -1.0603 -0.3164
 9017TIP3    H248543   4.564   4.394   4.124 -1.4498  0.4603 -1.7446
 9018TIP3   OH248544   4.472   6.629  16.043 -0.4128 -0.6207 -0.0469
 9018TIP3    H148545   4.464   6.683  15.965 -1.6662  0.5188  0.8214
 9018TIP3    H248546   4.537   6.673  16.097 -0.8371 -0.4147  0.3057
 9019TIP3   OH248547   6.294   6.513  16.384 -0.2894 -0.4503  0.2875
 9019TIP3    H148548   6.306   6.418  16.393 -0.9114 -0.4841  0.9177
 9019TIP3    H248549   6.232   6.535  16.453  1.0656  0.6850  1.1863
 9020TIP3   OH248550   4.735   1.394  11.684 -0.0270  0.0147  0.2851
 9020TIP3    H148551   4.739   1.433  11.597  0.5037 -1.6329 -0.4563
 9020TIP3    H248552   4.745   1.469  11.744  1.3793  0.9696 -1.0751
 9021TIP3   OH248553   0.581   3.543  16.335 -0.0434 -0.0859  0.5348
 9021TIP3    H148554   0.626   3.601  16.397 -1.3094  1.3406  0.1775
 9021TIP3    H248555   0.589   3.456  16.373  1.6479  0.3389  1.2504
 9022TIP3   OH248556   0.237   3.672   2.006  0.2480  0.0506 -0.2405
 9022TIP3    H148557   0.259   3.766   2.005 -0.9012  0.3871  1.2488
 9022TIP3    H248558   0.150   3.669   2.046  0.3388 -1.6758 -0.1121
 9023TIP3   OH248559   0.534   4.689   0.010  0.2339 -0.3613  0.1359
 9023TIP3    H148560   0.501   4.778   0.017  0.7554 -0.0202 -1.3028
 9023TIP3    H248561   0.501   4.658  -0.075  1.6528 -0.8239 -0.2790
 9024TIP3   OH248562   5.047   4.562   3.747 -0.1298  0.1756 -0.1425
 9024TIP3    H148563   4.981   4.611   3.796 -0.9767  0.0163 -1.0966
 9024TIP3    H248564   5.023   4.470   3.760  0.5965  0.0624  0.4521
 9025TIP3   OH248565   2.107   3.632   4.145 -0.1200  0.2297 -0.2287
 9025TIP3    H148566   2.012   3.646   4.138  0.0392  0.5081 -2.3517
 9025TIP3    H248567   2.115   3.556   4.202 -1.6847 -0.4257 -0.8166
 9026TIP3   OH248568   1.324   5.519  14.380  0.6342 -0.2325 -0.4080
 9026TIP3    H148569   1.394   5.583  14.386  2.0318 -1.7267 -0.0450
 9026TIP3    H248570   1.346   5.466  14.303 -0.1192 -0.7050 -0.3168
 9027TIP3   OH248571   2.199   0.030   5.818 -0.3313 -0.5728  0.0181
 9027TIP3    H148572   2.178  -0.028   5.745 -1.9897  0.8792 -0.7246
 9027TIP3    H248573   2.277   0.077   5.789 -2.0316  1.3581 -1.7433
 9028TIP3   OH248574   2.370   3.295  16.555  0.4142  0.3795 -0.4469
 9028TIP3    H148575   2.342   3.381  16.585  0.5339  0.5230 -0.7423
 9028TIP3    H248576   2.370   3.240  16.634  0.7991  0.7679 -0.1769
 9029TIP3   OH248577   4.999   6.577  13.309 -0.6147 -0.5394  0.5479
 9029TIP3    H148578   5.000   6.481  13.311  0.2682 -0.6168 -1.5149
 9029TIP3    H248579   4.937   6.598  13.239  0.3487  0.3618 -0.0410
 9030TIP3   OH248580   5.693   2.536   5.751 -0.1711  0.0373 -0.0110
 9030TIP3    H148581   5.634   2.511   5.822  1.7178 -2.2109  0.9070
 9030TIP3    H248582   5.727   2.622   5.777 -1.1251  0.2080  0.7020
 9031TIP3   OH248583   5.705   2.668  13.977 -0.3302  0.3391  0.6268
 9031TIP3    H148584   5.742   2.601  14.035 -0.1230 -0.4436 -0.3800
 9031TIP3    H248585   5.755   2.659  13.896 -0.6650  1.3667  0.2981
 9032TIP3   OH248586   5.186   6.802  14.129 -0.3503 -0.5144 -0.4054
 9032TIP3    H148587   5.239   6.730  14.164  1.4383  0.2330 -1.4365
 9032TIP3    H248588   5.185   6.788  14.035  4.3547  3.2944 -1.4143
 9033TIP3   OH248589   0.081   4.371   3.867  0.2433 -0.3571  0.1659
 9033TIP3    H148590   0.156   4.418   3.831 -1.6434  2.3995 -0.5109
 9033TIP3    H248591   0.064   4.301   3.803  2.4782 -1.4201  0.6352
 9034TIP3   OH248592   1.092   5.352  14.353 -0.3594  0.1097 -0.2923
 9034TIP3    H148593   1.156   5.421  14.338 -0.7853  0.0548 -2.9506
 9034TIP3    H248594   1.008   5.392  14.327 -1.1064 -0.4856  1.0778
 9035TIP3   OH248595   3.318   0.418   4.813 -0.5783  0.0528 -0.9480
 9035TIP3    H148596   3.362   0.342   4.776 -0.1764 -0.3991  0.4031
 9035TIP3    H248597   3.386   0.485   4.820 -0.6090  0.0749 -0.8545
 9036TIP3   OH248598   0.394   0.241   0.882 -0.6375  0.2649  0.2028
 9036TIP3    H148599   0.441   0.229   0.799  1.7851 -0.5264  1.5898
 9036TIP3    H248600   0.379   0.153   0.914 -2.2257  0.5449  0.3095
 9037TIP3   OH248601   3.453   2.959  14.397 -0.3031 -0.3049 -0.3364
 9037TIP3    H148602   3.473   2.872  14.433 -2.7618 -1.0943 -0.6722
 9037TIP3    H248603   3.365   2.950  14.362 -0.4591  2.2490 -0.7663
 9038TIP3   OH248604   4.805   1.841  15.802 -0.1452  0.3897 -0.6794
 9038TIP3    H148605   4.848   1.770  15.849 -0.5874  1.0380  0.7586
 9038TIP3    H248606   4.874   1.882  15.750  1.1322  1.6372  1.8459
 9039TIP3   OH248607   6.125   4.155  14.965 -0.0205  0.4536 -0.0739
 9039TIP3    H148608   6.156   4.154  14.874 -1.2251  0.2492 -0.4921
 9039TIP3    H248609   6.168   4.232  15.003  0.0139  0.9037 -0.9840
 9040TIP3   OH248610   5.555   4.851   0.570  0.4047  0.1585  0.0192
 9040TIP3    H148611   5.600   4.776   0.530  0.0167 -0.0135 -0.1004
 9040TIP3    H248612   5.507   4.892   0.499 -0.5202 -0.3196  0.3472
 9041TIP3   OH248613   5.681   4.517   1.329 -0.6635 -0.1597 -0.0406
 9041TIP3    H148614   5.771   4.486   1.322 -0.9719 -1.6750  1.7053
 9041TIP3    H248615   5.675   4.589   1.266  1.4940 -0.5826 -0.8301
 9042TIP3   OH248616   0.956   5.466   4.346 -0.0443 -0.6274 -0.6095
 9042TIP3    H148617   0.944   5.400   4.278 -0.1752  0.1469 -1.3704
 9042TIP3    H248618   0.894   5.536   4.322 -0.7919 -0.7505  0.8573
 9043TIP3   OH248619   2.790   4.323  11.514 -0.3438  0.3422 -0.0370
 9043TIP3    H148620   2.742   4.241  11.505 -2.3185  1.4711 -0.2174
 9043TIP3    H248621   2.840   4.331  11.432  0.2741 -0.8846  0.1930
 9044TIP3   OH248622   0.074   3.229   1.330  0.3522  0.5215  0.1090
 9044TIP3    H148623  -0.011   3.192   1.306 -0.4761  2.8211 -0.8110
 9044TIP3    H248624   0.138   3.171   1.287 -0.6426 -1.6524  1.3904
 9045TIP3   OH248625   2.794   1.583  14.828  0.5247  0.2821 -0.1626
 9045TIP3    H148626   2.800   1.678  14.823 -0.7186  0.3973  0.1651
 9045TIP3    H248627   2.811   1.553  14.739  0.6620  0.8219 -0.3242
 9046TIP3   OH248628   1.471   6.749   2.716 -0.1687  0.1552  0.3343
 9046TIP3    H148629   1.449   6.824   2.770  2.4759  1.9713 -0.8819
 9046TIP3    H248630   1.516   6.689   2.774  0.1570  0.7908  0.7408
 9047TIP3   OH248631   0.371   5.681  13.881  0.1235 -0.3094  0.2634
 9047TIP3    H148632   0.337   5.721  13.802  0.1322  1.0947  0.9320
 9047TIP3    H248633   0.466   5.688  13.872  0.1315 -0.4905  0.2190
 9048TIP3   OH248634   2.746   4.262   5.327 -0.1625  0.3026 -0.1021
 9048TIP3    H148635   2.794   4.255   5.410  0.0443  1.0855 -0.1500
 9048TIP3    H248636   2.656   4.239   5.350 -0.3154  1.4916  0.5621
 9049TIP3   OH248637   5.948   4.209   1.910 -0.2624 -0.1287 -0.3217
 9049TIP3    H148638   6.007   4.284   1.922 -0.6600 -0.1657  2.7840
 9049TIP3    H248639   5.862   4.242   1.937 -0.5673 -1.5128  0.4534
 9050TIP3   OH248640   1.831   2.003  16.639  0.5267 -0.3626  0.0438
 9050TIP3    H148641   1.882   2.041  16.710  0.9009  0.2225 -0.5264
 9050TIP3    H248642   1.809   1.915  16.670  3.8650 -1.5855 -0.5757
 9051TIP3   OH248643   6.092   6.719   4.406  0.4641  0.0010  0.0746
 9051TIP3    H148644   6.044   6.671   4.339  0.5255 -0.3171  0.2560
 9051TIP3    H248645   6.184   6.705   4.384  0.4812  0.0933  0.0872
 9052TIP3   OH248646   3.475   5.327  11.050  0.0935  0.3137  0.8505
 9052TIP3    H148647   3.544   5.394  11.057  0.3002  0.2097 -0.0554
 9052TIP3    H248648   3.523   5.244  11.046 -0.1008  0.2155  0.5414
 9053TIP3   OH248649   3.107   3.548   5.780  0.0565 -0.3672  0.2167
 9053TIP3    H148650   3.124   3.634   5.742 -0.1498 -0.8975 -1.1284
 9053TIP3    H248651   3.186   3.529   5.831  0.0090  0.7024  0.7092
 9054TIP3   OH248652   3.924   5.109   1.891 -0.5509  0.5137  0.3396
 9054TIP3    H148653   3.990   5.176   1.875 -0.5837  0.4363 -0.1285
 9054TIP3    H248654   3.869   5.145   1.961  0.1561  0.4597  0.9393
 9055TIP3   OH248655   4.464   1.311  12.327  0.6130 -0.5499  0.2358
 9055TIP3    H148656   4.524   1.345  12.393  0.6292 -1.0627  0.4867
 9055TIP3    H248657   4.415   1.388  12.298  0.3701 -0.3805  1.0871
 9056TIP3   OH248658   4.943   0.994   0.620 -0.4703 -0.0792 -0.0338
 9056TIP3    H148659   4.861   1.044   0.613 -0.5853 -0.1011  0.9632
 9056TIP3    H248660   4.921   0.920   0.676 -0.0502 -0.7218 -0.7109
 9057TIP3   OH248661   0.698   6.793   0.299 -0.6735 -0.1440  0.1594
 9057TIP3    H148662   0.668   6.831   0.381 -0.0255  1.7656 -0.4356
 9057TIP3    H248663   0.650   6.841   0.231  0.0458 -0.5084 -0.6238
 9058TIP3   OH248664   3.033   5.435   5.452 -0.2707 -0.2547  0.1340
 9058TIP3    H148665   3.036   5.353   5.402 -0.9188 -0.3866  0.3036
 9058TIP3    H248666   2.944   5.439   5.486 -0.1895  0.4351  0.2804
 9059TIP3   OH248667   5.492   5.668  16.478 -0.9900 -0.2409 -0.4772
 9059TIP3    H148668   5.582   5.689  16.504 -0.2193 -3.2915 -0.3045
 9059TIP3    H248669   5.437   5.725  16.533  0.7640  1.6258 -0.5252
 9060TIP3   OH248670   4.516   4.073  12.786 -0.4468 -0.4473  0.7745
 9060TIP3    H148671   4.571   4.101  12.712  0.0670  2.6094  2.1559
 9060TIP3    H248672   4.505   3.979  12.773  2.5034 -0.6553 -1.2950
 9061TIP3   OH248673   1.714   4.938  11.908  0.1225 -0.4641  0.2192
 9061TIP3    H148674   1.655   5.002  11.949  1.1383 -0.0090  1.0389
 9061TIP3    H248675   1.675   4.920  11.823 -1.0476  0.0227  0.6306
 9062TIP3   OH248676   4.176   5.664  11.567  0.0993 -0.3052 -0.0472
 9062TIP3    H148677   4.109   5.699  11.507 -1.5135 -2.0435  0.6502
 9062TIP3    H248678   4.255   5.714  11.546 -0.6127 -0.2222 -3.0187
 9063TIP3   OH248679   1.410   6.195   5.963 -0.3236  0.2831 -0.3213
 9063TIP3    H148680   1.429   6.212   6.055 -1.2328  0.9635 -0.2474
 9063TIP3    H248681   1.495   6.200   5.920 -0.0388  1.0617  0.3160
 9064TIP3   OH248682   1.494   5.574   1.442  0.0072  0.1222 -0.2924
 9064TIP3    H148683   1.499   5.479   1.429 -0.0190  0.4280 -3.4205
 9064TIP3    H248684   1.401   5.594   1.432 -0.1429  0.4103  1.4436
 9065TIP3   OH248685   3.692   5.350   5.132 -0.3742 -0.8590 -0.2640
 9065TIP3    H148686   3.637   5.424   5.159  0.1814 -0.4389 -0.2627
 9065TIP3    H248687   3.632   5.289   5.090 -0.7520 -0.1318 -0.8012
 9066TIP3   OH248688   0.702   3.026   1.330 -0.7813  0.2618  0.2231
 9066TIP3    H148689   0.718   3.083   1.254 -1.2931 -0.8684 -0.7584
 9066TIP3    H248690   0.746   2.944   1.307 -3.2746 -1.0511 -0.1063
 9067TIP3   OH248691   4.044   2.295   4.829  0.0814  0.1676 -0.5821
 9067TIP3    H148692   3.969   2.274   4.774  0.5300 -0.3710 -1.0099
 9067TIP3    H248693   4.095   2.357   4.778 -0.3992  1.0492 -0.0124
 9068TIP3   OH248694   6.036   2.674   0.603  0.4273  0.3521 -0.2616
 9068TIP3    H148695   6.110   2.633   0.558  0.5233  0.6648 -0.3917
 9068TIP3    H248696   5.972   2.605   0.612  0.7106  0.0938 -0.2087
 9069TIP3   OH248697   0.006   3.493   5.372  0.1457  0.3341 -0.0888
 9069TIP3    H148698  -0.051   3.555   5.418  0.0316  2.2837 -2.6302
 9069TIP3    H248699   0.094   3.525   5.387  0.2560 -0.1333  0.2820
 9070TIP3   OH248700   2.566   2.992  15.506  0.7797  0.7766  0.1575
 9070TIP3    H148701   2.621   3.021  15.578  0.4381  1.5837  0.1038
 9070TIP3    H248702   2.609   2.913  15.472  2.4067  1.8761 -0.4736
 9071TIP3   OH248703   6.378   2.486   5.119  0.2959 -0.1569 -0.5042
 9071TIP3    H148704   6.368   2.486   5.024 -1.1382 -1.1400 -0.3924
 9071TIP3    H248705   6.293   2.515   5.152  0.3705 -1.0096  0.4864
 9072TIP3   OH248706   1.895   1.165  13.642 -0.1776 -0.0899 -0.9823
 9072TIP3    H148707   1.970   1.116  13.608 -0.0474 -0.7207  0.1716
 9072TIP3    H248708   1.931   1.251  13.666  0.9690 -1.3836  2.5257
 9073TIP3   OH248709   4.526   0.166  13.294  0.1282 -0.2859 -0.2300
 9073TIP3    H148710   4.502   0.239  13.351  1.5757  0.6125 -0.7076
 9073TIP3    H248711   4.446   0.115  13.285 -1.4198  2.0925 -1.1346
 9074TIP3   OH248712   3.757   4.344  11.684 -0.3281 -0.1937  0.3017
 9074TIP3    H148713   3.745   4.352  11.779 -0.3623 -1.6637  0.4562
 9074TIP3    H248714   3.847   4.311  11.675 -0.3345 -0.0808 -0.1708
 9075TIP3   OH248715   4.863   3.745  12.112  0.3140  0.1594 -0.2925
 9075TIP3    H148716   4.782   3.786  12.085  0.2373 -0.5434 -1.2038
 9075TIP3    H248717   4.922   3.818  12.132 -0.4809  0.6700  0.2202
 9076TIP3   OH248718   2.604   5.823  16.501  0.5437 -0.1074  0.3691
 9076TIP3    H148719   2.533   5.860  16.449  1.7276  0.7582 -0.6819
 9076TIP3    H248720   2.675   5.809  16.438  0.1699 -4.3961  0.5982
 9077TIP3   OH248721   2.315   6.350  17.122 -0.2358  0.2185  0.1171
 9077TIP3    H148722   2.408   6.367  17.110 -0.1023 -1.5796 -1.8376
 9077TIP3    H248723   2.312   6.282  17.189 -0.3580  1.9123  1.9534
 9078TIP3   OH248724   6.139   4.242   2.748  0.2937 -0.0208 -0.1243
 9078TIP3    H148725   6.067   4.205   2.697 -0.4411  0.3175  0.6350
 9078TIP3    H248726   6.218   4.209   2.706 -0.0889  2.9427 -3.6851
 9079TIP3   OH248727   4.070   1.839   3.715  0.0988  0.1191  0.1226
 9079TIP3    H148728   4.129   1.913   3.731 -0.6736  0.5124  1.2802
 9079TIP3    H248729   4.039   1.853   3.626 -0.5332  1.5784  0.5357
 9080TIP3   OH248730   3.356   0.526   0.568  0.0021  0.7830 -0.1926
 9080TIP3    H148731   3.278   0.565   0.526  0.0704  1.9815  0.7338
 9080TIP3    H248732   3.323   0.485   0.647  0.2012  0.5956 -0.2068
 9081TIP3   OH248733   0.503   3.374   2.836  0.3457 -0.3819 -0.2226
 9081TIP3    H148734   0.422   3.411   2.799  0.9101 -0.8588 -2.0567
 9081TIP3    H248735   0.561   3.449   2.844  0.1296 -0.2284 -0.0912
 9082TIP3   OH248736   1.837   0.115   3.869  0.2965  0.3622  0.6075
 9082TIP3    H148737   1.809   0.133   3.780  1.5507 -2.0584 -0.3614
 9082TIP3    H248738   1.756   0.111   3.920 -0.5171  0.6411 -0.6297
 9083TIP3   OH248739   5.716   2.954  12.923 -0.7120 -0.5216 -0.9608
 9083TIP3    H148740   5.810   2.952  12.901 -0.4831 -1.2312  0.0416
 9083TIP3    H248741   5.675   2.992  12.845  0.6261  1.7668 -0.6506
 9084TIP3   OH248742   6.062   0.291   2.845 -0.3109 -0.0836  0.0510
 9084TIP3    H148743   5.988   0.236   2.871 -0.5468 -0.4686 -1.3509
 9084TIP3    H248744   6.115   0.299   2.924 -1.9916  0.4565  1.1756
 9085TIP3   OH248745   0.520   5.471  14.360 -0.3919 -0.8912 -0.1926
 9085TIP3    H148746   0.459   5.544  14.345 -1.5358 -1.9128 -0.6360
 9085TIP3    H248747   0.553   5.486  14.449  2.5574  2.4101 -1.6212
 9086TIP3   OH248748   1.941   2.269  15.820  0.6478  0.8092  0.6162
 9086TIP3    H148749   2.014   2.222  15.862  0.1921 -0.3609  0.1348
 9086TIP3    H248750   1.976   2.297  15.736  0.4326 -0.1363  0.1964
 9087TIP3   OH248751   1.618   3.981  15.837 -0.5025 -0.4863 -0.3747
 9087TIP3    H148752   1.567   4.061  15.826  0.1735  0.2646  1.5138
 9087TIP3    H248753   1.579   3.937  15.912  1.1920 -0.1882  0.7424
 9088TIP3   OH248754   3.078   5.715   0.476 -0.2049 -0.4068 -0.0585
 9088TIP3    H148755   3.076   5.729   0.381 -2.8415 -1.2715 -0.2063
 9088TIP3    H248756   3.088   5.802   0.514 -0.8671  0.1368 -1.1085
 9089TIP3   OH248757   6.501   0.307  12.114 -0.0846  0.4634 -0.0058
 9089TIP3    H148758   6.417   0.276  12.080  0.4402 -0.1079 -0.8179
 9089TIP3    H248759   6.482   0.395  12.147 -1.3312 -0.2122  1.2178
 9090TIP3   OH248760   0.919   0.158  14.741 -0.1358  0.3375  0.4651
 9090TIP3    H148761   0.975   0.082  14.726 -1.4277 -0.5597  0.0763
 9090TIP3    H248762   0.913   0.165  14.836  1.8841  1.4221  0.5778
 9091TIP3   OH248763   2.736   2.667   1.577 -0.1022  0.0458  0.1156
 9091TIP3    H148764   2.722   2.645   1.669 -2.5960 -0.5470 -0.3154
 9091TIP3    H248765   2.649   2.694   1.545  0.4799 -0.6217 -2.2631
 9092TIP3   OH248766   3.745   0.577  11.616  0.3232  0.6445  0.0982
 9092TIP3    H148767   3.726   0.626  11.536  2.4039  0.9407 -0.2657
 9092TIP3    H248768   3.780   0.643  11.676  1.6896 -0.0892  0.1502
 9093TIP3   OH248769   1.265   3.664  11.313  0.1346  0.8431  0.1016
 9093TIP3    H148770   1.242   3.677  11.221  1.6713 -2.9307 -1.0362
 9093TIP3    H248771   1.350   3.706  11.323  0.8052 -0.2679 -0.7746
 9094TIP3   OH248772   4.139   5.823  12.300 -0.6488  0.2489 -0.3724
 9094TIP3    H148773   4.101   5.765  12.234 -0.3473 -0.8962  0.4303
 9094TIP3    H248774   4.197   5.881  12.251 -0.6283 -0.4118 -1.1420
 9095TIP3   OH248775   6.043   6.198  13.725  0.2267 -0.0958 -0.3042
 9095TIP3    H148776   5.984   6.231  13.658  1.0007  0.4312 -0.7468
 9095TIP3    H248777   6.050   6.269  13.788  0.1591 -0.2677 -0.1017
 9096TIP3   OH248778   4.191   2.268  13.126  0.1081 -0.9116 -0.1943
 9096TIP3    H148779   4.217   2.246  13.215  0.1323  0.0010  0.0289
 9096TIP3    H248780   4.152   2.187  13.091 -2.2244 -0.5942  1.4733
 9097TIP3   OH248781   4.215   0.399   0.080 -0.5506 -0.0401  0.1626
 9097TIP3    H148782   4.184   0.410  -0.010 -0.1031 -0.0667  0.0013
 9097TIP3    H248783   4.309   0.381   0.071 -0.2679  1.0531  0.6793
 9098TIP3   OH248784   4.951   3.927  15.660  0.0804 -0.0137 -0.4605
 9098TIP3    H148785   4.867   3.881  15.665  0.5408 -0.7895  0.4918
 9098TIP3    H248786   4.985   3.905  15.573  0.2992 -1.5247 -0.0196
 9099TIP3   OH248787   1.237   4.522   3.603 -0.5776 -0.0229 -0.0453
 9099TIP3    H148788   1.278   4.513   3.689 -0.9282  1.5967  0.3224
 9099TIP3    H248789   1.143   4.522   3.621 -0.6871  2.9307 -0.0295
 9100TIP3   OH248790   2.464   6.645   4.456  0.4235  0.4844 -0.1458
 9100TIP3    H148791   2.544   6.622   4.502 -1.6635 -2.1267  2.5984
 9100TIP3    H248792   2.430   6.721   4.502  1.5742  2.1172 -1.8283
 9101TIP3   OH248793   5.696   1.189  13.370 -0.3555 -0.1410 -0.6452
 9101TIP3    H148794   5.721   1.218  13.282  1.5639  0.8965  0.1562
 9101TIP3    H248795   5.604   1.167  13.363 -0.1709 -0.4440 -3.0002
 9102TIP3   OH248796   4.774   2.920  16.923  0.1540  0.3074  0.3265
 9102TIP3    H148797   4.753   3.000  16.875 -1.0544 -0.5314 -0.6035
 9102TIP3    H248798   4.698   2.904  16.977  0.7289  0.2013  1.1233
 9103TIP3   OH248799   3.523   5.296   5.360  0.1566  0.4951 -0.4902
 9103TIP3    H148800   3.457   5.289   5.429 -0.0007  0.4767 -0.6387
 9103TIP3    H248801   3.561   5.382   5.371 -2.8359  2.3730 -2.9581
 9104TIP3   OH248802   4.794   1.799   4.602 -0.0522  0.3598 -0.0021
 9104TIP3    H148803   4.787   1.704   4.591  0.0673  0.2750  0.6533
 9104TIP3    H248804   4.886   1.818   4.584  0.5705 -0.0142  2.4823
 9105TIP3   OH248805   5.888   5.758   4.651 -0.3964  0.7648  0.0129
 9105TIP3    H148806   5.873   5.814   4.727  0.3160  0.4840  0.3653
 9105TIP3    H248807   5.942   5.811   4.592  0.2844  0.4540  0.3498
 9106TIP3   OH248808   1.562   0.776  11.821 -0.2495  0.1022 -0.2425
 9106TIP3    H148809   1.543   0.701  11.877 -1.5898  0.4780 -0.1637
 9106TIP3    H248810   1.501   0.844  11.849  1.9425  1.8167  0.7555
 9107TIP3   OH248811   1.566   1.307  16.365 -0.4105  0.0981 -0.1901
 9107TIP3    H148812   1.581   1.287  16.273  0.4681  0.3154 -0.1041
 9107TIP3    H248813   1.484   1.356  16.366  0.1604  1.1288 -1.0040
 9108TIP3   OH248814   0.816   3.167   1.120 -0.4175 -0.6166  0.0041
 9108TIP3    H148815   0.854   3.117   1.048  1.2396  1.2959 -0.5485
 9108TIP3    H248816   0.888   3.221   1.153 -1.9363  0.9620  0.9520
 9109TIP3   OH248817   6.372   3.085   3.859 -0.0593 -0.3085  0.1293
 9109TIP3    H148818   6.315   3.140   3.913  1.1408  0.4838  0.6544
 9109TIP3    H248819   6.314   3.047   3.793 -1.2388  0.1775  0.8489
 9110TIP3   OH248820   2.175   1.032   1.012  0.2052 -0.2671  0.6699
 9110TIP3    H148821   2.175   1.057   0.920  0.8547 -0.0592  0.7145
 9110TIP3    H248822   2.218   1.106   1.057 -1.4273  0.3093  1.3427
 9111TIP3   OH248823   4.459   3.477   0.537 -0.0255 -0.0445 -0.2583
 9111TIP3    H148824   4.389   3.417   0.564  0.6132 -0.2211  1.1264
 9111TIP3    H248825   4.431   3.563   0.569 -2.1201  1.0612 -4.3186
 9112TIP3   OH248826   5.591   2.592  16.397  0.3169  0.2551 -0.1959
 9112TIP3    H148827   5.558   2.660  16.338  0.1023  0.2617 -0.0676
 9112TIP3    H248828   5.512   2.550  16.431  0.4338  0.4457  0.3157
 9113TIP3   OH248829   2.188   2.025  14.054 -0.3346  0.2412  0.4987
 9113TIP3    H148830   2.125   1.971  14.101 -1.1429  1.3164  0.6872
 9113TIP3    H248831   2.136   2.079  13.995  0.3537  1.4124  0.9205
 9114TIP3   OH248832   1.359   3.134  15.770  0.2038 -0.0972  0.7011
 9114TIP3    H148833   1.447   3.169  15.757 -0.4653  1.4298  0.0782
 9114TIP3    H248834   1.342   3.082  15.692 -0.1501  1.1889 -0.1098
 9115TIP3   OH248835   3.837   1.721  16.539  0.4676 -0.2532  0.4045
 9115TIP3    H148836   3.868   1.782  16.606  0.4481  1.4496 -1.0551
 9115TIP3    H248837   3.743   1.710  16.558  0.6920 -0.6914  1.3030
 9116TIP3   OH248838   5.562   0.065  11.826 -0.3635 -0.0757  0.3124
 9116TIP3    H148839   5.614   0.012  11.766  1.2586  1.3296  0.3931
 9116TIP3    H248840   5.483   0.086  11.777  0.3564 -0.0181 -0.8702
 9117TIP3   OH248841   6.075   2.243  14.397  0.2125 -0.4860 -0.0824
 9117TIP3    H148842   6.159   2.216  14.434  0.8513  0.9517 -0.4147
 9117TIP3    H248843   6.091   2.251  14.303  0.1087  1.1042  0.0063
 9118TIP3   OH248844   5.417   1.660  11.690 -0.1356  0.1073 -0.3449
 9118TIP3    H148845   5.415   1.694  11.600 -2.2720  0.1285 -0.3501
 9118TIP3    H248846   5.410   1.565  11.680  0.2117  0.0665 -0.2094
 9119TIP3   OH248847   3.321   4.868   1.610 -0.7268 -0.0285 -0.6228
 9119TIP3    H148848   3.227   4.865   1.626 -0.7857 -0.1332 -0.9934
 9119TIP3    H248849   3.339   4.794   1.552 -0.7055  1.0542 -2.0376
 9120TIP3   OH248850   3.214   1.600   1.590 -0.6097 -0.2342  0.9398
 9120TIP3    H148851   3.181   1.632   1.506 -3.2223  0.4927  2.1457
 9120TIP3    H248852   3.272   1.670   1.621  0.9512 -0.8158 -0.4832
 9121TIP3   OH248853   2.396   1.366  12.936  0.9364  0.1043 -0.5133
 9121TIP3    H148854   2.357   1.281  12.914 -0.5499  0.3928  0.7930
 9121TIP3    H248855   2.356   1.390  13.019  3.9845  0.4628  0.9800
 9122TIP3   OH248856   2.532   5.026  16.518  0.1858  0.5514 -0.1055
 9122TIP3    H148857   2.607   5.018  16.460 -0.8403 -0.8020 -1.2948
 9122TIP3    H248858   2.478   5.094  16.479 -0.3615 -0.1536 -0.5975
 9123TIP3   OH248859   3.433   1.869   0.837  0.2403  0.3320 -0.4779
 9123TIP3    H148860   3.528   1.877   0.825 -0.0046  1.1013 -2.2997
 9123TIP3    H248861   3.402   1.836   0.752 -1.1454  0.3175  0.0188
 9124TIP3   OH248862   6.098   3.296   4.716 -0.0219  0.2473 -0.3087
 9124TIP3    H148863   6.156   3.277   4.643  0.5567 -0.9505  0.4242
 9124TIP3    H248864   6.102   3.391   4.726  1.4225  0.2353 -0.5949
 9125TIP3   OH248865   3.683   4.297  12.633 -0.1969 -0.1327 -0.4206
 9125TIP3    H148866   3.657   4.205  12.630 -2.8623  0.4985  0.5637
 9125TIP3    H248867   3.758   4.298  12.693 -1.3737 -1.4526  1.1658
 9126TIP3   OH248868   6.348   6.034   4.047 -0.1351  0.0267  0.0265
 9126TIP3    H148869   6.424   5.992   4.008 -0.6684 -0.1055 -0.8829
 9126TIP3    H248870   6.296   6.064   3.973 -1.1745 -0.2412  0.6383
 9127TIP3   OH248871   0.435   1.413   4.124 -0.8122  0.4336  0.3280
 9127TIP3    H148872   0.501   1.442   4.188 -0.1993 -0.9989  0.3828
 9127TIP3    H248873   0.377   1.489   4.114  1.1024  1.9258 -0.0900
 9128TIP3   OH248874   0.228   0.732  12.306  0.0122  0.3105 -0.2260
 9128TIP3    H148875   0.214   0.694  12.220  0.5092 -0.7085  0.1259
 9128TIP3    H248876   0.308   0.785  12.297  0.2912 -0.1199 -0.2948
 9129TIP3   OH248877   0.305   1.036  13.405  0.2294 -0.2479  0.3575
 9129TIP3    H148878   0.397   1.027  13.430  0.4287 -0.2725 -0.3708
 9129TIP3    H248879   0.268   1.093  13.472  0.6094 -0.7865  1.0461
 9130TIP3   OH248880   1.344   1.768   1.450  0.2626  0.7122  0.3816
 9130TIP3    H148881   1.369   1.698   1.511  0.3657  0.6631  0.2825
 9130TIP3    H248882   1.385   1.846   1.486  1.1771  0.5086 -0.1733
 9131TIP3   OH248883   3.627   5.013   0.087  0.4267  0.2139  0.4950
 9131TIP3    H148884   3.708   5.039   0.132  0.7449  1.4857 -0.7272
 9131TIP3    H248885   3.613   5.081   0.022 -0.7690 -0.8405 -0.4079
 9132TIP3   OH248886   2.042   6.115  17.103 -0.7278 -0.4848 -0.3993
 9132TIP3    H148887   1.962   6.078  17.065 -0.2142  0.6864 -2.8155
 9132TIP3    H248888   2.040   6.207  17.078  1.8905 -0.6436 -1.6042
 9133TIP3   OH248889   5.628   2.067   0.622  0.1204 -0.5976  0.0666
 9133TIP3    H148890   5.598   2.105   0.539 -0.3200  1.9756  1.2938
 9133TIP3    H248891   5.554   2.014   0.652  0.0722 -1.1013 -0.9006
 9134TIP3   OH248892   1.478   4.776  11.990 -0.1618 -0.0559  0.7353
 9134TIP3    H148893   1.439   4.711  12.048 -0.7261  1.9657  2.7587
 9134TIP3    H248894   1.404   4.817  11.945 -0.0013  0.5214  0.9805
 9135TIP3   OH248895   3.235   2.966  15.864 -0.3510  0.0052 -0.3314
 9135TIP3    H148896   3.164   2.936  15.806  1.2215  0.5003 -2.6431
 9135TIP3    H248897   3.216   3.058  15.880 -1.1301 -0.2817  0.5619
 9136TIP3   OH248898   2.334   5.467  14.412 -0.2826 -0.6406 -0.4546
 9136TIP3    H148899   2.265   5.420  14.365 -0.8431 -0.3525  0.0610
 9136TIP3    H248900   2.381   5.515  14.345 -0.0775 -1.4732 -0.9158
 9137TIP3   OH248901   5.407   4.991   4.903  0.5159  0.4132  0.4328
 9137TIP3    H148902   5.421   4.940   4.824  1.6735  0.5213  0.5561
 9137TIP3    H248903   5.312   5.002   4.907  0.5319  2.5979 -2.3217
 9138TIP3   OH248904   4.772   2.687  13.350 -0.3042  0.4543 -0.3884
 9138TIP3    H148905   4.779   2.766  13.403  2.3337 -0.9523  1.5923
 9138TIP3    H248906   4.702   2.637  13.391  0.4788  0.1962  0.6805
 9139TIP3   OH248907   5.817   4.733  15.829  0.2640 -0.0296 -0.1627
 9139TIP3    H148908   5.855   4.817  15.853 -1.8084  0.4506  1.6819
 9139TIP3    H248909   5.727   4.737  15.860  0.1384 -3.0112  0.1257
 9140TIP3   OH248910   4.431   0.900   0.832  0.2948 -0.0477  0.4790
 9140TIP3    H148911   4.459   0.991   0.836  1.3097 -0.3807  1.2996
 9140TIP3    H248912   4.470   0.867   0.751  0.0766  0.1803  0.2752
 9141TIP3   OH248913   5.348   0.975  12.953 -0.4842 -0.4143 -0.1409
 9141TIP3    H148914   5.336   0.907  12.888  0.4547 -0.5696 -0.1662
 9141TIP3    H248915   5.344   1.057  12.904 -0.2280 -0.5121 -0.3246
 9142TIP3   OH248916   6.275   4.536  13.439 -0.3653 -0.4888  0.0677
 9142TIP3    H148917   6.275   4.466  13.374  1.3210 -0.7056  0.2651
 9142TIP3    H248918   6.276   4.491  13.523  0.2918 -0.2498  0.1982
 9143TIP3   OH248919   6.418   3.084  15.031  0.1243  0.0565 -0.3108
 9143TIP3    H148920   6.423   3.180  15.026 -0.7208  0.2225  1.2800
 9143TIP3    H248921   6.480   3.053  14.966  2.4399  1.6888  0.9597
 9144TIP3   OH248922   0.301   0.190   5.167  0.4433  0.1850 -0.0085
 9144TIP3    H148923   0.270   0.278   5.144  2.7559  1.4616  1.3396
 9144TIP3    H248924   0.275   0.180   5.259 -1.1514 -1.2559 -0.5582
 9145TIP3   OH248925   3.654   6.562  16.835  0.1160 -0.3024 -0.0224
 9145TIP3    H148926   3.746   6.546  16.816  0.2553  2.5755 -2.4049
 9145TIP3    H248927   3.609   6.537  16.754 -0.5606  2.6358 -0.6532
 9146TIP3   OH248928   4.131   3.535   5.456 -0.3093 -0.2824 -0.0107
 9146TIP3    H148929   4.205   3.521   5.515  0.5598 -0.8312 -1.1783
 9146TIP3    H248930   4.056   3.500   5.503  0.2460 -0.1324  1.0172
 9147TIP3   OH248931   2.575   6.663   6.714 -0.3511  0.4146 -0.1660
 9147TIP3    H148932   2.666   6.691   6.704  0.0680 -0.4538  1.0080
 9147TIP3    H248933   2.525   6.723   6.658  0.5346  3.2673  1.8737
 9148TIP3   OH248934   4.922   3.736   5.782  0.4537  0.1988  0.2131
 9148TIP3    H148935   4.835   3.727   5.821  0.3516  1.7524  0.4170
 9148TIP3    H248936   4.922   3.674   5.709 -0.7001 -0.0766  0.4273
 9149TIP3   OH248937   6.017   3.707  13.274  0.1540 -0.3692  0.8264
 9149TIP3    H148938   5.974   3.772  13.218  0.6809  0.1699  1.0504
 9149TIP3    H248939   6.073   3.757  13.333  0.9843 -1.0495  0.6463
 9150TIP3   OH248940   5.416   4.959   2.683  0.0607  0.6504  0.6306
 9150TIP3    H148941   5.401   4.952   2.589  1.1059 -0.8585  0.5396
 9150TIP3    H248942   5.396   5.050   2.704  0.0258  1.0689 -1.0885
 9151TIP3   OH248943   2.595   1.326   1.630  0.5114  0.4930 -0.1440
 9151TIP3    H148944   2.545   1.291   1.556  0.4425  1.7486 -0.7250
 9151TIP3    H248945   2.685   1.299   1.613  0.1686 -1.1861  0.5415
 9152TIP3   OH248946   4.683   6.697  13.237 -0.4564  0.1157  0.3626
 9152TIP3    H148947   4.730   6.781  13.244 -0.9378  0.6814 -2.1219
 9152TIP3    H248948   4.591   6.721  13.228 -0.5078 -0.5974 -1.3059
 9153TIP3   OH248949   2.010   0.427  14.607  0.1688  0.0730 -0.5819
 9153TIP3    H148950   2.059   0.351  14.577  1.5700  0.6920  0.0522
 9153TIP3    H248951   2.066   0.502  14.588 -0.5124  0.8093  0.1966
 9154TIP3   OH248952   2.866   1.623  13.573  0.4155 -0.1310  0.1525
 9154TIP3    H148953   2.953   1.660  13.589  1.1567 -1.5195 -0.4361
 9154TIP3    H248954   2.871   1.589  13.483 -1.1833  0.9313 -0.3764
 9155TIP3   OH248955   2.449   3.237   2.584 -0.4116 -0.6102 -0.5628
 9155TIP3    H148956   2.379   3.296   2.611  0.5290  0.9781 -1.4688
 9155TIP3    H248957   2.418   3.201   2.500  0.3667  1.1078 -1.6373
 9156TIP3   OH248958   0.384   4.936  11.217  0.0816  0.2286 -0.1740
 9156TIP3    H148959   0.313   4.890  11.262 -0.2070  0.1571 -0.6961
 9156TIP3    H248960   0.459   4.877  11.224  0.7989  1.3417  2.4997
 9157TIP3   OH248961   3.261   6.786  14.267  0.2745 -0.1265 -0.3435
 9157TIP3    H148962   3.212   6.802  14.187  0.9271  0.5539 -0.6164
 9157TIP3    H248963   3.342   6.745  14.237  0.1331 -0.7185  0.0570
 9158TIP3   OH248964   4.778   6.162   4.954 -0.4703 -0.3404 -0.3510
 9158TIP3    H148965   4.866   6.169   4.917 -0.0715 -1.8628  0.2230
 9158TIP3    H248966   4.721   6.152   4.878 -0.2733  1.3885 -0.7732
 9159TIP3   OH248967   0.774   5.308   6.113 -0.7679  0.1403  0.3422
 9159TIP3    H148968   0.866   5.293   6.136 -0.8705 -0.8408  0.1368
 9159TIP3    H248969   0.757   5.248   6.040 -2.1061 -1.1664  1.6480
 9160TIP3   OH248970   6.610   0.027  12.838  0.3710 -0.2120 -0.3493
 9160TIP3    H148971   6.556   0.105  12.849  1.3710  0.2147  2.3652
 9160TIP3    H248972   6.584  -0.009  12.753 -1.5559  1.9313 -0.7586
 9161TIP3   OH248973   3.028   0.018   1.798 -0.0429  0.4929  0.5158
 9161TIP3    H148974   3.053  -0.060   1.849  0.6320  0.5808  0.3137
 9161TIP3    H248975   3.030   0.090   1.862  0.3347  0.5212  0.4714
 9162TIP3   OH248976   4.456   6.649  12.057 -0.5078  0.0070 -0.2295
 9162TIP3    H148977   4.381   6.624  12.110 -0.7921  0.6561 -0.3168
 9162TIP3    H248978   4.499   6.719  12.106  0.0526 -0.3584 -0.1776
 9163TIP3   OH248979   3.698   1.247  15.632  0.1624  0.4150 -0.1505
 9163TIP3    H148980   3.710   1.201  15.715 -1.1820 -0.7672 -0.5574
 9163TIP3    H248981   3.651   1.327  15.655 -0.2334  0.0756  0.2427
 9164TIP3   OH248982   4.404   4.025   5.409 -0.3733 -0.1715  0.0572
 9164TIP3    H148983   4.466   3.990   5.344 -0.8900  0.4126 -0.7636
 9164TIP3    H248984   4.415   3.968   5.485  0.0444 -1.0455 -0.6409
 9165TIP3   OH248985   1.122   6.627  14.483 -0.5440 -0.0256 -0.0690
 9165TIP3    H148986   1.206   6.592  14.511 -1.1941 -1.0383  0.7063
 9165TIP3    H248987   1.090   6.677  14.558 -0.4754  0.6497 -0.4877
 9166TIP3   OH248988   1.655   6.206   1.694 -0.3953  0.0858 -0.0861
 9166TIP3    H148989   1.685   6.191   1.784 -1.0119  0.9582  0.2906
 9166TIP3    H248990   1.560   6.199   1.699 -0.3548 -2.0403 -1.1351
 9167TIP3   OH248991   3.550   4.781  14.187  0.7185 -0.4527  0.3362
 9167TIP3    H148992   3.511   4.767  14.101  1.6665 -0.1137 -0.1647
 9167TIP3    H248993   3.477   4.805  14.243  0.0223 -1.1082 -0.2690
 9168TIP3   OH248994   3.288   5.064   6.240  0.3632 -0.4610 -0.4302
 9168TIP3    H148995   3.330   4.993   6.193 -1.3746 -0.6105 -1.8578
 9168TIP3    H248996   3.195   5.043   6.237 -0.0163  0.8182  0.9553
 9169TIP3   OH248997   5.491   3.541   2.561 -0.0877 -0.6995 -0.1150
 9169TIP3    H148998   5.561   3.599   2.592  1.1994 -1.9468 -0.5499
 9169TIP3    H248999   5.411   3.593   2.568  0.8728  0.7592  0.4614
 9170TIP3   OH249000   3.948   4.442   5.438  0.2837  0.4787  0.2195
 9170TIP3    H149001   4.025   4.494   5.463 -0.7697  1.2829  1.9909
 9170TIP3    H249002   3.968   4.410   5.350  1.0064  3.9237 -1.0213
 9171TIP3   OH249003   5.364   2.362  15.417  0.3587 -0.2699  0.2355
 9171TIP3    H149004   5.404   2.447  15.399  1.7157 -1.1550 -1.2507
 9171TIP3    H249005   5.434   2.312  15.458  0.0045 -1.0793 -0.1327
 9172TIP3   OH249006   4.268   5.663  15.852 -0.3204  0.1535 -0.1883
 9172TIP3    H149007   4.334   5.731  15.846 -0.1627  0.0789  0.6522
 9172TIP3    H249008   4.258   5.631  15.762 -0.0184  0.9176 -0.4949
 9173TIP3   OH249009   1.853   0.186  15.148 -0.4399 -0.6746  0.0919
 9173TIP3    H149010   1.941   0.154  15.129  0.1315  0.1909  1.1927
 9173TIP3    H249011   1.821   0.128  15.217 -0.4540 -0.5241  0.2113
 9174TIP3   OH249012   5.041   3.700  13.475 -0.3202 -0.1190 -0.4958
 9174TIP3    H149013   4.966   3.740  13.432 -0.9504 -0.1227  0.5802
 9174TIP3    H249014   5.117   3.732  13.426 -0.9129  1.1391 -0.6121
 9175TIP3   OH249015   3.397   6.287   0.096 -0.2014 -0.0670 -0.0011
 9175TIP3    H149016   3.480   6.260   0.134  1.1177  1.5479 -1.5513
 9175TIP3    H249017   3.386   6.378   0.124 -0.7151  0.1939 -0.9901
 9176TIP3   OH249018   0.550   2.383   1.037 -0.3833  0.1755  0.7114
 9176TIP3    H149019   0.498   2.333   1.099 -0.0478 -1.7188 -0.4534
 9176TIP3    H249020   0.488   2.410   0.969 -0.3469  0.3239  0.7358
 9177TIP3   OH249021   1.088   4.331  10.808  0.2053  0.0473 -0.0777
 9177TIP3    H149022   1.015   4.300  10.754  0.1837 -0.2854  0.1405
 9177TIP3    H249023   1.164   4.325  10.750  0.0232  0.6366 -0.3883
 9178TIP3   OH249024   1.134   0.565  11.846 -0.4025 -0.7642 -0.2825
 9178TIP3    H149025   1.058   0.539  11.898 -0.4467 -1.7053 -0.7949
 9178TIP3    H249026   1.143   0.495  11.781  0.0045  0.0899 -1.1666
 9179TIP3   OH249027   4.721   0.258   6.223  0.5105  0.4535  0.6593
 9179TIP3    H149028   4.689   0.296   6.305 -0.5817 -1.7673  1.3355
 9179TIP3    H249029   4.750   0.170   6.247 -1.0471 -0.7591 -1.4998
 9180TIP3   OH249030   0.499   4.318  14.887 -0.4464 -0.3457 -0.2810
 9180TIP3    H149031   0.496   4.354  14.799 -0.0100 -0.5272 -0.3716
 9180TIP3    H249032   0.592   4.314  14.908 -0.5706  1.3738  0.8719
 9181TIP3   OH249033   5.996   1.730  13.628 -0.6174 -0.0423 -0.1919
 9181TIP3    H149034   5.910   1.716  13.589 -0.4323  2.4985 -1.7344
 9181TIP3    H249035   5.982   1.718  13.722 -2.1833 -1.5482 -0.5687
 9182TIP3   OH249036   3.026   4.614   6.344  0.0395  0.0984  0.0052
 9182TIP3    H149037   2.972   4.563   6.284  1.1437  0.1684 -1.0917
 9182TIP3    H249038   2.972   4.690   6.366  0.4235  1.2817 -2.7775
 9183TIP3   OH249039   0.183   0.503  15.019 -0.4262  0.0595  0.1234
 9183TIP3    H149040   0.093   0.535  15.014  0.4064  2.4555 -0.8475
 9183TIP3    H249041   0.232   0.574  15.060  1.2947 -0.5723 -0.7184
 9184TIP3   OH249042   0.352   1.158  13.982  0.1616  0.0460  0.0391
 9184TIP3    H149043   0.387   1.091  13.924 -0.8984 -1.6882  1.2927
 9184TIP3    H249044   0.288   1.205  13.929  0.1077 -0.6877 -0.5555
 9185TIP3   OH249045   4.223   1.541   3.991  0.5630  0.4764 -0.2809
 9185TIP3    H149046   4.201   1.461   4.038 -1.9826  0.1911 -1.7577
 9185TIP3    H249047   4.205   1.521   3.899 -1.4066  3.0328 -0.5760
 9186TIP3   OH249048   6.384   3.874  11.930 -0.3935 -0.3726 -0.0903
 9186TIP3    H149049   6.340   3.881  11.845  0.4225  1.2632 -0.4270
 9186TIP3    H249050   6.337   3.937  11.986  0.4016  0.1204  0.0355
 9187TIP3   OH249051   5.735   2.693  14.831  0.2968  0.3379 -0.0009
 9187TIP3    H149052   5.699   2.730  14.912  0.2094 -0.9158  0.5640
 9187TIP3    H249053   5.830   2.689  14.847  0.2055 -0.6241  0.3687
 9188TIP3   OH249054   6.504   3.284   1.839  0.4379 -0.0610 -0.0273
 9188TIP3    H149055   6.410   3.299   1.854  0.8798  2.2102  0.8356
 9188TIP3    H249056   6.515   3.190   1.852 -1.6659 -0.3461  0.1382
 9189TIP3   OH249057   2.095   0.003  12.512 -0.4788  0.1979  0.1525
 9189TIP3    H149058   2.113  -0.091  12.517 -1.7302 -0.0107  1.0245
 9189TIP3    H249059   2.165   0.037  12.456  0.8413 -1.0202  0.9705
 9190TIP3   OH249060   1.787   4.960  16.559 -0.3605 -0.0163 -0.2271
 9190TIP3    H149061   1.854   5.027  16.576 -1.3537  0.4978  2.0615
 9190TIP3    H249062   1.712   5.010  16.526 -0.1892 -0.3860 -1.2062
 9191TIP3   OH249063   3.944   1.447  17.243  0.3498 -0.1572  0.3585
 9191TIP3    H149064   3.890   1.493  17.306  1.3245 -0.9254  1.8185
 9191TIP3    H249065   4.032   1.447  17.281  1.0026 -0.5683 -1.0452
 9192TIP3   OH249066   3.304   3.061   1.279  0.0391  0.3623  0.1937
 9192TIP3    H149067   3.285   2.968   1.295  1.8527 -0.1808 -0.5160
 9192TIP3    H249068   3.378   3.081   1.337 -0.8862  1.6303  0.9771
 9193TIP3   OH249069   5.186   1.938   0.607 -0.0351 -0.1812  0.4433
 9193TIP3    H149070   5.194   2.024   0.566 -0.1490 -1.2841 -2.0704
 9193TIP3    H249071   5.272   1.922   0.645  0.9288 -0.0621 -1.5295
 9194TIP3   OH249072   6.169   3.526  12.521 -0.3407 -0.2255  0.2246
 9194TIP3    H149073   6.259   3.515  12.491 -0.8522 -0.6270 -1.2601
 9194TIP3    H249074   6.117   3.525  12.441 -1.5980  0.8339  0.9933
 9195TIP3   OH249075   2.772   2.143  13.157 -0.3426  0.3415  0.6924
 9195TIP3    H149076   2.694   2.191  13.182 -0.1578  0.2959  1.3691
 9195TIP3    H249077   2.764   2.132  13.062 -1.2014  0.2485  0.7698
 9196TIP3   OH249078   4.637   5.772   0.914  0.1815 -0.4407  0.5859
 9196TIP3    H149079   4.596   5.812   0.838  1.0720  0.5782  0.6095
 9196TIP3    H249080   4.724   5.746   0.884  1.1913  1.5066  1.6292
 9197TIP3   OH249081   1.236   4.956  14.322 -0.2192 -0.6936 -0.3152
 9197TIP3    H149082   1.168   5.006  14.368 -0.6652 -1.0492 -0.5764
 9197TIP3    H249083   1.191   4.920  14.246  0.5175 -0.1069 -1.0436
 9198TIP3   OH249084   6.522   1.317  13.269  0.0434  0.2669 -0.1184
 9198TIP3    H149085   6.481   1.403  13.271  1.6651  1.0543  0.8715
 9198TIP3    H249086   6.615   1.334  13.258  0.2178 -1.4550 -1.8358
 9199TIP3   OH249087   1.276   5.172  13.639  0.6490  0.1059  0.1389
 9199TIP3    H149088   1.297   5.199  13.550 -0.2531 -0.3300 -0.2178
 9199TIP3    H249089   1.244   5.251  13.682  1.9075  0.5166  0.3506
 9200TIP3   OH249090   6.713   1.086   0.918  0.2926  0.0467  0.4914
 9200TIP3    H149091   6.778   1.037   0.869  0.8634  0.4474  0.8341
 9200TIP3    H249092   6.636   1.029   0.921  0.2883 -0.0274 -0.7481
 9201TIP3   OH249093   4.203   6.274  17.115 -0.2734 -0.3653  0.0066
 9201TIP3    H149094   4.127   6.252  17.169 -0.6456  2.2006  0.6754
 9201TIP3    H249095   4.212   6.369  17.124  0.0635  0.1511 -3.9076
 9202TIP3   OH249096   0.257   5.021   2.860  0.3647 -0.1527 -0.0409
 9202TIP3    H149097   0.319   5.056   2.796 -1.0237  0.9061 -0.8510
 9202TIP3    H249098   0.190   4.977   2.807 -1.2280  1.4119  0.5985
 9203TIP3   OH249099   2.832   6.520   2.191 -0.5434 -0.4839  0.3304
 9203TIP3    H149100   2.911   6.483   2.231  0.1120  1.1872  0.6983
 9203TIP3    H249101   2.861   6.549   2.105 -0.7136  0.2017  0.4940
 9204TIP3   OH249102   2.895   5.703   1.873  0.0885  0.2448  0.2827
 9204TIP3    H149103   2.938   5.764   1.933 -0.9675  0.2015  1.1224
 9204TIP3    H249104   2.801   5.717   1.889 -0.1860 -0.7038 -0.4221
 9205TIP3   OH249105   4.705   0.961   2.134  0.2217  0.0009  0.1327
 9205TIP3    H149106   4.692   1.035   2.193  0.4869 -0.6998  1.0954
 9205TIP3    H249107   4.617   0.938   2.103  0.2870  1.8213 -1.6097
 9206TIP3   OH249108   0.710   6.732  11.774 -0.1277  0.6418  0.4589
 9206TIP3    H149109   0.801   6.745  11.799  0.0448  0.8961 -0.2761
 9206TIP3    H249110   0.686   6.648  11.812  0.3588  0.6503  0.7971
 9207TIP3   OH249111   3.835   0.711   2.709 -0.1798  0.8372 -0.2430
 9207TIP3    H149112   3.851   0.760   2.628  0.5794 -1.3160 -1.4927
 9207TIP3    H249113   3.809   0.624   2.679  1.4721 -0.4675  1.7908
 9208TIP3   OH249114   2.159   1.199   1.777  0.6693  0.0320  0.2257
 9208TIP3    H149115   2.231   1.256   1.802  1.4755  0.5540 -2.8581
 9208TIP3    H249116   2.192   1.150   1.702 -1.2840 -1.7617  0.4357
 9209TIP3   OH249117   1.985   2.886  17.172  0.1231 -0.6640  0.0948
 9209TIP3    H149118   1.937   2.891  17.255  1.4774 -1.2110  0.9502
 9209TIP3    H249119   2.028   2.971  17.164 -0.0771 -0.5808 -0.0841
 9210TIP3   OH249120   0.517   2.260  15.158  0.4543 -0.2989 -0.2771
 9210TIP3    H149121   0.500   2.167  15.169  1.2519 -0.6773 -1.8515
 9210TIP3    H249122   0.432   2.298  15.136  0.0588 -0.5746  0.7475
 9211TIP3   OH249123   2.678   5.043   1.482 -0.4910  0.3519 -0.6134
 9211TIP3    H149124   2.599   4.992   1.462 -0.7625  0.5972 -0.1633
 9211TIP3    H249125   2.744   4.977   1.500 -1.2525  0.1213  1.6284
 9212TIP3   OH249126   4.022   4.014  13.998 -0.0104  0.5354 -0.3009
 9212TIP3    H149127   4.067   4.041  14.078  0.2751  0.1032 -0.3146
 9212TIP3    H249128   3.949   3.960  14.029 -0.8776  1.6985 -0.2431
 9213TIP3   OH249129   1.200   1.664  15.817 -0.0132  0.7393  0.1722
 9213TIP3    H149130   1.199   1.757  15.798 -0.0219  0.4848 -1.1205
 9213TIP3    H249131   1.269   1.628  15.760 -2.1800 -0.5301 -1.8185
 9214TIP3   OH249132   1.943   6.488  13.374  0.4791 -0.5903 -0.0337
 9214TIP3    H149133   2.001   6.483  13.450  1.1547  1.4901 -0.3479
 9214TIP3    H249134   1.855   6.493  13.412  0.6795 -1.2546  0.5421
 9215TIP3   OH249135   4.025   2.810  14.541 -0.1911 -0.1332 -0.0444
 9215TIP3    H149136   4.100   2.839  14.593  0.2566 -1.1185 -0.1036
 9215TIP3    H249137   4.039   2.849  14.455  0.3059 -0.3792 -0.0799
 9216TIP3   OH249138   1.342   2.230   0.849  0.5469 -0.5176 -0.1517
 9216TIP3    H149139   1.386   2.186   0.777  1.7793  0.3332  0.0579
 9216TIP3    H249140   1.397   2.213   0.925  0.7255  0.8386  0.0540
 9217TIP3   OH249141   4.623   0.139   1.613 -0.5704  0.0705 -0.2691
 9217TIP3    H149142   4.666   0.222   1.631  0.6948 -0.3754 -1.0780
 9217TIP3    H249143   4.689   0.073   1.633 -1.9167 -0.8347  1.4550
 9218TIP3   OH249144   1.447   5.579   3.905  0.2913 -0.0033 -0.0485
 9218TIP3    H149145   1.439   5.508   3.842  0.4057  0.3075 -0.4198
 9218TIP3    H249146   1.515   5.550   3.966 -1.0715 -1.0954  1.0179
 9219TIP3   OH249147   0.672   5.018   6.223 -0.1295  0.2834  0.3827
 9219TIP3    H149148   0.753   5.060   6.194 -0.1748  0.3189  0.3085
 9219TIP3    H249149   0.701   4.938   6.268 -0.0498  0.3300  0.4146
 9220TIP3   OH249150   6.475   1.567  11.175 -0.5237 -0.2287 -0.7595
 9220TIP3    H149151   6.393   1.523  11.149 -2.3649  1.7813  1.1850
 9220TIP3    H249152   6.478   1.557  11.270  0.5859  1.2451 -0.6147
 9221TIP3   OH249153   3.129   0.236  11.921  0.2479  0.3722 -0.4901
 9221TIP3    H149154   3.055   0.291  11.896 -0.4095 -0.1429  0.2523
 9221TIP3    H249155   3.184   0.233  11.843 -0.9157  0.1134 -1.3432
 9222TIP3   OH249156   1.622   5.037   3.753 -0.4068  0.7251  0.2315
 9222TIP3    H149157   1.535   5.037   3.792 -1.3777 -1.4112 -1.7000
 9222TIP3    H249158   1.615   5.097   3.679 -0.4732  0.0271 -0.3395
 9223TIP3   OH249159   5.126   5.785  14.848 -0.3201  0.1088 -0.6352
 9223TIP3    H149160   5.186   5.832  14.906  1.1179  0.3735 -2.2491
 9223TIP3    H249161   5.181   5.719  14.805 -1.8266 -1.5811 -0.0822
 9224TIP3   OH249162   3.043   2.294   0.906  0.1301  0.7564 -0.0288
 9224TIP3    H149163   3.111   2.226   0.906 -1.6361 -1.1138  0.9996
 9224TIP3    H249164   2.978   2.262   0.843  0.1304  2.4991 -0.9676
 9225TIP3   OH249165   2.606   0.443  14.811 -0.8223 -0.6732  0.4464
 9225TIP3    H149166   2.640   0.374  14.867 -3.2596 -0.2111  2.7013
 9225TIP3    H249167   2.564   0.395  14.739 -1.8131 -1.5832  1.5705
 9226TIP3   OH249168   3.934   1.056  10.996  0.2818  0.3184  0.2683
 9226TIP3    H149169   3.893   1.047  10.910  1.7146 -0.3098 -0.3810
 9226TIP3    H249170   4.025   1.029  10.982  0.2278 -1.0775  2.2470
 9227TIP3   OH249171   3.939   0.248   1.484  0.6488  0.4954  0.7751
 9227TIP3    H149172   3.854   0.283   1.513 -0.0771 -0.9944  0.5594
 9227TIP3    H249173   3.963   0.184   1.551 -0.2793 -1.8302 -0.9502
 9228TIP3   OH249174   3.096   2.339  11.229  0.1187 -0.1602  0.1784
 9228TIP3    H149175   3.099   2.363  11.322 -0.4088  1.4778 -0.1840
 9228TIP3    H249176   3.002   2.330  11.210  0.1410  0.7896 -0.4642
 9229TIP3   OH249177   5.078   2.014  16.674 -0.1640 -0.6513 -0.1872
 9229TIP3    H149178   5.097   1.972  16.757 -1.4532  1.2491  1.1416
 9229TIP3    H249179   5.146   1.981  16.614  2.5691  0.0412  2.2964
 9230TIP3   OH249180   5.489   2.813   1.713 -0.3416 -0.6252  0.7261
 9230TIP3    H149181   5.476   2.772   1.627  0.1370 -1.9865  1.2883
 9230TIP3    H249182   5.561   2.764   1.752 -0.3672  0.1732  1.7971
 9231TIP3   OH249183   0.090   1.552   5.019 -0.4302 -0.1259  0.1177
 9231TIP3    H149184   0.051   1.640   5.024  1.8148  1.0100 -0.9633
 9231TIP3    H249185   0.145   1.546   5.096  0.3392 -0.0888 -0.4180
 9232TIP3   OH249186   6.241   5.400  13.360 -0.2038  0.1483 -0.1166
 9232TIP3    H149187   6.313   5.461  13.378  1.3949 -1.2470 -1.3454
 9232TIP3    H249188   6.284   5.326  13.317 -2.3562 -0.9336 -0.5194
 9233TIP3   OH249189   2.240   4.153   0.189 -0.1188 -0.1302 -0.1415
 9233TIP3    H149190   2.162   4.099   0.189  0.9246 -1.6993 -0.7947
 9233TIP3    H249191   2.312   4.092   0.205  0.9494  1.3237  0.8095
 9234TIP3   OH249192   1.470   4.662  14.171  0.3215 -0.2700 -0.4934
 9234TIP3    H149193   1.528   4.637  14.243 -2.6318  1.1271  2.6787
 9234TIP3    H249194   1.444   4.579  14.131  0.2330 -1.3268  1.6504
 9235TIP3   OH249195   0.329   4.483  12.307  0.1279 -0.2947  0.3377
 9235TIP3    H149196   0.257   4.534  12.270 -0.5327  0.4553  2.5411
 9235TIP3    H249197   0.295   4.393  12.311  0.3977 -0.5060 -1.2364
 9236TIP3   OH249198   1.691   0.501  11.580 -0.0886 -0.6825 -0.5186
 9236TIP3    H149199   1.657   0.588  11.559 -0.9633 -1.5072 -2.8229
 9236TIP3    H249200   1.768   0.491  11.524  1.0747 -0.7584  1.0282
 9237TIP3   OH249201   3.098   3.290  12.142 -0.2633  0.4930  0.1446
 9237TIP3    H149202   3.024   3.349  12.150 -0.2905  0.4310  0.3459
 9237TIP3    H249203   3.073   3.230  12.072 -0.8757 -0.2156  0.9400
 9238TIP3   OH249204   3.563   3.296  12.555  0.4871  0.2858 -0.2928
 9238TIP3    H149205   3.657   3.309  12.546  0.5716  1.1199  1.4141
 9238TIP3    H249206   3.553   3.255  12.641 -0.5923 -1.7132 -1.2764
 9239TIP3   OH249207   6.327   0.103  16.595 -0.1788  0.3329  0.7238
 9239TIP3    H149208   6.349   0.019  16.635  1.4514 -0.3178 -1.3184
 9239TIP3    H249209   6.410   0.135  16.559 -1.2469  1.4565 -0.9085
 9240TIP3   OH249210   6.545   3.355  15.946 -0.7277  0.0351 -0.6100
 9240TIP3    H149211   6.638   3.336  15.951 -0.6557 -0.3553 -2.5132
 9240TIP3    H249212   6.506   3.274  15.914 -1.7203  0.2084  0.1239
 9241TIP3   OH249213   1.230   3.322   5.487  0.0919  0.1970  0.5328
 9241TIP3    H149214   1.215   3.313   5.393  0.3442  1.3785  0.3610
 9241TIP3    H249215   1.288   3.397   5.495  0.7834 -0.4281  1.5904
 9242TIP3   OH249216   2.292   5.198   5.598  0.1211  0.1222  0.2853
 9242TIP3    H149217   2.228   5.139   5.636 -0.1205  0.3586  0.2466
 9242TIP3    H249218   2.242   5.252   5.537  0.5994 -0.5973 -0.7550
 9243TIP3   OH249219   5.347   1.455  12.095  0.3217 -0.1255  0.0598
 9243TIP3    H149220   5.377   1.533  12.141 -0.7409 -0.6268  1.6766
 9243TIP3    H249221   5.304   1.489  12.016  2.0035  0.7535 -0.5274
 9244TIP3   OH249222   0.690   3.487   4.601 -0.1650 -0.3187  0.0385
 9244TIP3    H149223   0.715   3.536   4.679  0.9987  0.2553 -0.6665
 9244TIP3    H249224   0.762   3.501   4.539 -1.8658  0.7928 -1.8290
 9245TIP3   OH249225   3.737   1.119  11.538 -0.0468 -0.4724 -0.1252
 9245TIP3    H149226   3.729   1.178  11.463  0.8816 -0.1592  0.0170
 9245TIP3    H249227   3.668   1.054  11.525 -1.2207  0.7432 -0.1880
 9246TIP3   OH249228   0.382   6.688   0.578  0.3699 -0.0657 -0.2062
 9246TIP3    H149229   0.394   6.594   0.565 -0.3245 -0.7255  2.9232
 9246TIP3    H249230   0.470   6.724   0.575  0.6106 -0.7275 -1.8306
 9247TIP3   OH249231   6.301   3.185  10.564  0.0048  0.3857  0.3676
 9247TIP3    H149232   6.251   3.228  10.633  1.2585  1.2948  0.7473
 9247TIP3    H249233   6.378   3.241  10.552  0.1359 -0.1080 -1.3166
 9248TIP3   OH249234   3.470   6.676   5.449  0.4401 -0.0120  0.2022
 9248TIP3    H149235   3.391   6.729   5.459  0.2188 -0.1053 -0.9794
 9248TIP3    H249236   3.451   6.596   5.498 -0.3815 -0.2150 -0.4268
 9249TIP3   OH249237   2.213   6.755  14.769  0.2355 -0.1428  0.2983
 9249TIP3    H149238   2.122   6.744  14.797  0.3057 -2.0155 -0.0895
 9249TIP3    H249239   2.233   6.846  14.791 -2.0230  0.6298 -0.5310
 9250TIP3   OH249240   6.446   1.590   3.361  0.5048 -0.7543  0.1301
 9250TIP3    H149241   6.536   1.621   3.355  0.0811  0.4630 -0.5024
 9250TIP3    H249242   6.443   1.537   3.441  1.7704 -0.8250  0.1481
 9251TIP3   OH249243   3.954   2.260   1.394 -0.5568 -0.2833  0.3822
 9251TIP3    H149244   3.901   2.300   1.325  0.0374  1.8942  1.0926
 9251TIP3    H249245   3.896   2.259   1.471 -1.3455 -3.0394 -0.1196
 9252TIP3   OH249246   5.223   4.133   6.460 -0.6468  0.4355 -0.6007
 9252TIP3    H149247   5.215   4.058   6.401 -0.0145 -0.6695  0.6604
 9252TIP3    H249248   5.279   4.101   6.531 -2.9610  1.0540  1.6203
 9253TIP3   OH249249   5.356   1.721  11.428 -0.2467 -0.1219  0.0069
 9253TIP3    H149250   5.317   1.705  11.342  1.3154 -1.1995 -0.5455
 9253TIP3    H249251   5.318   1.805  11.456 -0.5223  0.4391 -1.8877
 9254TIP3   OH249252   1.640   1.251   0.803 -0.5705  1.0514  0.1776
 9254TIP3    H149253   1.555   1.283   0.833  0.2183  0.5163  3.4047
 9254TIP3    H249254   1.703   1.309   0.845  0.6864 -0.3525  0.3110
 9255TIP3   OH249255   5.404   1.186   3.132  0.0920 -0.0482  0.7426
 9255TIP3    H149256   5.354   1.242   3.072 -0.8166 -0.9000  0.6858
 9255TIP3    H249257   5.472   1.147   3.077  0.9128  1.1778  0.8367
 9256TIP3   OH249258   1.267   2.492   3.330 -0.1662  0.0061 -0.2666
 9256TIP3    H149259   1.305   2.433   3.395  1.2040 -0.0413 -1.0562
 9256TIP3    H249260   1.236   2.434   3.260 -0.0696  0.1412 -0.4231
 9257TIP3   OH249261   3.836   5.989   3.248 -0.0824  0.1320 -0.5140
 9257TIP3    H149262   3.806   5.957   3.163  3.5683 -2.0237 -1.1894
 9257TIP3    H249263   3.811   5.920   3.310  0.5308 -0.0974 -0.5157
 9258TIP3   OH249264   0.655   6.434  10.607 -0.0078 -0.5287 -0.1464
 9258TIP3    H149265   0.673   6.428  10.701 -1.1476  0.2117  0.1407
 9258TIP3    H249266   0.562   6.457  10.602 -0.3542 -2.0776 -1.4947
 9259TIP3   OH249267   1.477   1.281   1.056 -0.5843  0.5311 -0.0566
 9259TIP3    H149268   1.514   1.351   1.110  0.6856  0.4027 -0.7062
 9259TIP3    H249269   1.418   1.326   0.995 -1.9824  0.6790  1.3605
 9260TIP3   OH249270   0.269   4.919  16.633  0.5610  0.1497 -0.3032
 9260TIP3    H149271   0.343   4.913  16.692  1.0237  0.7951 -0.7978
 9260TIP3    H249272   0.209   4.980  16.676 -0.0168 -0.8983  0.4230
 9261TIP3   OH249273   5.277   3.121  15.387  0.8204  0.6653 -0.0409
 9261TIP3    H149274   5.201   3.071  15.358  0.0251  1.5703  0.4716
 9261TIP3    H249275   5.323   3.143  15.305  0.6693 -0.0643 -0.3336
 9262TIP3   OH249276   4.684   5.651   0.614  0.4901  0.3774 -0.0935
 9262TIP3    H149277   4.759   5.618   0.565  2.2196  2.7726  0.7943
 9262TIP3    H249278   4.631   5.698   0.550  0.5995  0.0909 -0.3980
 9263TIP3   OH249279   6.578   1.762  17.201 -0.0416 -0.0160  0.1651
 9263TIP3    H149280   6.643   1.700  17.233 -0.1023 -0.1517  0.0263
 9263TIP3    H249281   6.599   1.844  17.246 -0.3906 -0.3062  0.8755
 9264TIP3   OH249282   0.208   5.932   5.102  0.1848 -0.6692  0.0936
 9264TIP3    H149283   0.293   5.894   5.078  1.2147  1.8241 -0.5215
 9264TIP3    H249284   0.205   5.924   5.198  0.3737 -2.1633 -0.0027
 9265TIP3   OH249285   6.303   1.846  14.439  0.1191 -0.2515  0.0766
 9265TIP3    H149286   6.338   1.931  14.410  0.4638 -0.4771 -0.1702
 9265TIP3    H249287   6.208   1.859  14.440  0.2255  0.5916  1.4479
 9266TIP3   OH249288   6.351   5.809   0.120 -0.3199 -0.3791  0.1623
 9266TIP3    H149289   6.365   5.880   0.058 -1.4571 -1.1277 -1.0172
 9266TIP3    H249290   6.344   5.852   0.205 -1.4937  0.9999 -0.5885
 9267TIP3   OH249291   3.886   3.815  13.109  0.6017 -0.0328 -0.5501
 9267TIP3    H149292   3.905   3.721  13.100 -1.2737 -0.4216 -0.9025
 9267TIP3    H249293   3.963   3.858  13.073  1.1868 -1.4532 -1.0841
 9268TIP3   OH249294   2.396   2.565   3.275 -0.4313 -0.3110 -0.3934
 9268TIP3    H149295   2.354   2.629   3.218  0.9958  1.1481  0.1052
 9268TIP3    H249296   2.351   2.576   3.359 -0.9606 -0.8102 -0.6017
 9269TIP3   OH249297   1.037   0.356   0.435 -0.1759 -0.1707 -0.0707
 9269TIP3    H149298   1.123   0.317   0.453 -0.6707 -1.9830 -1.3474
 9269TIP3    H249299   0.975   0.297   0.479 -0.8677  0.1015 -0.6581
 9270TIP3   OH249300   2.064   4.538  11.931  0.5479  0.1549 -0.0905
 9270TIP3    H149301   2.104   4.621  11.959 -0.8807  0.7137  0.3556
 9270TIP3    H249302   2.018   4.561  11.850 -0.2635 -0.0846  0.3009
 9271TIP3   OH249303   6.620   2.990   3.624  0.4806 -0.4693 -0.1094
 9271TIP3    H149304   6.619   2.924   3.693  0.0106 -0.0399  0.3019
 9271TIP3    H249305   6.647   3.071   3.668 -1.1095  0.1113 -0.1180
 9272TIP3   OH249306   1.458   5.162   2.764  0.0408  0.5365  0.0481
 9272TIP3    H149307   1.406   5.229   2.807 -0.4133  0.0119  0.3310
 9272TIP3    H249308   1.412   5.144   2.683 -0.2099  0.0888  0.2872
 9273TIP3   OH249309   4.043   3.456  16.226 -0.0173 -0.5096 -0.0134
 9273TIP3    H149310   3.992   3.378  16.246 -2.0859  0.7407 -0.1375
 9273TIP3    H249311   4.072   3.489  16.311  0.3314 -1.0579  0.0844
 9274TIP3   OH249312   1.564   4.371  16.435  0.2570 -0.3028 -0.2540
 9274TIP3    H149313   1.493   4.427  16.466  0.5626 -0.8237  1.5131
 9274TIP3    H249314   1.532   4.282  16.448  1.3579 -0.5505  0.9733
 9275TIP3   OH249315   4.465   5.188   4.897 -0.1285  0.2780 -0.2399
 9275TIP3    H149316   4.552   5.149   4.886 -0.6520 -0.5153 -1.8213
 9275TIP3    H249317   4.406   5.127   4.854 -1.4506  0.9812  0.5132
 9276TIP3   OH249318   0.038   0.473   0.320 -0.1812  0.1761 -0.3853
 9276TIP3    H149319   0.043   0.557   0.366 -0.9242  0.2110 -0.3539
 9276TIP3    H249320  -0.052   0.444   0.333  0.1735 -0.8425 -0.0325
 9277TIP3   OH249321   5.820   2.824  13.462 -0.3588  0.3289 -0.0681
 9277TIP3    H149322   5.787   2.756  13.404  2.4463 -2.1632  0.9935
 9277TIP3    H249323   5.859   2.888  13.403 -1.6386  0.2584 -1.0440
 9278TIP3   OH249324   6.464   5.054  16.943  0.2473 -0.1653 -0.1032
 9278TIP3    H149325   6.393   5.079  17.003  0.3976  0.0290 -0.0063
 9278TIP3    H249326   6.488   4.966  16.971  0.2324 -0.1232  0.0428
 9279TIP3   OH249327   6.276   3.591   5.481 -0.3506  0.3345  0.2681
 9279TIP3    H149328   6.301   3.598   5.573  0.3557  1.2038  0.0257
 9279TIP3    H249329   6.307   3.505   5.454 -0.4037  0.1470  0.7844
 9280TIP3   OH249330   4.978   3.888   5.473  0.2558  0.4197  0.3119
 9280TIP3    H149331   4.905   3.828   5.457  1.2030 -1.5513  2.7938
 9280TIP3    H249332   4.964   3.920   5.562  2.3854 -0.0771  0.8853
 9281TIP3   OH249333   0.882   3.143  10.571  0.2277 -0.0626 -0.5584
 9281TIP3    H149334   0.926   3.206  10.628 -0.9466  0.9399 -0.7005
 9281TIP3    H249335   0.950   3.111  10.513  0.8515  1.1494 -0.5273
 9282TIP3   OH249336   1.860   4.044   2.464  0.3286  0.3601 -0.1817
 9282TIP3    H149337   1.927   4.109   2.484  1.2576 -0.2119 -1.3361
 9282TIP3    H249338   1.855   4.042   2.368  0.7610 -1.6856 -0.2117
 9283TIP3   OH249339   0.971   0.030   5.482 -0.4962  0.2176 -0.1075
 9283TIP3    H149340   1.045   0.060   5.428  0.0479 -0.3806  0.2845
 9283TIP3    H249341   0.910  -0.010   5.419 -0.0069 -0.2008 -0.3251
 9284TIP3   OH249342   6.628   2.200  15.215  0.5519  0.7136  0.0013
 9284TIP3    H149343   6.586   2.124  15.256  0.1253  0.4935 -0.8070
 9284TIP3    H249344   6.718   2.198  15.247  1.1081 -1.2660 -1.4119
 9285TIP3   OH249345   5.195   6.755   1.245  0.9701  0.1708 -0.0690
 9285TIP3    H149346   5.177   6.784   1.156 -1.3728 -1.5531 -0.2551
 9285TIP3    H249347   5.145   6.814   1.300  0.0624 -0.5131 -0.1326
 9286TIP3   OH249348   2.423   2.884  17.075  0.3296  0.4955  0.3587
 9286TIP3    H149349   2.472   2.865  17.155  0.1181 -0.4936  0.2655
 9286TIP3    H249350   2.484   2.864  17.004 -0.8688 -3.2925  0.1319
 9287TIP3   OH249351   2.750   1.732   3.764  0.3596  0.7730 -0.0134
 9287TIP3    H149352   2.830   1.779   3.789  1.2693 -0.6502 -0.0923
 9287TIP3    H249353   2.771   1.693   3.679  0.4512 -1.4727  0.9731
 9288TIP3   OH249354   2.412   5.034  12.721 -0.0226 -0.0248  0.2512
 9288TIP3    H149355   2.353   5.109  12.722  0.0034 -0.0019  0.0493
 9288TIP3    H249356   2.418   5.009  12.629  0.0482 -0.2120  0.3059
 9289TIP3   OH249357   6.790   5.291  16.454 -0.8828 -0.1752 -0.8126
 9289TIP3    H149358   6.724   5.224  16.473 -0.1694 -0.3988  1.0622
 9289TIP3    H249359   6.789   5.348  16.531  1.3652 -0.3935 -0.5591
 9290TIP3   OH249360   3.473   5.733   4.606  0.4007 -0.0192 -0.5474
 9290TIP3    H149361   3.509   5.644   4.611 -0.4450 -0.4145 -1.1078
 9290TIP3    H249362   3.386   5.720   4.568  0.4405  1.1020 -1.0342
 9291TIP3   OH249363   5.883   0.901  11.507  0.2510  0.0970 -0.5772
 9291TIP3    H149364   5.806   0.862  11.465  0.5201 -0.1867 -0.8150
 9291TIP3    H249365   5.912   0.835  11.571 -0.1233  0.5047  0.0182
 9292TIP3   OH249366   5.783   0.626  14.192 -0.2555  0.3158 -0.1855
 9292TIP3    H149367   5.714   0.606  14.129 -0.7401  0.6387  0.2360
 9292TIP3    H249368   5.859   0.577  14.161 -0.4707  0.5104 -1.0489
 9293TIP3   OH249369   0.708   6.477  15.874  0.7735 -0.2137  0.2134
 9293TIP3    H149370   0.644   6.407  15.890  0.5342 -0.0076  0.1808
 9293TIP3    H249371   0.793   6.435  15.882  0.6510 -0.3199  1.1088
 9294TIP3   OH249372   4.891   3.880  13.286 -0.3683 -0.6493  0.4944
 9294TIP3    H149373   4.801   3.899  13.311  0.3207  1.1106  1.8145
 9294TIP3    H249374   4.939   3.960  13.306  1.1502 -0.7940 -2.1286
 9295TIP3   OH249375   4.817   3.942  13.896 -0.3020  0.1214  0.4015
 9295TIP3    H149376   4.753   3.993  13.947  1.9954  1.0399  2.5743
 9295TIP3    H249377   4.767   3.867  13.865 -3.1090  2.1550 -0.4491
 9296TIP3   OH249378   4.378   2.930  11.659 -0.7416 -0.5106  0.1166
 9296TIP3    H149379   4.362   2.989  11.733  0.8119 -1.1425  1.0005
 9296TIP3    H249380   4.375   2.842  11.696 -0.3752 -0.8586 -0.6443
 9297TIP3   OH249381   3.401   6.601   4.082  0.2586  0.3140  0.4860
 9297TIP3    H149382   3.398   6.660   4.157  2.2502  0.8980  0.1641
 9297TIP3    H249383   3.310   6.594   4.053 -0.2823  1.6405  1.7433
 9298TIP3   OH249384   5.302   0.215   0.059  0.2926  0.4871 -0.2688
 9298TIP3    H149385   5.385   0.186   0.096 -0.6122 -1.0830  0.6366
 9298TIP3    H249386   5.324   0.241  -0.031  1.9130  1.0870  0.2614
 9299TIP3   OH249387   1.113   1.796  13.029 -0.2750 -0.2784  0.2502
 9299TIP3    H149388   1.048   1.733  13.060 -0.0349  0.8958  3.4897
 9299TIP3    H249389   1.102   1.873  13.086  2.6690  0.7126 -0.3290
 9300TIP3   OH249390   2.903   2.610  16.120  0.6216 -0.2393 -0.2821
 9300TIP3    H149391   2.992   2.588  16.150  0.9015 -3.3436 -2.8781
 9300TIP3    H249392   2.916   2.647  16.033 -0.5971 -1.0836 -0.8524
 9301TIP3   OH249393   0.320   4.722   1.828 -0.0005  0.2407  0.1519
 9301TIP3    H149394   0.247   4.764   1.783  0.6033  0.6331 -0.4849
 9301TIP3    H249395   0.332   4.639   1.783  0.3711  0.4705 -0.1706
 9302TIP3   OH249396   4.548   1.383   2.040  0.2907  0.0122  0.2570
 9302TIP3    H149397   4.463   1.392   2.084  0.2464  2.1889 -0.1752
 9302TIP3    H249398   4.531   1.408   1.950  1.4774  0.9708  0.2802
 9303TIP3   OH249399   1.710   2.439   5.541 -0.0840 -0.3332 -0.1448
 9303TIP3    H149400   1.735   2.357   5.584  0.9820 -0.5271 -1.0805
 9303TIP3    H249401   1.783   2.459   5.483  0.0715  1.7383  0.6588
 9304TIP3   OH249402   5.070   2.958  16.906  0.1797 -1.0693  0.5173
 9304TIP3    H149403   5.075   2.928  16.996 -2.4933 -0.2597  1.0326
 9304TIP3    H249404   5.002   2.904  16.866  0.2514 -0.4012 -0.5603
 9305TIP3   OH249405   0.846   6.166  15.721 -0.0616 -0.1082  0.0788
 9305TIP3    H149406   0.873   6.100  15.657  0.8146  0.3060  0.0115
 9305TIP3    H249407   0.769   6.208  15.681  0.0605 -0.3216 -0.3895
 9306TIP3   OH249408   6.717   0.162  14.177 -0.6015 -0.3144 -0.6221
 9306TIP3    H149409   6.650   0.203  14.232  0.1913  0.6351 -0.3346
 9306TIP3    H249410   6.757   0.235  14.130  0.8048 -0.7501 -0.1387
 9307TIP3   OH249411   6.413   3.694   6.225 -0.4312 -0.0253  0.4105
 9307TIP3    H149412   6.362   3.709   6.305  0.8783 -1.6067  1.6028
 9307TIP3    H249413   6.504   3.701   6.252  0.0474 -0.4612 -0.9741
 9308TIP3   OH249414   6.631   3.826  12.961  0.6525  0.2854 -0.0207
 9308TIP3    H149415   6.586   3.764  12.904  0.0142  0.0230  0.7441
 9308TIP3    H249416   6.561   3.869  13.010  1.2097 -2.0151  3.1328
 9309TIP3   OH249417   1.593   4.148   0.128  0.1453  0.1971 -0.1398
 9309TIP3    H149418   1.650   4.144   0.205  0.0287  0.6843 -0.0268
 9309TIP3    H249419   1.632   4.085   0.066  0.8085  0.5249 -0.0654
 9310TIP3   OH249420   5.565   4.967  11.497  0.2627  0.3309 -0.0170
 9310TIP3    H149421   5.558   5.059  11.472  0.2299  0.6585  1.1067
 9310TIP3    H249422   5.612   4.969  11.581 -0.3236 -0.6166  0.3504
 9311TIP3   OH249423   3.595   2.304  12.263 -0.2975  0.0241 -0.1936
 9311TIP3    H149424   3.604   2.399  12.256  1.9406 -0.1845 -0.9230
 9311TIP3    H249425   3.646   2.281  12.341  2.2919 -0.8387 -1.9749
 9312TIP3   OH249426   1.642   4.211  10.468 -0.1664 -0.2892  0.3942
 9312TIP3    H149427   1.610   4.297  10.440  1.8503 -0.4312 -2.8831
 9312TIP3    H249428   1.698   4.230  10.543  2.0956  1.7541 -1.6155
 9313TIP3   OH249429   3.679   3.501   0.640  0.1923  0.3232 -0.2879
 9313TIP3    H149430   3.591   3.534   0.657  0.4630  0.6701  0.4662
 9313TIP3    H249431   3.704   3.541   0.557 -1.1834 -1.4582 -1.6283
 9314TIP3   OH249432   0.588   5.704  15.064  0.0149  1.1081 -0.0670
 9314TIP3    H149433   0.506   5.739  15.098 -0.3878  0.4710 -0.3676
 9314TIP3    H249434   0.648   5.705  15.139 -0.7013  0.2253  0.5358
 9315TIP3   OH249435   3.883   6.128   5.394 -0.5321 -0.4636 -0.4499
 9315TIP3    H149436   3.872   6.088   5.480  1.5052  0.1624  0.1628
 9315TIP3    H249437   3.885   6.222   5.412  1.2480 -0.3683 -0.9566
 9316TIP3   OH249438   4.408   4.850   4.134 -0.5233  0.2747  0.2259
 9316TIP3    H149439   4.348   4.790   4.089  0.5653 -0.4428 -0.3184
 9316TIP3    H249440   4.473   4.874   4.068  0.8359 -0.4148  1.2370
 9317TIP3   OH249441   4.022   6.415  12.016  0.1197  0.3881  0.9858
 9317TIP3    H149442   4.112   6.388  11.996 -0.5373 -2.2235  1.1762
 9317TIP3    H249443   4.010   6.391  12.108 -1.0323 -0.1905  0.7074
 9318TIP3   OH249444   1.200   0.005   1.046 -0.0048  0.0076 -0.0438
 9318TIP3    H149445   1.209   0.065   0.972  1.4429 -0.1508 -0.0087
 9318TIP3    H249446   1.263   0.035   1.111 -0.5465 -0.4658  0.7350
 9319TIP3   OH249447   1.608   6.200   2.291  0.0580  0.4052 -0.1099
 9319TIP3    H149448   1.655   6.200   2.375 -1.0204  0.2618  0.5131
 9319TIP3    H249449   1.558   6.119   2.292  0.4948  0.1119 -1.1720
 9320TIP3   OH249450   3.554   5.432  11.342 -0.4092 -0.1060  0.4825
 9320TIP3    H149451   3.580   5.441  11.251 -0.8746 -0.5243  0.3066
 9320TIP3    H249452   3.564   5.338  11.361 -1.5715 -0.2382  0.4768
 9321TIP3   OH249453   5.127   5.430  17.132 -0.1161 -0.7164  0.0726
 9321TIP3    H149454   5.099   5.521  17.128  0.3642 -0.4428  2.0939
 9321TIP3    H249455   5.092   5.391  17.051  0.5895  1.4651 -1.3609
 9322TIP3   OH249456   3.579   0.861  14.342 -0.2562 -0.1028  0.4154
 9322TIP3    H149457   3.647   0.828  14.283  1.2988  1.2403  1.3623
 9322TIP3    H249458   3.539   0.782  14.378 -0.5553 -0.9488 -1.6081
 9323TIP3   OH249459   4.907   2.486  16.294 -0.5503 -0.2133 -0.1089
 9323TIP3    H149460   4.812   2.497  16.297 -0.6931 -1.5381  1.3041
 9323TIP3    H249461   4.925   2.417  16.357  1.3363 -0.1967 -0.5819
 9324TIP3   OH249462   6.260   0.917   4.686 -0.2268 -0.4845 -0.0714
 9324TIP3    H149463   6.183   0.892   4.737 -0.5875  0.4219 -0.1431
 9324TIP3    H249464   6.236   0.900   4.595  0.1791 -1.4979 -0.0002
 9325TIP3   OH249465   0.817   4.817   5.251  0.3676 -0.2264 -0.1828
 9325TIP3    H149466   0.903   4.813   5.292  0.6996 -1.5841 -0.9588
 9325TIP3    H249467   0.836   4.841   5.160 -0.1057 -0.2316 -0.2828
 9326TIP3   OH249468   6.103   6.590  11.423  0.4469 -0.6705 -0.0881
 9326TIP3    H149469   6.093   6.495  11.428 -0.4702 -0.5498  0.8636
 9326TIP3    H249470   6.142   6.607  11.338 -1.8727 -1.7075 -1.4288
 9327TIP3   OH249471   0.316   3.016  11.767  0.2004  0.4321 -0.3633
 9327TIP3    H149472   0.259   3.078  11.812 -0.2202 -0.0861 -0.1751
 9327TIP3    H249473   0.404   3.042  11.794 -0.0667 -0.2840  1.3257
 9328TIP3   OH249474   4.130   2.818  14.263  0.1730 -0.3340 -0.0672
 9328TIP3    H149475   4.168   2.746  14.314 -0.8153 -0.6335  0.2648
 9328TIP3    H249476   4.168   2.808  14.176  1.0397 -0.4728  0.3196
 9329TIP3   OH249477   2.238   0.941   3.948  0.3461  0.1125 -0.1159
 9329TIP3    H149478   2.326   0.904   3.957  0.8622  1.3995  0.3711
 9329TIP3    H249479   2.180   0.867   3.967  1.2907 -0.9323 -1.1143
 9330TIP3   OH249480   1.788   4.101   0.308  0.5001  0.1222 -0.2944
 9330TIP3    H149481   1.849   4.154   0.360  1.2233  0.4578 -1.4678
 9330TIP3    H249482   1.838   4.023   0.285  0.3513  0.2133 -0.9252
 9331TIP3   OH249483   0.785   0.465  16.936  0.3562  0.1909  0.0758
 9331TIP3    H149484   0.792   0.506  17.022  1.8259 -0.6814  0.4016
 9331TIP3    H249485   0.775   0.372  16.954 -0.0904  0.0735 -0.7033
 9332TIP3   OH249486   5.741   0.131   3.816  0.0263 -0.4582 -0.4073
 9332TIP3    H149487   5.649   0.155   3.823 -0.0170  0.4341 -2.8494
 9332TIP3    H249488   5.741   0.037   3.802 -0.5459 -0.4014 -0.7979
 9333TIP3   OH249489   2.628   3.020   1.467 -0.0970 -0.3513 -0.4731
 9333TIP3    H149490   2.709   2.997   1.421  1.1416  1.1500  0.8147
 9333TIP3    H249491   2.609   2.944   1.522  0.1211 -0.9331 -1.1836
 9334TIP3   OH249492   5.351   5.800   5.174  0.1361 -0.2401 -0.5205
 9334TIP3    H149493   5.278   5.763   5.125 -0.5202  0.4942 -0.1357
 9334TIP3    H249494   5.406   5.842   5.108 -0.4025  0.1908 -0.7049
 9335TIP3   OH249495   0.398   2.162  16.336 -0.1221 -0.3374 -0.2365
 9335TIP3    H149496   0.313   2.198  16.358 -0.4809 -1.1884 -0.1835
 9335TIP3    H249497   0.421   2.107  16.411 -0.0292 -0.9640 -0.7128
 9336TIP3   OH249498   6.556   3.538  14.975  0.2932 -0.5600 -0.6043
 9336TIP3    H149499   6.632   3.544  15.034  0.7110 -2.0987 -0.9509
 9336TIP3    H249500   6.484   3.510  15.032  0.4662 -1.0802 -0.6369
 9337TIP3   OH249501   2.166   1.339  15.641  0.3283 -0.2698 -0.3998
 9337TIP3    H149502   2.111   1.262  15.629 -0.2563  0.0300  0.2705
 9337TIP3    H249503   2.109   1.413  15.616  0.3112  0.0653  0.6012
 9338TIP3   OH249504   5.226   5.692   4.038  0.0971 -0.0383  0.4344
 9338TIP3    H149505   5.197   5.762   3.979 -1.3325 -0.5712  0.4762
 9338TIP3    H249506   5.302   5.654   3.993 -0.6773 -0.1286 -0.8635
 9339TIP3   OH249507   1.783   3.514   6.408 -1.0018  0.5094 -1.0501
 9339TIP3    H149508   1.870   3.516   6.368 -0.4576  0.8833  0.1110
 9339TIP3    H249509   1.744   3.598   6.385  0.1448  1.6457  0.9456
 9340TIP3   OH249510   4.169   4.001  12.989  0.4529  0.8456 -0.7027
 9340TIP3    H149511   4.122   4.070  13.036 -2.2547  0.2511 -2.2764
 9340TIP3    H249512   4.161   4.026  12.897  2.5490  0.2013 -1.1182
 9341TIP3   OH249513   3.752   6.584  17.085 -0.2671  0.1797  0.3157
 9341TIP3    H149514   3.830   6.532  17.104 -0.1714  0.3600  0.4251
 9341TIP3    H249515   3.726   6.557  16.997  1.1008  1.5580 -0.5626
 9342TIP3   OH249516   4.474   3.000  13.759  0.0571  0.6266 -0.9579
 9342TIP3    H149517   4.430   3.031  13.838  0.8961 -0.0155 -0.2188
 9342TIP3    H249518   4.550   3.058  13.750 -1.2807  2.2379 -2.6642
 9343TIP3   OH249519   5.522   6.637   2.839  0.2702 -0.2762  0.3661
 9343TIP3    H149520   5.438   6.635   2.883 -0.0353  1.4780 -0.0628
 9343TIP3    H249521   5.567   6.714   2.874  2.4260 -2.0606  1.8051
 9344TIP3   OH249522   4.727   2.798   5.337 -0.1364  0.4428 -0.5038
 9344TIP3    H149523   4.703   2.882   5.298  0.6951  0.9537  0.0616
 9344TIP3    H249524   4.820   2.787   5.317  0.3821  0.8284  1.4735
 9345TIP3   OH249525   5.516   3.211  17.048 -0.4839  0.6965  0.3189
 9345TIP3    H149526   5.600   3.231  17.006 -0.1579  1.8938  1.4737
 9345TIP3    H249527   5.461   3.177  16.977  0.6611  0.8074 -0.6559
 9346TIP3   OH249528   3.439   0.469   5.839 -0.0451 -0.3348  0.2029
 9346TIP3    H149529   3.370   0.512   5.890 -0.1869  2.1627 -1.9171
 9346TIP3    H249530   3.392   0.403   5.787 -0.4787 -0.2672  0.5030
 9347TIP3   OH249531   6.587   1.502  12.888  0.3105  0.3724 -0.4519
 9347TIP3    H149532   6.547   1.537  12.808 -0.7036  0.7679  0.2096
 9347TIP3    H249533   6.572   1.408  12.883 -1.1346  0.5549 -0.0047
 9348TIP3   OH249534   1.009   0.791  16.502  0.1642  0.0861 -0.1036
 9348TIP3    H149535   1.024   0.702  16.533  2.3058 -0.7391 -3.0084
 9348TIP3    H249536   1.095   0.819  16.469 -1.2407  1.7605 -2.6767
 9349TIP3   OH249537   3.719   4.444   3.577 -0.2732  0.1886 -0.1195
 9349TIP3    H149538   3.691   4.485   3.496  2.4301  0.8232 -0.8379
 9349TIP3    H249539   3.784   4.379   3.550  0.1930 -0.0608  1.4829
 9350TIP3   OH249540   3.824   4.086  13.177 -0.0363 -0.2462 -0.1340
 9350TIP3    H149541   3.881   4.121  13.109 -1.0959 -0.1282 -0.9978
 9350TIP3    H249542   3.848   3.994  13.184 -1.3964 -0.8614 -2.3308
 9351TIP3   OH249543   6.787   5.721   2.265  0.0390 -0.2494 -0.3098
 9351TIP3    H149544   6.767   5.629   2.247 -1.1340 -0.2931  1.0071
 9351TIP3    H249545   6.769   5.732   2.359  1.0301  1.1098 -0.2454
 9352TIP3   OH249546   4.186   3.877   2.624 -0.3170 -0.2743  0.1031
 9352TIP3    H149547   4.189   3.833   2.540 -0.4043 -0.5674  0.2512
 9352TIP3    H249548   4.220   3.813   2.686  0.0816  0.0678  0.2389
 9353TIP3   OH249549   3.367   0.607   1.797  0.4334 -0.0826 -0.4149
 9353TIP3    H149550   3.458   0.629   1.817  0.2760 -0.1108  0.3266
 9353TIP3    H249551   3.345   0.665   1.723  0.3931  1.4567  0.7578
 9354TIP3   OH249552   2.003   0.661   0.218  0.1611 -0.2553 -0.7102
 9354TIP3    H149553   2.092   0.684   0.245 -0.1803 -0.9228  1.1407
 9354TIP3    H249554   1.988   0.712   0.138  1.1435  2.1525  0.5307
 9355TIP3   OH249555   5.132   5.375  14.104 -0.3687 -0.4973 -0.1408
 9355TIP3    H149556   5.207   5.396  14.050 -0.0648  2.7150  1.3074
 9355TIP3    H249557   5.163   5.305  14.162  1.2406  0.1589 -0.1683
 9356TIP3   OH249558   0.824   6.593   2.327  0.6148 -0.3146 -0.0182
 9356TIP3    H149559   0.756   6.654   2.355  1.1719 -0.0729  0.8428
 9356TIP3    H249560   0.799   6.510   2.367 -0.2044 -0.7060 -1.2810
 9357TIP3   OH249561   4.371   4.754   2.920  0.2500 -0.0605 -0.1525
 9357TIP3    H149562   4.306   4.791   2.981  0.7829  0.6435  0.0004
 9357TIP3    H249563   4.371   4.815   2.846  0.6438 -0.1323 -0.2109
 9358TIP3   OH249564   3.228   1.924   6.088  0.9393  0.6818 -0.1850
 9358TIP3    H149565   3.206   1.991   6.153 -0.7311  0.8425 -0.8601
 9358TIP3    H249566   3.238   1.844   6.139 -2.2548  0.3857  0.1869
 9359TIP3   OH249567   5.538   1.938   1.807  0.5565 -0.5827  0.1720
 9359TIP3    H149568   5.562   1.857   1.852  0.7415 -0.2314  0.7135
 9359TIP3    H249569   5.463   1.913   1.753  1.3329 -1.3864 -0.5565
 9360TIP3   OH249570   4.172   4.970  14.476 -0.1970 -0.1728 -0.3941
 9360TIP3    H149571   4.149   5.036  14.541  0.3903 -0.4013  0.0540
 9360TIP3    H249572   4.093   4.917  14.467  0.4026 -1.6211  1.9410
 9361TIP3   OH249573   5.197   3.687   6.658 -0.3726 -0.2419  0.3457
 9361TIP3    H149574   5.139   3.696   6.734 -1.7819 -0.5757 -0.6573
 9361TIP3    H249575   5.143   3.715   6.584  0.2628 -1.9566 -0.8075
 9362TIP3   OH249576   1.771   2.863  14.834  0.4232 -0.7063  0.0215
 9362TIP3    H149577   1.686   2.828  14.861 -0.2620 -0.2788 -1.4852
 9362TIP3    H249578   1.816   2.788  14.794 -0.7507 -0.1499 -2.5287
 9363TIP3   OH249579   2.623   3.832   6.142  0.3602 -0.2210 -0.0371
 9363TIP3    H149580   2.710   3.796   6.128 -0.5503 -1.4644 -3.2963
 9363TIP3    H249581   2.632   3.925   6.120  0.8128 -0.3769 -0.5272
 9364TIP3   OH249582   3.379   3.322   0.366  0.1550 -0.8451  0.3421
 9364TIP3    H149583   3.364   3.412   0.396  0.7875 -1.4100  2.5141
 9364TIP3    H249584   3.473   3.317   0.352 -0.0257 -0.8530 -0.9485
 9365TIP3   OH249585   1.958   2.850   5.129  0.2140 -0.0687 -0.1317
 9365TIP3    H149586   1.967   2.758   5.153  1.4547 -0.8048 -3.0447
 9365TIP3    H249587   1.869   2.873   5.158 -0.1293 -2.1427  0.6429
 9366TIP3   OH249588   0.820   3.796  15.062  0.1907 -0.3078 -0.1289
 9366TIP3    H149589   0.911   3.825  15.062  0.1753 -0.2512  0.2763
 9366TIP3    H249590   0.821   3.716  15.114 -0.1002  0.0518  0.4371
 9367TIP3   OH249591   4.126   2.306   3.447  0.4496  0.0352  0.1005
 9367TIP3    H149592   4.108   2.400   3.448  0.6804  0.0820  1.1348
 9367TIP3    H249593   4.065   2.269   3.510 -0.6588 -0.7370 -1.3644
 9368TIP3   OH249594   0.098   4.671  10.524 -0.2142 -0.0493  0.3487
 9368TIP3    H149595   0.080   4.735  10.592  0.7154 -0.6464  1.1853
 9368TIP3    H249596   0.130   4.722  10.450 -1.6570  0.6530  0.1652
 9369TIP3   OH249597   3.191   2.956  14.357  0.0726 -0.4738 -0.5568
 9369TIP3    H149598   3.172   3.031  14.301  0.1273 -1.3358 -1.7613
 9369TIP3    H249599   3.105   2.918  14.376 -0.3963  1.9515  3.1443
 9370TIP3   OH249600   2.365   4.694   2.768 -0.0045  0.1117 -0.3919
 9370TIP3    H149601   2.401   4.608   2.747  2.2945  0.8851  0.1069
 9370TIP3    H249602   2.298   4.676   2.835  1.1358 -1.2331  0.4508
 9371TIP3   OH249603   0.217   6.775   5.054  0.3049 -0.7083 -0.0963
 9371TIP3    H149604   0.263   6.857   5.072 -1.5115  0.1213  1.1129
 9371TIP3    H249605   0.262   6.738   4.979  2.3005  0.5036  0.4220
 9372TIP3   OH249606   0.077   5.553   1.609 -0.4327 -0.0453  0.7332
 9372TIP3    H149607   0.052   5.616   1.541 -1.1477 -0.9373  0.1439
 9372TIP3    H249608   0.143   5.498   1.568 -0.4866 -0.2584  0.9288
 9373TIP3   OH249609   2.206   3.354  12.012  0.0347 -0.4318  0.4286
 9373TIP3    H149610   2.209   3.448  12.026 -0.2812 -0.6555  2.1235
 9373TIP3    H249611   2.237   3.316  12.094 -0.4410 -1.8184 -0.0014
 9374TIP3   OH249612   1.229   4.069   3.095  0.1167  0.1437  0.4398
 9374TIP3    H149613   1.272   4.134   3.039 -0.0912  0.5245  0.7121
 9374TIP3    H249614   1.135   4.081   3.076 -0.0165  0.8498  1.4592
 9375TIP3   OH249615   2.170   5.461  14.915  0.4813 -0.6650  0.0186
 9375TIP3    H149616   2.121   5.410  14.979 -0.6237 -0.3934 -0.5950
 9375TIP3    H249617   2.255   5.417  14.909 -0.1578 -1.9401  0.0982
 9376TIP3   OH249618   0.059   5.185  12.114 -0.1527  0.1974  0.0175
 9376TIP3    H149619   0.052   5.249  12.185  1.0614  1.4207 -0.9199
 9376TIP3    H249620   0.149   5.195  12.081 -0.9736  0.4500 -2.3701
 9377TIP3   OH249621   6.654   6.255   1.567  0.3148 -0.3828 -0.1713
 9377TIP3    H149622   6.583   6.202   1.531 -1.3720  2.6895 -1.7905
 9377TIP3    H249623   6.717   6.262   1.495  0.3034  0.1288 -0.1351
 9378TIP3   OH249624   5.287   5.949   5.979 -0.0192 -0.5673 -0.0779
 9378TIP3    H149625   5.312   5.885   6.046  0.7480 -0.3724 -0.1721
 9378TIP3    H249626   5.298   5.902   5.896 -2.2640 -1.2554 -0.0481
 9379TIP3   OH249627   5.290   2.718  10.894  0.0331  0.7279  0.0275
 9379TIP3    H149628   5.378   2.752  10.911 -0.9724  2.9675  1.0321
 9379TIP3    H249629   5.232   2.792  10.907 -2.0212 -0.6142 -0.9422
 9380TIP3   OH249630   6.030   4.467   5.253  0.7662 -0.1251  0.0036
 9380TIP3    H149631   5.950   4.488   5.205  1.1054 -0.5277 -0.7621
 9380TIP3    H249632   6.006   4.391   5.307  0.3132  0.4854  0.6697
 9381TIP3   OH249633   0.499   4.770  16.130  0.4332  0.0070  0.0930
 9381TIP3    H149634   0.568   4.789  16.065  0.0588  0.3240 -0.2152
 9381TIP3    H249635   0.460   4.688  16.100 -0.3104  0.5853 -0.5809
 9382TIP3   OH249636   1.990   4.117  16.381  0.2732  0.4050 -0.1919
 9382TIP3    H149637   1.947   4.051  16.326  1.0250  0.4304 -0.8151
 9382TIP3    H249638   2.082   4.092  16.381  0.4312  0.9651  0.2767
 9383TIP3   OH249639   1.088   4.517   4.040 -0.3968  0.0658 -0.2208
 9383TIP3    H149640   1.073   4.492   3.949  2.1060 -0.1442 -0.6570
 9383TIP3    H249641   1.054   4.606   4.047 -3.1181 -0.8551 -0.5414
 9384TIP3   OH249642   6.528   1.694  16.105  0.6915 -0.3525  0.0571
 9384TIP3    H149643   6.485   1.780  16.111  1.0906  0.0845 -2.4502
 9384TIP3    H249644   6.504   1.651  16.187  1.0489  2.3841  1.7487
 9385TIP3   OH249645   0.158   4.247  14.903  0.2047 -0.4092  0.1086
 9385TIP3    H149646   0.175   4.306  14.977 -4.5612 -0.0873  1.3072
 9385TIP3    H249647   0.198   4.291  14.828  0.6972  2.0629  1.6861
 9386TIP3   OH249648   5.845   6.457  10.377 -0.4864 -0.5677  0.5728
 9386TIP3    H149649   5.921   6.400  10.390 -0.0255 -0.1962 -0.3903
 9386TIP3    H249650   5.882   6.537  10.340 -1.3166 -0.2683  0.3886
 9387TIP3   OH249651   4.894   6.585  12.390  0.6938  0.0483  0.3583
 9387TIP3    H149652   4.953   6.534  12.446 -0.0589 -0.4204  0.7377
 9387TIP3    H249653   4.887   6.534  12.309 -1.4857 -1.4476  1.4004
 9388TIP3   OH249654   4.150   1.357   0.612  0.0906 -0.0803  0.0229
 9388TIP3    H149655   4.196   1.433   0.576  0.5047 -0.3142  0.0580
 9388TIP3    H249656   4.161   1.288   0.546 -0.8036  0.0667 -0.2914
 9389TIP3   OH249657   0.751   4.796  15.952  0.1489 -0.7878 -0.2544
 9389TIP3    H149658   0.791   4.864  16.006 -1.4753  0.1486 -0.1741
 9389TIP3    H249659   0.790   4.714  15.984 -0.7318 -0.2894  2.3768
 9390TIP3   OH249660   1.383   3.105   2.334 -0.1532  0.1598 -0.5717
 9390TIP3    H149661   1.321   3.138   2.269  0.0256 -1.1768 -1.4580
 9390TIP3    H249662   1.368   3.010   2.335 -0.5892  0.1931  1.7973
 9391TIP3   OH249663   1.687   2.403   5.076 -0.0655  0.4942 -0.0263
 9391TIP3    H149664   1.674   2.308   5.082 -1.0436  0.6515  0.5406
 9391TIP3    H249665   1.709   2.418   4.985 -2.1819 -0.0380 -0.6797
 9392TIP3   OH249666   5.886   0.823   0.333 -0.2858  1.0049 -0.5102
 9392TIP3    H149667   5.898   0.841   0.239  0.2597 -0.7545 -0.8034
 9392TIP3    H249668   5.911   0.731   0.343 -0.3478  1.1671  1.3689
 9393TIP3   OH249669   4.566   1.849   3.951 -0.0357  0.1367 -0.3509
 9393TIP3    H149670   4.471   1.842   3.958 -0.3050  0.5018 -2.8648
 9393TIP3    H249671   4.581   1.889   3.865  2.3290  1.9207  0.7733
 9394TIP3   OH249672   3.490   1.026  15.283  0.1156 -0.3272 -0.2503
 9394TIP3    H149673   3.584   1.042  15.290  0.8565 -2.2751 -3.6155
 9394TIP3    H249674   3.456   1.106  15.242  0.7082 -0.4449 -0.9962
 9395TIP3   OH249675   6.344   5.002  11.777 -0.5210  0.7650  0.0220
 9395TIP3    H149676   6.399   4.951  11.836  1.1399  2.6986  0.2675
 9395TIP3    H249677   6.402   5.025  11.704 -2.7088 -2.2471 -2.9442
 9396TIP3   OH249678   5.950   0.227  13.413 -0.1373  0.2262  0.5512
 9396TIP3    H149679   6.024   0.268  13.368  0.5402 -0.9870  0.5216
 9396TIP3    H249680   5.976   0.136  13.424 -1.2877 -0.0335  1.2978
 9397TIP3   OH249681   0.752   4.240  14.850  0.1733 -0.2551 -0.0320
 9397TIP3    H149682   0.710   4.157  14.872  0.2267  0.0404  1.2760
 9397TIP3    H249683   0.846   4.223  14.860  0.4977 -1.0786 -3.5166
 9398TIP3   OH249684   3.822   3.011  15.944  0.3640 -0.2508  0.2252
 9398TIP3    H149685   3.752   2.979  16.000 -0.0213  1.0215  0.5016
 9398TIP3    H249686   3.903   2.981  15.986  0.0223 -2.2012 -0.3884
 9399TIP3   OH249687   5.824   5.831  15.396  0.4820  0.3901  0.2086
 9399TIP3    H149688   5.860   5.805  15.311  0.3155 -1.3807  0.6383
 9399TIP3    H249689   5.741   5.785  15.402  0.0816  1.1882  0.9793
 9400TIP3   OH249690   5.390   6.150   1.185 -0.1139  0.2778  0.4137
 9400TIP3    H149691   5.309   6.100   1.197  0.8918 -1.5626 -0.1255
 9400TIP3    H249692   5.380   6.192   1.099 -0.6636  0.4191  0.5441
 9401TIP3   OH249693   1.560   1.105  12.337 -0.3486  0.6387 -0.4130
 9401TIP3    H149694   1.607   1.181  12.303  1.5468 -0.5024 -0.4888
 9401TIP3    H249695   1.470   1.115  12.305 -0.0433  2.6303 -0.7247
 9402TIP3   OH249696   1.208   4.163   0.867 -0.0975 -0.5059  0.6314
 9402TIP3    H149697   1.156   4.088   0.897  0.5432 -1.1733  0.1284
 9402TIP3    H249698   1.201   4.227   0.937 -0.6811 -1.0308  1.0640
 9403TIP3   OH249699   4.117   1.543   5.814 -0.0102  0.8003 -0.3243
 9403TIP3    H149700   4.040   1.551   5.758 -1.2676 -2.9885  0.6164
 9403TIP3    H249701   4.083   1.510   5.897  2.5465 -0.5905  0.2670
 9404TIP3   OH249702   3.661   1.376  13.133  0.8364 -0.1108 -0.2102
 9404TIP3    H149703   3.684   1.395  13.043  0.4469 -0.7999 -0.4613
 9404TIP3    H249704   3.577   1.420  13.147 -0.8389 -2.7663 -1.2599
 9405TIP3   OH249705   0.236   6.167   1.865 -0.6137  0.2626 -0.4411
 9405TIP3    H149706   0.216   6.248   1.819 -1.3082  0.3366 -0.0187
 9405TIP3    H249707   0.182   6.100   1.822 -0.1625  0.0500 -0.6855
 9406TIP3   OH249708   3.357   0.227  12.883 -0.6866 -0.8364  0.1822
 9406TIP3    H149709   3.302   0.220  12.804 -2.5908 -0.3287  1.3929
 9406TIP3    H249710   3.319   0.163  12.943 -1.1870  0.8488  1.7351
 9407TIP3   OH249711   5.798   3.250   4.955  0.5552 -0.6127 -0.3562
 9407TIP3    H149712   5.770   3.190   5.025  0.0657  1.0537  0.9367
 9407TIP3    H249713   5.773   3.206   4.874  0.2009 -2.1392  0.5486
 9408TIP3   OH249714   2.463   5.173   2.084  0.0182  0.7398  0.2379
 9408TIP3    H149715   2.415   5.154   2.004  1.6027 -0.5704 -0.4445
 9408TIP3    H249716   2.484   5.266   2.079 -1.1312  0.9951 -0.1420
 9409TIP3   OH249717   6.416   3.710  10.919  0.1024 -0.2689  0.5807
 9409TIP3    H149718   6.475   3.687  10.847  0.7555 -0.4536  1.1538
 9409TIP3    H249719   6.413   3.630  10.972 -0.6202 -0.2371  0.5894
 9410TIP3   OH249720   1.590   1.120  13.286  0.3691 -0.2921  0.6546
 9410TIP3    H149721   1.532   1.178  13.336 -1.5479 -2.8320  1.6159
 9410TIP3    H249722   1.530   1.065  13.234  2.0890 -1.1476 -0.5279
 9411TIP3   OH249723   1.115   2.108  14.200  1.0519  0.1718 -0.1116
 9411TIP3    H149724   1.149   2.182  14.150  1.5281  0.9542  1.3147
 9411TIP3    H249725   1.083   2.147  14.281  0.7480 -1.1178  0.4047
 9412TIP3   OH249726   2.725   6.630   1.433 -0.2253 -0.2833  0.4731
 9412TIP3    H149727   2.642   6.676   1.418 -0.9186 -1.5481  0.2234
 9412TIP3    H249728   2.740   6.580   1.353  0.7994 -0.0479  0.5105
 9413TIP3   OH249729   1.731   0.105   5.882  0.0257  0.0018  0.2811
 9413TIP3    H149730   1.698   0.118   5.970  0.6611 -0.6815  0.6332
 9413TIP3    H249731   1.760   0.192   5.854 -2.6100  0.7519 -0.3033
 9414TIP3   OH249732   0.403   5.549   3.210 -0.0427  0.0565 -0.6875
 9414TIP3    H149733   0.457   5.592   3.277  0.6250 -1.7168 -0.0200
 9414TIP3    H249734   0.313   5.566   3.237  0.1784  1.6053 -0.8523
 9415TIP3   OH249735   3.623   1.669  15.636 -0.3293  0.2491  0.8957
 9415TIP3    H149736   3.605   1.596  15.577 -0.7190  1.1921 -0.1937
 9415TIP3    H249737   3.536   1.702  15.660 -0.2545  2.9498 -1.9910
 9416TIP3   OH249738   1.671   3.637  14.847 -0.3748  0.0100 -0.0955
 9416TIP3    H149739   1.617   3.696  14.794 -0.7026 -0.9365 -0.8344
 9416TIP3    H249740   1.675   3.679  14.933 -1.0796  0.8131 -0.4412
 9417TIP3   OH249741   5.947   5.562   0.863 -0.5730 -0.5019 -0.6103
 9417TIP3    H149742   5.867   5.517   0.890  0.0531 -0.8961  0.6746
 9417TIP3    H249743   5.973   5.613   0.940  0.8809 -1.0845 -0.6751
 9418TIP3   OH249744   5.101   6.661  14.702 -0.0297  0.2650 -0.5169
 9418TIP3    H149745   5.120   6.693  14.614 -0.1005 -1.0823 -1.0472
 9418TIP3    H249746   5.008   6.638  14.700  0.3447 -1.3336 -0.6219
 9419TIP3   OH249747   1.092   4.295  14.033  0.4522  0.0855 -0.4467
 9419TIP3    H149748   1.044   4.339  14.104  0.9708  0.4902 -0.3390
 9419TIP3    H249749   1.027   4.239  13.991 -0.2461  0.9809 -0.6013
 9420TIP3   OH249750   3.030   6.520  11.815  0.0962  0.2465  0.3746
 9420TIP3    H149751   3.103   6.496  11.759 -0.3629 -0.4044  0.0413
 9420TIP3    H249752   3.052   6.608  11.847  0.6204  0.4030 -0.3847
 9421TIP3   OH249753   3.025   2.537   2.789 -0.2409  0.3201  0.5715
 9421TIP3    H149754   3.094   2.599   2.811 -0.0795 -0.0849  1.2448
 9421TIP3    H249755   3.029   2.528   2.694  1.1052 -0.2291  0.6602
 9422TIP3   OH249756   3.740   2.001   5.136  0.1455  1.2762 -0.4105
 9422TIP3    H149757   3.785   2.070   5.184  1.0891  1.4375 -1.4924
 9422TIP3    H249758   3.785   1.996   5.052  0.9801 -1.5389  0.0860
 9423TIP3   OH249759   6.623   2.323  11.679  0.4276  1.0120  0.3068
 9423TIP3    H149760   6.568   2.351  11.605  1.1551  0.1856 -0.5755
 9423TIP3    H249761   6.585   2.241  11.708  1.5711  0.0510 -0.7855
 9424TIP3   OH249762   2.504   1.601  12.838 -0.0080  0.1294  0.3921
 9424TIP3    H149763   2.451   1.670  12.879 -1.4002  0.4733 -1.7609
 9424TIP3    H249764   2.455   1.520  12.854  0.2394  0.0399  0.6937
 9425TIP3   OH249765   6.024   4.288   2.226 -0.1216 -0.2842 -0.0527
 9425TIP3    H149766   6.056   4.284   2.136  1.7432 -1.7734  0.5932
 9425TIP3    H249767   6.027   4.197   2.256 -1.6481  0.0443  1.2363
 9426TIP3   OH249768   6.673   6.137   3.883 -0.8491  0.0051 -0.0814
 9426TIP3    H149769   6.675   6.186   3.965 -1.5888  0.3286 -0.2467
 9426TIP3    H249770   6.698   6.200   3.816  0.0535 -0.3365 -0.0793
 9427TIP3   OH249771   1.992   4.675   3.797  0.5000  0.2302 -0.0990
 9427TIP3    H149772   1.942   4.707   3.722  0.8576  0.9843 -0.0213
 9427TIP3    H249773   2.045   4.749   3.824 -0.1772  0.2219  1.3877
 9428TIP3   OH249774   0.546   3.369  16.728 -0.4311  0.1676  0.4461
 9428TIP3    H149775   0.598   3.408  16.657 -0.5905 -0.5444 -0.0776
 9428TIP3    H249776   0.547   3.434  16.798  2.1345 -0.2850  0.9123
 9429TIP3   OH249777   3.945   2.329   0.140 -0.1931 -0.6763 -0.3599
 9429TIP3    H149778   3.983   2.347   0.225 -0.0152  0.7652 -0.7246
 9429TIP3    H249779   4.002   2.374   0.078 -1.5721  0.1978 -1.0474
 9430TIP3   OH249780   3.229   4.946   5.006 -0.6435 -0.2991 -0.7877
 9430TIP3    H149781   3.223   5.014   5.074 -1.1420  0.3364 -1.4476
 9430TIP3    H249782   3.314   4.960   4.965 -0.8007  0.0196 -1.0098
 9431TIP3   OH249783   1.916   5.658   0.943 -0.0757  0.2121  0.7519
 9431TIP3    H149784   1.872   5.623   0.865  1.2519  0.8974 -0.3406
 9431TIP3    H249785   2.009   5.643   0.926  0.2552  0.6943  2.0622
 9432TIP3   OH249786   4.874   3.914  16.500 -0.6712  0.0919 -0.1661
 9432TIP3    H149787   4.881   4.005  16.528 -0.0466 -0.0783  0.2554
 9432TIP3    H249788   4.900   3.863  16.577 -0.0503 -0.4084 -0.6961
 9433TIP3   OH249789   2.862   1.297   4.237  0.1800 -0.0976  0.3739
 9433TIP3    H149790   2.812   1.216   4.229 -0.8634  0.5759 -0.1397
 9433TIP3    H249791   2.808   1.363   4.194  0.7017  1.0163  1.3801
 9434TIP3   OH249792   5.401   1.205  13.961 -0.7057  0.1771 -0.3273
 9434TIP3    H149793   5.380   1.166  14.046 -1.3072  0.9049 -0.1329
 9434TIP3    H249794   5.487   1.169  13.939 -0.6170 -0.1468  0.5081
 9435TIP3   OH249795   4.488   0.380   2.570 -0.7342 -0.1796  0.0581
 9435TIP3    H149796   4.421   0.313   2.552 -1.0464  0.1885 -0.1726
 9435TIP3    H249797   4.570   0.340   2.543 -0.8166 -0.7556  0.6275
 9436TIP3   OH249798   0.134   5.953   4.117  0.1134 -0.1156 -0.0917
 9436TIP3    H149799   0.065   5.955   4.051  1.2872  1.4257 -1.3386
 9436TIP3    H249800   0.143   6.044   4.145  2.9279  0.1288 -1.4154
 9437TIP3   OH249801   0.493   4.557  15.144  0.3067 -0.1795  0.2483
 9437TIP3    H149802   0.574   4.594  15.108  0.2293 -0.0276  0.2284
 9437TIP3    H249803   0.514   4.537  15.235 -0.2931  2.0049  0.9339
 9438TIP3   OH249804   5.141   1.916  16.292  0.0738  0.1402  0.2835
 9438TIP3    H149805   5.196   1.943  16.366 -0.7490  0.0093  0.9692
 9438TIP3    H249806   5.137   1.820  16.299  3.0337 -0.2804 -2.1730
 9439TIP3   OH249807   4.807   3.215   5.126  0.4571 -0.3182  0.3366
 9439TIP3    H149808   4.746   3.276   5.167 -1.3516 -0.1176 -2.3868
 9439TIP3    H249809   4.766   3.129   5.137  1.5284 -0.7141  1.5593
 9440TIP3   OH249810   3.841   4.600  11.696  0.2316 -0.7745 -0.0219
 9440TIP3    H149811   3.799   4.517  11.672 -1.0396 -0.3115  0.5556
 9440TIP3    H249812   3.878   4.584  11.783 -1.5514 -0.2226  0.8691
 9441TIP3   OH249813   6.363   6.398   4.231  0.0146  0.3089 -0.3214
 9441TIP3    H149814   6.327   6.330   4.288 -0.5766  0.7346 -0.1783
 9441TIP3    H249815   6.392   6.351   4.152 -1.7241  0.0641 -0.8463
 9442TIP3   OH249816   1.968   4.204  15.432 -0.1780  0.5589  0.4788
 9442TIP3    H149817   1.919   4.131  15.468  0.1471 -0.4722 -1.0393
 9442TIP3    H249818   1.936   4.212  15.342 -0.1965  2.3021  0.5990
 9443TIP3   OH249819   1.292   0.834  13.905 -0.4477  0.5511  0.2922
 9443TIP3    H149820   1.380   0.809  13.931  0.2828  1.4935 -1.1493
 9443TIP3    H249821   1.235   0.797  13.973  1.0353 -0.1363  1.1997
 9444TIP3   OH249822   4.922   6.769   5.422 -0.5702  0.7960  0.8389
 9444TIP3    H149823   4.981   6.791   5.494  0.6647  1.6403 -0.3735
 9444TIP3    H249824   4.972   6.790   5.343 -2.3213  1.0830 -0.2505
 9445TIP3   OH249825   6.127   4.436   4.611  0.7775  0.1391 -0.6546
 9445TIP3    H149826   6.062   4.394   4.667  0.9564 -0.0422 -0.5836
 9445TIP3    H249827   6.199   4.459   4.670  0.0396  1.9401 -0.3986
 9446TIP3   OH249828   1.672   0.572   1.804  0.3019 -0.3346  0.0673
 9446TIP3    H149829   1.640   0.482   1.792  0.6400 -0.2478 -1.8124
 9446TIP3    H249830   1.598   0.618   1.844 -0.2593 -1.2197  0.0814
 9447TIP3   OH249831   5.953   4.141  12.289  0.1947  0.0729 -0.4005
 9447TIP3    H149832   6.006   4.080  12.340 -1.2299 -1.9494 -1.2096
 9447TIP3    H249833   5.953   4.222  12.340 -0.3213 -1.5336  2.3017
 9448TIP3   OH249834   2.928   5.466   4.783 -0.2918  0.5949 -0.4516
 9448TIP3    H149835   2.866   5.507   4.723  1.1927  1.3854 -1.5022
 9448TIP3    H249836   2.994   5.533   4.799  0.5390 -0.3666  0.2729
 9449TIP3   OH249837   6.680   3.079  16.820 -0.5926  0.5646  0.1195
 9449TIP3    H149838   6.737   3.037  16.885 -0.2439 -1.2715 -1.2864
 9449TIP3    H249839   6.638   3.151  16.868 -0.0041 -0.4157  2.2293
 9450TIP3   OH249840   0.596   1.457  11.402  0.0467 -0.4594 -0.4296
 9450TIP3    H149841   0.665   1.390  11.404  0.3639 -0.1484 -1.0101
 9450TIP3    H249842   0.541   1.432  11.328  0.4593  0.2063 -0.9724
 9451TIP3   OH249843   6.070   5.737   0.700 -0.3413 -0.1345 -0.3034
 9451TIP3    H149844   6.047   5.663   0.756  1.0577 -0.9952 -0.8045
 9451TIP3    H249845   6.085   5.698   0.614 -0.0800  0.8132 -0.6984
 9452TIP3   OH249846   0.952   4.655   1.974  0.4687 -0.1988  0.4998
 9452TIP3    H149847   0.883   4.711   1.937  0.7903  0.3134  0.6678
 9452TIP3    H249848   0.907   4.605   2.042 -0.0743 -0.9773 -0.4132
 9453TIP3   OH249849   2.241   0.489  16.482  0.3780 -0.6970  0.1727
 9453TIP3    H149850   2.285   0.487  16.397 -0.9255  0.4163 -0.5708
 9453TIP3    H249851   2.161   0.540  16.467  0.1498 -0.3975  2.0952
 9454TIP3   OH249852   2.283   1.804  13.910  0.8558  0.5220 -0.5830
 9454TIP3    H149853   2.283   1.892  13.947  0.0933 -0.1453  1.0767
 9454TIP3    H249854   2.368   1.767  13.932  0.2420 -0.0314  0.9711
 9455TIP3   OH249855   4.667   1.761   3.422 -0.5147  0.3648 -0.3141
 9455TIP3    H149856   4.730   1.832   3.407 -2.2668  1.9487 -0.6014
 9455TIP3    H249857   4.690   1.726   3.508  0.8108  0.8098 -0.4606
 9456TIP3   OH249858   1.834   5.792   1.898  0.1342  0.0931 -0.4175
 9456TIP3    H149859   1.805   5.874   1.937 -0.8346  0.0701 -1.0460
 9456TIP3    H249860   1.905   5.816   1.839  1.7808  0.0969  1.4889
 9457TIP3   OH249861   4.527   0.208   0.240  0.3500 -0.6614 -0.3405
 9457TIP3    H149862   4.532   0.280   0.178  0.4548  1.6691  2.1954
 9457TIP3    H249863   4.589   0.231   0.309  1.0430 -3.6648  0.1844
 9458TIP3   OH249864   4.637   3.096   0.258  0.3734  0.1703  0.2048
 9458TIP3    H149865   4.633   3.120   0.350 -0.4190  0.8075  0.0187
 9458TIP3    H249866   4.546   3.102   0.227  0.5089 -0.8149 -0.4243
 9459TIP3   OH249867   1.992   4.768   0.791  0.4237  0.0083  0.2745
 9459TIP3    H149868   1.942   4.787   0.870  0.0733 -1.7792  0.5431
 9459TIP3    H249869   1.933   4.790   0.719 -0.0757 -0.3857  0.5604
 9460TIP3   OH249870   1.146   2.274   0.544 -0.1283 -0.4156  0.4780
 9460TIP3    H149871   1.083   2.326   0.593 -1.4584 -2.7193  1.3987
 9460TIP3    H249872   1.134   2.185   0.577  2.1925 -1.2925 -0.8042
 9461TIP3   OH249873   3.879   5.698   3.539 -0.2207 -0.0040 -0.0132
 9461TIP3    H149874   3.807   5.757   3.562  1.1148  0.8658  2.2084
 9461TIP3    H249875   3.839   5.611   3.540 -1.3430  0.4923  0.7808
 9462TIP3   OH249876   1.580   3.040   4.971 -0.2048  0.4497 -0.0897
 9462TIP3    H149877   1.658   3.095   4.971 -1.2160  2.0042  1.7586
 9462TIP3    H249878   1.612   2.954   5.000  0.9985  0.7228 -0.5445
 9463TIP3   OH249879   4.823   3.517   5.601 -0.2573  0.3959  0.1099
 9463TIP3    H149880   4.835   3.451   5.669  0.7555  0.5468  0.1033
 9463TIP3    H249881   4.875   3.484   5.527 -0.7361  0.6059 -0.3305
 9464TIP3   OH249882   0.539   4.835  10.896 -0.4177 -0.6116 -0.3472
 9464TIP3    H149883   0.535   4.931  10.891 -1.4954 -0.6824 -1.2628
 9464TIP3    H249884   0.613   4.812  10.840 -1.3100 -0.3782 -1.6989
 9465TIP3   OH249885   4.092   6.636   5.263  0.0709  0.0369 -0.2852
 9465TIP3    H149886   4.091   6.549   5.304 -1.6375 -1.1505 -2.6083
 9465TIP3    H249887   4.157   6.628   5.193 -0.3993  0.4648 -0.7764
 9466TIP3   OH249888   3.192   0.653   0.371 -0.2155  0.1936  0.1134
 9466TIP3    H149889   3.177   0.735   0.323  1.6567  1.0403  0.8582
 9466TIP3    H249890   3.252   0.603   0.316 -2.2796 -1.3021 -0.9152
 9467TIP3   OH249891   0.787   0.637   1.886 -0.0011 -0.1593 -0.0254
 9467TIP3    H149892   0.809   0.547   1.913 -0.7274 -0.3377 -0.0170
 9467TIP3    H249893   0.861   0.690   1.918  0.0821 -0.6446  0.6207
 9468TIP3   OH249894   2.225   2.182   3.512 -0.3928 -0.2415 -0.0475
 9468TIP3    H149895   2.134   2.157   3.525 -1.6846  2.9767 -1.8975
 9468TIP3    H249896   2.247   2.147   3.425 -0.3210  0.1532 -0.1887
 9469TIP3   OH249897   2.624   6.567  12.014 -0.0598  0.1380  0.5525
 9469TIP3    H149898   2.584   6.651  11.991  2.5332  1.5822  0.8999
 9469TIP3    H249899   2.717   6.578  11.993  0.2555 -2.9796 -0.1823
 9470TIP3   OH249900   0.191   1.448  12.352  0.1007  0.1815 -0.1919
 9470TIP3    H149901   0.128   1.483  12.415  0.4465  0.9650 -0.2723
 9470TIP3    H249902   0.275   1.488  12.377  0.0066  1.6530 -1.9787
 9471TIP3   OH249903   1.755   6.056  15.358 -0.8453 -0.2114  0.2172
 9471TIP3    H149904   1.810   6.088  15.430 -1.1855  1.8658 -0.3722
 9471TIP3    H249905   1.800   6.085  15.279 -2.0051  0.2184 -0.3045
 9472TIP3   OH249906   5.888   5.354   4.976 -0.3507 -0.7514  0.2083
 9472TIP3    H149907   5.894   5.366   5.071 -0.0296 -1.6569  0.3124
 9472TIP3    H249908   5.953   5.287   4.956  0.8415  0.6707 -0.9018
 9473TIP3   OH249909   2.186   3.934   6.085 -0.3322 -0.2743  0.5757
 9473TIP3    H149910   2.119   3.887   6.037 -0.0443 -0.3571  0.2512
 9473TIP3    H249911   2.147   4.019   6.104  0.3241  0.6074 -1.7326
 9474TIP3   OH249912   3.873   1.305   0.568 -0.6761 -0.2140 -0.3136
 9474TIP3    H149913   3.965   1.328   0.553 -0.6083 -0.4363 -0.2411
 9474TIP3    H249914   3.838   1.288   0.481 -0.5237 -0.5908 -0.3063
 9475TIP3   OH249915   3.609   3.290   1.942  0.7755 -0.0729  0.1469
 9475TIP3    H149916   3.682   3.228   1.942  0.2745 -0.6924  1.2293
 9475TIP3    H249917   3.587   3.302   2.035 -0.4432  0.1608 -0.1500
 9476TIP3   OH249918   5.177   3.687   0.744  0.0866  0.1681 -0.1044
 9476TIP3    H149919   5.152   3.748   0.674  0.3056  1.1278  0.6210
 9476TIP3    H249920   5.260   3.649   0.714  0.3215  0.7801 -0.2548
 9477TIP3   OH249921   1.002   2.773  11.693  0.2877 -0.2152  0.2301
 9477TIP3    H149922   0.956   2.807  11.769  0.5604 -1.8473  1.1658
 9477TIP3    H249923   0.967   2.823  11.619 -0.8316  0.5928  1.2782
 9478TIP3   OH249924   4.106   5.570  12.443  0.5807 -0.5196 -0.7101
 9478TIP3    H149925   4.088   5.650  12.392  0.6446 -0.2476 -0.3093
 9478TIP3    H249926   4.102   5.598  12.534 -0.2730 -1.1615 -0.5370
 9479TIP3   OH249927   5.147   2.982   4.312  0.1905  0.0715 -0.7574
 9479TIP3    H149928   5.149   3.031   4.229  2.8764  1.2938 -0.0814
 9479TIP3    H249929   5.129   2.892   4.286 -1.5350  0.7961 -2.3755
 9480TIP3   OH249930   4.416   5.238   0.177  0.4141  0.6172 -0.3201
 9480TIP3    H149931   4.430   5.155   0.131  1.3587  0.6635 -0.1350
 9480TIP3    H249932   4.484   5.296   0.141  1.1389  0.6730  1.0826
 9481TIP3   OH249933   5.484   1.261   4.516 -0.5173  0.1315  0.1970
 9481TIP3    H149934   5.425   1.216   4.456  1.3749 -2.9765  0.4547
 9481TIP3    H249935   5.427   1.299   4.582 -2.2876 -2.2985  0.1826
 9482TIP3   OH249936   4.816   3.083   5.464  0.3602 -0.2146 -0.1341
 9482TIP3    H149937   4.749   3.033   5.510 -0.2577  1.5658  0.9880
 9482TIP3    H249938   4.883   3.101   5.530  0.6825  0.2328 -0.5753
 9483TIP3   OH249939   2.336   2.227  14.377  0.1947 -0.4716 -0.0668
 9483TIP3    H149940   2.259   2.238  14.321 -0.4841 -0.1222  0.9024
 9483TIP3    H249941   2.352   2.315  14.412  0.5500 -0.7056  0.3628
 9484TIP3   OH249942   4.324   6.095   3.173  0.5670  0.0925  0.1874
 9484TIP3    H149943   4.344   6.174   3.122  0.1090  0.5205  0.6556
 9484TIP3    H249944   4.329   6.123   3.264 -2.6070  0.4298  0.3757
 9485TIP3   OH249945   3.011   0.247  14.189 -0.3198 -0.1391  0.2296
 9485TIP3    H149946   2.980   0.325  14.236 -1.0079 -0.0190 -0.4020
 9485TIP3    H249947   3.089   0.278  14.141 -0.5291  0.1329  0.0629
 9486TIP3   OH249948   2.895   4.559   3.843 -0.0969 -0.1544  0.5108
 9486TIP3    H149949   2.986   4.535   3.863  0.1981  0.8174  0.3808
 9486TIP3    H249950   2.896   4.654   3.836 -0.7860 -0.2335 -1.2355
 9487TIP3   OH249951   0.275   4.546   5.598 -0.7714  0.1918 -0.0620
 9487TIP3    H149952   0.260   4.638   5.620 -4.8399 -0.1182 -0.8348
 9487TIP3    H249953   0.272   4.543   5.503 -1.1766 -0.7878 -0.0330
 9488TIP3   OH249954   4.439   6.126   5.600 -0.3184  0.0290 -0.2527
 9488TIP3    H149955   4.438   6.190   5.671 -1.0357  0.9850 -1.1006
 9488TIP3    H249956   4.387   6.166   5.530 -1.2119 -1.6911 -0.6312
 9489TIP3   OH249957   1.051   6.511  14.818 -0.2866 -0.1166  0.4809
 9489TIP3    H149958   0.971   6.461  14.800 -0.4633 -0.1570  1.3230
 9489TIP3    H249959   1.120   6.463  14.773 -0.5041 -0.9402  0.9936
 9490TIP3   OH249960   3.653   0.878   0.019  0.7650 -0.2472 -0.2795
 9490TIP3    H149961   3.638   0.814  -0.050  0.5809  0.7392 -1.1642
 9490TIP3    H249962   3.622   0.834   0.099 -0.6630 -0.7539 -1.0716
 9491TIP3   OH249963   1.302   4.498   2.864  0.0514  0.1557 -0.3339
 9491TIP3    H149964   1.248   4.573   2.892  0.9391  1.1113 -1.0849
 9491TIP3    H249965   1.278   4.485   2.772 -1.0134 -1.3213  0.1303
 9492TIP3   OH249966   1.248   4.555   2.302  0.5143  0.3713  0.2995
 9492TIP3    H149967   1.303   4.477   2.291 -0.3805 -0.5544  2.0151
 9492TIP3    H249968   1.162   4.528   2.272  0.0855  0.5142  1.3609
 9493TIP3   OH249969   6.291   5.298  14.641 -0.5610 -0.0003  0.1490
 9493TIP3    H149970   6.323   5.224  14.693  0.7740  1.0589  0.8792
 9493TIP3    H249971   6.251   5.257  14.564  1.0588 -1.4635  0.0325
 9494TIP3   OH249972   1.631   6.816  16.848 -0.0041  0.7209  0.7015
 9494TIP3    H149973   1.672   6.860  16.774 -0.1806  2.0527  1.3603
 9494TIP3    H249974   1.545   6.858  16.857 -1.4345 -1.7777 -0.4302
 9495TIP3   OH249975   5.277   5.523   3.651 -0.0415 -0.1929  0.0700
 9495TIP3    H149976   5.223   5.481   3.584 -0.3791  0.3158  0.0132
 9495TIP3    H249977   5.238   5.495   3.734 -0.8708  0.7472  0.0253
 9496TIP3   OH249978   3.468   6.321   4.009 -0.1007  0.3121 -0.1512
 9496TIP3    H149979   3.401   6.268   4.053 -0.5007  1.1523  0.2817
 9496TIP3    H249980   3.450   6.410   4.038  1.6438  0.4714  0.5216
 9497TIP3   OH249981   2.761   3.222   5.332  0.0121 -0.0474  0.8348
 9497TIP3    H149982   2.684   3.179   5.370  0.9030 -0.4997  2.1922
 9497TIP3    H249983   2.807   3.261   5.407  0.6499  0.9868 -0.0539
 9498TIP3   OH249984   2.361   6.776   1.562  0.0070  0.1283 -0.0169
 9498TIP3    H149985   2.415   6.855   1.560 -1.0273  0.8458 -0.2787
 9498TIP3    H249986   2.404   6.719   1.626  1.5745  0.2988 -0.8832
 9499TIP3   OH249987   1.184   1.969   1.243  0.3586  0.5517  0.2706
 9499TIP3    H149988   1.211   1.904   1.308 -1.2654 -1.4095 -0.9199
 9499TIP3    H249989   1.106   2.010   1.280 -0.4995 -0.4846 -0.3576
 9500TIP3   OH249990   1.257   1.678   4.523 -0.5825 -0.1166 -0.3032
 9500TIP3    H149991   1.328   1.720   4.570 -1.4151  2.0520 -0.8670
 9500TIP3    H249992   1.290   1.667   4.433 -0.6757  0.1375 -0.3682
 9501TIP3   OH249993   6.635   6.407  10.258  0.6035  0.8345  0.1652
 9501TIP3    H149994   6.581   6.371  10.188  0.9509 -1.6316  1.0507
 9501TIP3    H249995   6.576   6.415  10.333  1.2577 -1.6555  1.0683
 9502TIP3   OH249996   1.090   0.894  11.968 -0.0674 -0.4906 -0.6010
 9502TIP3    H149997   1.026   0.866  11.902 -0.7224  0.8016 -0.5535
 9502TIP3    H249998   1.043   0.883  12.051  0.3859 -1.1279 -0.4230
 9503TIP3   OH249999   5.479   1.304   0.678  0.4734  0.4702  0.1128
 9503TIP3    H150000   5.426   1.241   0.629 -0.6571 -0.1222  2.0096
 9503TIP3    H250001   5.430   1.386   0.673 -0.4898  0.0172  1.5379
 9504TIP3   OH250002   3.803   5.987   4.921  0.6770 -0.1887 -0.3846
 9504TIP3    H150003   3.865   6.029   4.980  0.6109  0.0064 -0.4541
 9504TIP3    H250004   3.849   5.908   4.890  0.7443 -0.2447 -0.1427
 9505TIP3   OH250005   3.839   3.549   1.962 -0.3956 -0.0954 -0.2837
 9505TIP3    H150006   3.924   3.509   1.942  0.4593  2.0562 -1.2625
 9505TIP3    H250007   3.786   3.531   1.885 -1.0069 -1.7422  0.4706
 9506TIP3   OH250008   5.482   4.505   3.069  0.5398 -0.7590 -0.1904
 9506TIP3    H150009   5.392   4.535   3.083 -0.3656  0.2063 -5.7238
 9506TIP3    H250010   5.475   4.439   2.999  4.0676 -1.4391 -0.0971
 9507TIP3   OH250011   2.128   4.124   3.136 -0.2326  0.1020  1.0624
 9507TIP3    H150012   2.188   4.160   3.071 -0.3879 -2.2827 -0.5362
 9507TIP3    H250013   2.179   4.057   3.181 -1.0681 -0.5171  1.1195
 9508TIP3   OH250014   1.119   0.826  14.381  0.6923 -0.3949 -0.2868
 9508TIP3    H150015   1.189   0.827  14.315  1.3438 -2.9156  0.2208
 9508TIP3    H250016   1.164   0.797  14.461 -0.5937 -0.1472  0.5424
 9509TIP3   OH250017   3.146   6.731   4.419 -0.5941  0.0285 -0.1410
 9509TIP3    H150018   3.062   6.705   4.379 -1.3911  0.6210  1.0718
 9509TIP3    H250019   3.201   6.654   4.412 -0.8896 -0.0585 -1.8736
 9510TIP3   OH250020   3.959   2.028   2.071 -0.2431 -0.9170 -0.4074
 9510TIP3    H150021   4.015   1.974   2.015  0.4126 -0.9568  0.2673
 9510TIP3    H250022   3.912   1.966   2.126 -0.2746 -0.8491 -0.3567
 9511TIP3   OH250023   0.797   5.047   2.332 -0.3008  0.6472  0.5417
 9511TIP3    H150024   0.708   5.062   2.300 -0.0647 -0.6111 -0.7982
 9511TIP3    H250025   0.844   5.010   2.257  1.0029  0.0608  1.6023
 9512TIP3   OH250026   2.695   5.532  12.068  0.2658 -0.0295  0.2262
 9512TIP3    H150027   2.749   5.596  12.021 -0.8696  0.5521 -0.3370
 9512TIP3    H250028   2.666   5.471  12.000  0.7704 -0.7437  0.6417
 9513TIP3   OH250029   2.355   6.786   0.899 -0.4832 -0.3428  0.0887
 9513TIP3    H150030   2.264   6.758   0.906 -0.7750  0.7946  1.2085
 9513TIP3    H250031   2.384   6.798   0.989  0.9536 -1.1819 -0.2288
 9514TIP3   OH250032   5.243   4.030  13.119 -0.2376  0.5880  0.1236
 9514TIP3    H150033   5.241   4.075  13.034 -1.2267  0.9187  0.3129
 9514TIP3    H250034   5.176   4.073  13.171 -0.2331 -0.1821  0.7911
 9515TIP3   OH250035   5.962   4.006   0.409 -0.4080 -0.3138 -0.2853
 9515TIP3    H150036   5.919   4.003   0.323  0.0386  0.0566 -0.5248
 9515TIP3    H250037   5.935   3.924   0.451  0.3762 -1.1059 -1.2694
 9516TIP3   OH250038   3.923   0.965  14.162  0.2632  0.6094 -0.3370
 9516TIP3    H150039   3.959   0.970  14.250 -1.9721  2.0715  0.6004
 9516TIP3    H250040   3.985   1.013  14.107  1.7028 -0.3543  0.3782
 9517TIP3   OH250041   3.826   3.128   2.711 -0.7146  0.0545 -0.1882
 9517TIP3    H150042   3.816   3.144   2.805  2.4441  1.3376  0.0552
 9517TIP3    H250043   3.794   3.209   2.670 -1.1149 -0.0889 -0.1645
 9518TIP3   OH250044   2.319   5.902  12.220  0.2230 -0.3799  0.1535
 9518TIP3    H150045   2.346   5.993  12.234  1.1947 -0.6650  0.2423
 9518TIP3    H250046   2.298   5.897  12.127 -0.8725  0.1878  0.3607
 9519TIP3   OH250047   2.406   6.433   5.562 -0.0920 -0.1488 -0.2332
 9519TIP3    H150048   2.454   6.355   5.535  0.2532 -0.1725  0.4232
 9519TIP3    H250049   2.327   6.399   5.604  0.7694 -0.2195  1.4227
 9520TIP3   OH250050   1.516   5.270  15.743  0.1379 -0.0559 -0.2224
 9520TIP3    H150051   1.527   5.194  15.801 -1.8551 -0.5925 -0.4873
 9520TIP3    H250052   1.440   5.316  15.778 -0.8748 -0.1848 -2.1447
 9521TIP3   OH250053   1.098   5.641   3.041  0.3122 -0.1972 -0.1244
 9521TIP3    H150054   1.028   5.582   3.070  1.0070 -1.1067 -0.2473
 9521TIP3    H250055   1.086   5.648   2.946  0.1175  0.0132 -0.0850
 9522TIP3   OH250056   0.500   2.794   1.338  0.0931 -0.5065 -0.4160
 9522TIP3    H150057   0.518   2.888   1.338  1.6328 -0.7445 -1.8583
 9522TIP3    H250058   0.474   2.774   1.428  2.7073  0.7874  0.7464
 9523TIP3   OH250059   3.197   0.908  11.560 -0.4394  0.6178 -0.1640
 9523TIP3    H150060   3.258   0.895  11.488  1.3743  1.7233  1.1022
 9523TIP3    H250061   3.207   0.830  11.614 -1.0922  0.2278 -0.5965
 9524TIP3   OH250062   2.449   3.902   5.553  0.1691 -0.0589 -0.4432
 9524TIP3    H150063   2.457   3.963   5.626 -1.7881 -1.1953  0.8064
 9524TIP3    H250064   2.528   3.847   5.559  0.3199  0.2401  0.4544
 9525TIP3   OH250065   0.497   0.312  12.303  0.0190 -0.4401 -0.2602
 9525TIP3    H150066   0.464   0.399  12.280 -0.7493 -0.5734  0.3131
 9525TIP3    H250067   0.465   0.297  12.392 -0.0163 -1.3891 -0.4260
 9526TIP3   OH250068   1.077   0.929   0.604  0.2803  0.3908  0.5386
 9526TIP3    H150069   1.154   0.976   0.635  0.6480  0.6892 -0.7514
 9526TIP3    H250070   1.099   0.836   0.614  1.2736  0.4488 -0.8123
 9527TIP3   OH250071   2.916   4.938  13.378 -0.6739 -0.5861  0.2272
 9527TIP3    H150072   2.918   4.849  13.414  0.6388 -0.2645  0.9949
 9527TIP3    H250073   2.957   4.992  13.444  1.1799  0.1358 -1.4139
 9528TIP3   OH250074   5.322   3.995   0.596  1.1197  0.4675  0.1061
 9528TIP3    H150075   5.362   4.011   0.681 -0.4175  0.9209  0.7752
 9528TIP3    H250076   5.285   3.908   0.602  3.4694 -0.7209 -1.1445
 9529TIP3   OH250077   1.627   0.809  15.683 -0.5914 -0.0754 -0.2055
 9529TIP3    H150078   1.578   0.803  15.602 -3.0075 -2.1548  1.2776
 9529TIP3    H250079   1.682   0.731  15.684  1.0695  1.0222 -0.7308
 9530TIP3   OH250080   0.930   6.349  15.952 -0.1711 -0.1385  0.6310
 9530TIP3    H150081   0.939   6.283  15.884  1.0469  1.1632 -0.5462
 9530TIP3    H250082   1.019   6.364  15.984 -0.0845  2.2066 -0.4571
 9531TIP3   OH250083   2.725   3.704   0.091  0.2269  0.0040  0.2493
 9531TIP3    H150084   2.712   3.627   0.036  0.3502  1.7878 -2.4118
 9531TIP3    H250085   2.696   3.778   0.038 -0.0758  1.8402  2.7725
 9532TIP3   OH250086   1.178   3.405   6.415  0.3753 -0.0242 -0.2638
 9532TIP3    H150087   1.262   3.447   6.434  0.0428  0.7219 -0.4285
 9532TIP3    H250088   1.194   3.354   6.336  0.5854  0.3731 -0.4779
 9533TIP3   OH250089   5.774   6.500   0.847 -0.2640 -0.3151 -0.2241
 9533TIP3    H150090   5.747   6.558   0.776 -0.6828  0.6387  0.7064
 9533TIP3    H250091   5.860   6.468   0.819  1.3928  3.0676  0.5552
 9534TIP3   OH250092   6.578   4.727   2.944  0.6599 -0.1102 -0.6501
 9534TIP3    H150093   6.656   4.768   2.906 -0.0718  1.7209 -0.3184
 9534TIP3    H250094   6.559   4.654   2.886  2.4930 -0.4783 -0.8488
 9535TIP3   OH250095   6.565   5.527   0.529 -0.3177  0.4733  0.1039
 9535TIP3    H150096   6.509   5.451   0.516 -1.3717  0.8069  2.2118
 9535TIP3    H250097   6.618   5.505   0.605  0.0273  1.4947  0.1738
 9536TIP3   OH250098   0.312   1.149  11.016  0.1563 -0.1276  0.1849
 9536TIP3    H150099   0.367   1.139  11.094  0.7138  1.0545 -0.0223
 9536TIP3    H250100   0.232   1.101  11.036 -0.6509  1.9335  2.4408
 9537TIP3   OH250101   2.750   3.956  12.815  0.7511 -0.2882 -0.3932
 9537TIP3    H150102   2.660   3.941  12.786  0.6296  1.3387 -0.9602
 9537TIP3    H250103   2.803   3.953  12.736  1.2669 -1.5508 -0.0236
 9538TIP3   OH250104   3.762   4.889  12.513  0.2944 -0.0737 -0.2797
 9538TIP3    H150105   3.689   4.829  12.497  0.2589 -0.1743  0.2695
 9538TIP3    H250106   3.835   4.853  12.462  0.6116 -1.2335  0.9525
 9539TIP3   OH250107   0.662   0.788  12.744  0.6699  0.2053 -0.3945
 9539TIP3    H150108   0.730   0.765  12.681 -1.8215 -2.3053 -2.4491
 9539TIP3    H250109   0.644   0.880  12.727  1.3043  0.0441 -2.1562
 9540TIP3   OH250110   2.203   3.848  15.674  0.0520  0.0255  0.2392
 9540TIP3    H150111   2.256   3.926  15.659  2.5895 -1.7362 -0.5876
 9540TIP3    H250112   2.267   3.778  15.686 -2.0749 -2.3533 -1.3461
 9541TIP3   OH250113   0.645   4.374  14.198 -0.9927  0.1307  0.4629
 9541TIP3    H150114   0.600   4.410  14.122  2.2922  0.1422 -1.6881
 9541TIP3    H250115   0.600   4.291  14.215 -0.2623 -1.2207 -3.3122
 9542TIP3   OH250116   0.154   2.018   1.920  0.1278  0.0627 -0.1238
 9542TIP3    H150117   0.195   1.956   1.981  1.1580  1.3016  0.4839
 9542TIP3    H250118   0.175   2.104   1.956  1.2649  0.8746 -2.5113
 9543TIP3   OH250119   1.865   4.694   5.476  0.0448 -0.1908  0.7203
 9543TIP3    H150120   1.919   4.648   5.539  0.3145  1.8000  2.0475
 9543TIP3    H250121   1.927   4.730   5.413  0.1026  0.4211  1.1146
 9544TIP3   OH250122   6.256   4.432   1.083 -0.0841  0.6941  0.5885
 9544TIP3    H150123   6.214   4.480   1.154 -1.0459  1.2964 -0.3709
 9544TIP3    H250124   6.251   4.490   1.007  1.6770  0.4129  0.1997
 9545TIP3   OH250125   3.480   4.888   2.231  0.6604  0.6088  0.1537
 9545TIP3    H150126   3.389   4.905   2.253  0.3169 -0.3378 -0.4666
 9545TIP3    H250127   3.509   4.966   2.184  0.8487  1.8555  2.2236
 9546TIP3   OH250128   5.579   6.259  12.992 -0.3050 -0.1686  0.3344
 9546TIP3    H150129   5.539   6.176  12.965 -1.6167  0.0367  1.4952
 9546TIP3    H250130   5.651   6.273  12.931 -1.5972 -0.9193 -1.4368
 9547TIP3   OH250131   4.415   2.071   3.468 -0.0430 -0.4068 -0.4230
 9547TIP3    H150132   4.429   2.159   3.434 -1.8054 -0.4224 -1.3279
 9547TIP3    H250133   4.372   2.025   3.395 -0.2544 -1.6454  0.4605
 9548TIP3   OH250134   6.394   0.629   1.952 -0.6370 -0.4019 -0.2327
 9548TIP3    H150135   6.400   0.716   1.990  1.3327 -0.6578  0.1426
 9548TIP3    H250136   6.432   0.571   2.018  2.3334 -0.9367 -2.2138
 9549TIP3   OH250137   6.183   2.308   5.472 -0.0745  0.8946  0.7704
 9549TIP3    H150138   6.095   2.338   5.493 -1.0475  0.6485 -2.4447
 9549TIP3    H250139   6.171   2.217   5.445  0.7425  1.4765 -1.7857
 9550TIP3   OH250140   6.078   4.027   2.337  0.0559 -0.6182 -0.2207
 9550TIP3    H150141   6.033   3.993   2.260  0.4153 -2.0914  0.2018
 9550TIP3    H250142   6.164   3.986   2.335  0.5956  0.4471  0.1924
 9551TIP3   OH250143   3.810   1.565  14.777 -0.0997 -0.3613 -0.3468
 9551TIP3    H150144   3.866   1.492  14.753 -0.5564 -0.4213 -1.2691
 9551TIP3    H250145   3.778   1.544  14.865  2.0764  0.1409  0.6216
 9552TIP3   OH250146   2.587   1.503   2.321 -0.3267 -0.0694 -0.2653
 9552TIP3    H150147   2.543   1.423   2.291  1.5236 -1.3086  0.1303
 9552TIP3    H250148   2.623   1.542   2.241  2.6496 -2.1566 -0.1184
 9553TIP3   OH250149   3.406   6.496   1.468 -0.0160  0.4055 -0.6230
 9553TIP3    H150150   3.345   6.551   1.418 -2.7630 -1.0617  0.8917
 9553TIP3    H250151   3.383   6.406   1.442  1.1380 -0.2193  0.4317
 9554TIP3   OH250152   4.780   4.063  14.179 -0.1992 -0.4742 -0.5078
 9554TIP3    H150153   4.712   4.094  14.119 -0.3402  0.9564  0.3671
 9554TIP3    H250154   4.832   4.140  14.200  0.1815 -1.0512  0.7945
 9555TIP3   OH250155   6.606   5.103   1.701 -0.0421 -0.1797  0.6572
 9555TIP3    H150156   6.630   5.011   1.700  1.9872  0.2217 -2.6491
 9555TIP3    H250157   6.680   5.148   1.741  0.4053  0.2185 -0.5568
 9556TIP3   OH250158   4.303   4.606   2.628  0.3345 -0.0699 -0.0326
 9556TIP3    H150159   4.396   4.628   2.628  0.3245  0.3667  2.6753
 9556TIP3    H250160   4.258   4.690   2.638 -0.3295 -0.3457 -0.6031
 9557TIP3   OH250161   2.502   4.954  12.476  0.4112  0.0178  0.0659
 9557TIP3    H150162   2.593   4.943  12.449 -0.0734  0.6623 -1.9834
 9557TIP3    H250163   2.454   4.890  12.423 -0.6083  1.3854 -0.7047
 9558TIP3   OH250164   4.365   0.075   1.018 -0.3569  0.1239  0.3327
 9558TIP3    H150165   4.274   0.073   0.988 -1.0212  0.0434  2.2319
 9558TIP3    H250166   4.383   0.167   1.036 -0.3252  0.0486  0.6993
 9559TIP3   OH250167   4.666   2.775   0.432 -0.0816  0.0348  0.3098
 9559TIP3    H150168   4.682   2.831   0.508  1.4408 -1.3943  1.1156
 9559TIP3    H250169   4.575   2.749   0.440 -0.3882  1.1932  0.7506
 9560TIP3   OH250170   1.323   4.251  10.651  0.3142  0.1695  0.2369
 9560TIP3    H150171   1.371   4.327  10.685  0.8927 -0.0949  0.0189
 9560TIP3    H250172   1.257   4.288  10.592  1.4008  0.4369 -0.8466
 9561TIP3   OH250173   4.506   6.155  12.905  0.3083 -0.7324  0.6592
 9561TIP3    H150174   4.484   6.087  12.842  2.3283  0.2852 -1.2779
 9561TIP3    H250175   4.469   6.235  12.868  0.9149 -0.2227  1.1328
 9562TIP3   OH250176   5.620   4.678   1.950  0.6010 -0.4833  0.6195
 9562TIP3    H150177   5.705   4.703   1.913 -0.1267 -0.0216 -0.8033
 9562TIP3    H250178   5.583   4.759   1.984  0.7537 -0.7044  1.3462
 9563TIP3   OH250179   2.589   3.996  13.950 -0.3821 -0.2214  0.1568
 9563TIP3    H150180   2.506   3.968  13.912  0.3340  1.0143 -2.6230
 9563TIP3    H250181   2.644   3.918  13.948 -0.4768 -0.2793 -1.1750
 9564TIP3   OH250182   1.281   3.934  10.756  0.0086  0.0849 -0.2594
 9564TIP3    H150183   1.370   3.963  10.735  1.4343 -1.8208  2.4988
 9564TIP3    H250184   1.240   4.010  10.797  0.1704  1.1089 -1.9188
 9565TIP3   OH250185   3.148   1.396   5.864 -0.0313  0.3106  0.2854
 9565TIP3    H150186   3.065   1.388   5.910 -0.2128 -0.0452 -0.0942
 9565TIP3    H250187   3.208   1.339   5.913 -0.2072 -0.0172  0.1200
 9566TIP3   OH250188   0.430   3.500  14.553 -0.6222  0.0159  0.4801
 9566TIP3    H150189   0.470   3.500  14.466  2.4390 -1.1688  1.7461
 9566TIP3    H250190   0.391   3.412  14.561  0.1622 -0.3119  0.7364
 9567TIP3   OH250191   5.086   0.703  16.287  0.7941 -0.2984  0.4816
 9567TIP3    H150192   5.022   0.768  16.258  0.9873  0.6072  1.9588
 9567TIP3    H250193   5.140   0.686  16.210 -0.2818  0.0548 -0.3778
 9568TIP3   OH250194   5.122   4.061  11.292  0.0131 -0.4549  0.3356
 9568TIP3    H150195   5.074   3.990  11.248 -1.2060 -0.1493  1.1185
 9568TIP3    H250196   5.213   4.045  11.270 -0.0333 -3.1945  1.7278
 9569TIP3   OH250197   0.711   2.621   1.229 -0.0186 -0.2012 -0.1347
 9569TIP3    H150198   0.668   2.583   1.153  0.7855  1.9510 -1.7855
 9569TIP3    H250199   0.655   2.598   1.303 -0.7544 -2.4957 -1.3173
 9570TIP3   OH250200   6.309   0.491   0.392 -0.2476  0.0340 -0.3418
 9570TIP3    H150201   6.250   0.558   0.425  1.0914  0.2076  1.9202
 9570TIP3    H250202   6.262   0.409   0.403  0.1143  0.0836  2.1773
 9571TIP3   OH250203   3.465   3.933   4.100  0.2684  0.1634  0.1932
 9571TIP3    H150204   3.501   3.985   4.028  0.1200 -0.2479 -0.1886
 9571TIP3    H250205   3.531   3.936   4.168  1.2143 -0.8661 -0.6226
 9572TIP3   OH250206   2.000   3.795   5.940  0.6419 -0.9976  0.0794
 9572TIP3    H150207   1.904   3.786   5.943 -0.0360  3.3233 -1.1137
 9572TIP3    H250208   2.024   3.766   5.852  0.3144 -1.2184  0.0587
 9573TIP3   OH250209   0.385   5.847  11.875 -0.1797 -0.2304  0.2085
 9573TIP3    H150210   0.321   5.913  11.903  0.8317  0.5899  0.6973
 9573TIP3    H250211   0.428   5.887  11.799 -0.8474 -1.1623 -0.6758
 9574TIP3   OH250212   4.966   5.304  12.006  0.4173 -0.2908 -0.7884
 9574TIP3    H150213   4.961   5.270  12.095 -0.0957 -0.5434 -0.9069
 9574TIP3    H250214   4.875   5.301  11.974  0.9167 -2.6322 -2.2210
 9575TIP3   OH250215   5.521   0.720   5.695 -0.0711  0.1400  1.0147
 9575TIP3    H150216   5.610   0.751   5.675  0.9908 -0.6755  3.9562
 9575TIP3    H250217   5.528   0.625   5.698 -1.5426 -0.0659 -0.5031
 9576TIP3   OH250218   2.122   6.653   1.461  0.3529  0.2103  0.0242
 9576TIP3    H150219   2.115   6.563   1.493  0.5697  0.3853  0.5755
 9576TIP3    H250220   2.210   6.681   1.487  0.4128  0.4718 -0.4399
 9577TIP3   OH250221   2.901   3.370   0.881  0.1262 -0.0425  0.3812
 9577TIP3    H150222   2.963   3.442   0.896 -0.2053  0.2457  0.3828
 9577TIP3    H250223   2.944   3.315   0.815 -0.6106  1.4032 -1.3910
 9578TIP3   OH250224   1.886   2.771   3.455  0.3848  0.0366 -0.0939
 9578TIP3    H150225   1.878   2.693   3.400  2.6792 -0.1434 -0.2947
 9578TIP3    H250226   1.809   2.824   3.433 -0.2102 -1.2919 -1.4035
 9579TIP3   OH250227   1.293   4.231   5.538 -0.5452  0.5030 -0.5261
 9579TIP3    H150228   1.207   4.237   5.497  0.3142  0.4613 -2.4034
 9579TIP3    H250229   1.354   4.260   5.471  1.0049 -0.2919  0.4836
 9580TIP3   OH250230   1.348   5.342   1.808 -0.8029  0.5517  0.4016
 9580TIP3    H150231   1.344   5.388   1.724  0.1169 -0.7780 -0.4089
 9580TIP3    H250232   1.437   5.306   1.812 -0.6659  1.0026  2.1900
 9581TIP3   OH250233   6.812   3.553   0.894  0.3794  0.7936  0.1339
 9581TIP3    H150234   6.896   3.580   0.856  0.3586  1.0706  0.2856
 9581TIP3    H250235   6.823   3.460   0.911  0.6785  0.8409  0.2060
 9582TIP3   OH250236   4.790   5.738  12.866 -0.2863  0.0998 -0.2950
 9582TIP3    H150237   4.746   5.779  12.792 -0.3153  1.4768  0.4544
 9582TIP3    H250238   4.872   5.703  12.829 -1.3284 -1.2820 -1.4069
 9583TIP3   OH250239   4.019   3.845   1.932 -0.4228  1.1695 -0.1035
 9583TIP3    H150240   3.974   3.815   1.853 -0.3636 -1.3922  0.7151
 9583TIP3    H250241   3.949   3.858   1.996 -0.2494 -0.4305  0.4588
 9584TIP3   OH250242   1.708   5.211  12.182 -0.1026 -0.1894 -0.0537
 9584TIP3    H150243   1.781   5.171  12.135 -0.4083 -0.3857 -0.3739
 9584TIP3    H250244   1.631   5.186  12.131 -0.5805 -1.4226  1.1920
 9585TIP3   OH250245   0.323   0.593   4.450 -0.0832 -0.6827 -0.5674
 9585TIP3    H150246   0.292   0.505   4.430  0.3875 -0.9538 -0.1140
 9585TIP3    H250247   0.291   0.611   4.538 -2.7282  0.7753 -1.7048
 9586TIP3   OH250248   0.078   6.010   1.415 -0.0536 -0.4559  0.2999
 9586TIP3    H150249   0.130   5.931   1.402 -0.9163 -0.9728 -0.0825
 9586TIP3    H250250  -0.004   5.993   1.369 -1.0714 -0.1682  1.9122
 9587TIP3   OH250251   3.932   6.539  11.790 -0.4679 -0.3242 -0.3626
 9587TIP3    H150252   3.900   6.626  11.816  1.1285  0.1795  0.0213
 9587TIP3    H250253   3.955   6.496  11.872  0.3143 -0.4642 -0.6496
 9588TIP3   OH250254   6.471   0.902   0.988  0.1669 -0.3361 -0.4561
 9588TIP3    H150255   6.444   0.993   0.978  1.6400  0.1651 -0.0095
 9588TIP3    H250256   6.398   0.852   0.949 -0.2363  1.0398 -1.5814
 9589TIP3   OH250257   2.258   1.268   3.833 -0.8530 -0.1276 -0.0327
 9589TIP3    H150258   2.183   1.288   3.777 -1.6959  1.0039  1.4068
 9589TIP3    H250259   2.294   1.354   3.856  0.0577 -0.6040  0.3869
 9590TIP3   OH250260   0.206   0.270  12.585 -0.6673 -0.1586 -0.5628
 9590TIP3    H150261   0.202   0.361  12.557  0.4283  0.2652  0.5734
 9590TIP3    H250262   0.212   0.274  12.681  0.2045 -1.3857 -0.5405
 9591TIP3   OH250263   3.436   3.880  15.206 -0.0934  0.5105  0.0486
 9591TIP3    H150264   3.422   3.914  15.294 -3.6312  0.3693 -0.3040
 9591TIP3    H250265   3.400   3.948  15.148  1.8007  0.4274 -1.3170
 9592TIP3   OH250266   0.985   4.226  11.366  0.0618 -0.0968 -0.3449
 9592TIP3    H150267   1.064   4.248  11.318 -0.7441  0.2406 -1.5632
 9592TIP3    H250268   0.945   4.155  11.317  0.4975 -1.5276  1.2640
 9593TIP3   OH250269   4.220   5.037   5.561 -0.0885  0.0662  0.0814
 9593TIP3    H150270   4.231   5.078   5.646 -1.1960 -0.0460  0.2945
 9593TIP3    H250271   4.283   4.964   5.561  0.3422  0.4352  0.5561
 9594TIP3   OH250272   1.660   6.171   0.789  0.2491  0.5645  0.0118
 9594TIP3    H150273   1.583   6.139   0.836 -0.5676  1.7393 -0.4779
 9594TIP3    H250274   1.714   6.093   0.775 -1.5419 -0.5784 -0.9521
 9595TIP3   OH250275   0.320   2.754   4.420  0.2693 -0.1534 -0.7824
 9595TIP3    H150276   0.306   2.829   4.363  0.2410 -0.6107 -1.3821
 9595TIP3    H250277   0.255   2.689   4.392  1.4932 -1.1102 -1.5164
 9596TIP3   OH250278   3.698   3.894   4.732  1.1851  0.4292  0.3485
 9596TIP3    H150279   3.643   3.919   4.658  0.3157  0.9279  1.1473
 9596TIP3    H250280   3.774   3.851   4.691  0.3945  0.0520 -0.7858
 9597TIP3   OH250281   6.333   4.029   3.024  0.6045  0.2564 -0.3154
 9597TIP3    H150282   6.248   4.072   3.013  1.0720  1.4911  0.7342
 9597TIP3    H250283   6.389   4.069   2.958  0.9897  1.1470  0.5382
 9598TIP3   OH250284   0.614   6.262  16.319 -0.4022  0.3532 -0.6394
 9598TIP3    H150285   0.669   6.186  16.297  0.4270  0.5070  0.7525
 9598TIP3    H250286   0.674   6.323  16.362 -1.3452  1.2408 -0.5416
 9599TIP3   OH250287   2.946   1.000   0.779  0.3433 -0.5456  0.9507
 9599TIP3    H150288   2.976   1.025   0.866  1.6610 -1.5136  0.8187
 9599TIP3    H250289   2.910   1.080   0.741  3.6250  1.0229  0.8233
 9600TIP3   OH250290   0.567   5.763  12.269 -0.1583 -0.0033 -0.4485
 9600TIP3    H150291   0.584   5.678  12.228 -2.2040 -1.1510  0.8656
 9600TIP3    H250292   0.476   5.782  12.247 -0.6302  0.4034  1.6456
 9601TIP3   OH250293   2.621   2.643   3.429  0.1754  0.9418  0.4653
 9601TIP3    H150294   2.544   2.620   3.376 -0.2113  2.1385  0.4750
 9601TIP3    H250295   2.591   2.633   3.519 -0.0362  1.5697  0.4713
 9602TIP3   OH250296   3.043   2.753   1.090  0.3939 -0.0774 -0.3161
 9602TIP3    H150297   3.125   2.758   1.041  0.6541  0.1082  0.1285
 9602TIP3    H250298   2.981   2.805   1.039  0.6482  0.0719 -0.4727
 9603TIP3   OH250299   2.551   3.600   5.834  0.0213  0.3726  0.7124
 9603TIP3    H150300   2.597   3.632   5.911 -0.7668  1.8713  0.5979
 9603TIP3    H250301   2.583   3.656   5.762 -1.4278  0.9871  0.5141
 9604TIP3   OH250302   0.399   0.789   1.312  0.0552  0.0351  0.7601
 9604TIP3    H150303   0.456   0.728   1.358  0.6605  0.0967  0.1058
 9604TIP3    H250304   0.432   0.790   1.222 -1.4488 -0.5096  0.1670
 9605TIP3   OH250305   3.392   0.337  17.201  0.6182 -0.0095 -0.1316
 9605TIP3    H150306   3.360   0.255  17.238 -0.4563  1.0789  1.4819
 9605TIP3    H250307   3.319   0.398  17.213  1.1942  1.0698 -1.7794
 9606TIP3   OH250308   0.447   3.124   3.205  0.0662  0.1587 -0.9313
 9606TIP3    H150309   0.374   3.104   3.264  1.0170 -2.7579 -0.5624
 9606TIP3    H250310   0.524   3.128   3.263  0.5347  0.9181 -1.5807
 9607TIP3   OH250311   3.088   1.388  16.802  0.3278  0.0563 -0.0813
 9607TIP3    H150312   2.999   1.383  16.765  0.5295  0.9641 -0.7316
 9607TIP3    H250313   3.132   1.456  16.749  1.7724 -1.1798 -0.5324
 9608TIP3   OH250314   0.925   3.336  11.143  0.6624  0.0746  0.0302
 9608TIP3    H150315   0.840   3.316  11.104  1.0970 -1.8473  0.0034
 9608TIP3    H250316   0.964   3.400  11.082 -1.1437  1.8403  0.6109
 9609TIP3   OH250317   4.259   5.716  16.546  0.2414  0.2713  0.4012
 9609TIP3    H150318   4.231   5.686  16.460 -0.0470 -1.6186  1.1118
 9609TIP3    H250319   4.338   5.767  16.528  0.4687 -0.4935 -0.9490
 9610TIP3   OH250320   2.916   4.807   2.625  0.2319  0.3461 -0.0930
 9610TIP3    H150321   2.935   4.799   2.719 -0.5009 -0.7835 -0.0145
 9610TIP3    H250322   2.958   4.888   2.599  3.7462 -1.1711  0.3734
 9611TIP3   OH250323   3.049   6.294  13.254 -0.2164  0.3164 -0.2311
 9611TIP3    H150324   3.121   6.354  13.236  0.7529 -1.5238 -3.0064
 9611TIP3    H250325   3.088   6.207  13.254 -2.1066 -0.6053  0.3811
 9612TIP3   OH250326   4.720   2.050  14.071  0.4323 -0.0283  0.4088
 9612TIP3    H150327   4.727   1.956  14.090 -0.5564 -0.0559  0.7138
 9612TIP3    H250328   4.675   2.054  13.987 -1.7820  0.1636  1.5218
 9613TIP3   OH250329   4.023   1.024  17.139  0.1738  0.5261  0.3104
 9613TIP3    H150330   3.990   0.938  17.113  0.4055  0.9419 -1.5442
 9613TIP3    H250331   4.111   1.007  17.171 -0.4596 -0.1332  1.7947
 9614TIP3   OH250332   1.125   3.647  16.551  0.2095 -0.4701  0.1633
 9614TIP3    H150333   1.165   3.720  16.502 -0.6562 -0.5045 -0.6153
 9614TIP3    H250334   1.198   3.609  16.599  1.0355 -0.2163 -0.8433
 9615TIP3   OH250335   1.480   2.432   0.497  0.4709  0.1193 -0.0292
 9615TIP3    H150336   1.404   2.471   0.540  0.3584 -0.3872  0.2482
 9615TIP3    H250337   1.447   2.399   0.414  0.9073  2.0259 -1.0183
 9616TIP3   OH250338   0.508   3.883  15.292  0.0402 -0.1630  0.4960
 9616TIP3    H150339   0.501   3.890  15.197  1.3849 -0.9465  0.3218
 9616TIP3    H250340   0.526   3.972  15.322 -1.8235  0.3558  0.1864
 9617TIP3   OH250341   1.415   2.012   1.589  0.0873 -0.1860  0.0632
 9617TIP3    H150342   1.359   2.018   1.666 -0.4619 -0.9686 -0.2546
 9617TIP3    H250343   1.498   2.051   1.616 -0.3514  0.2687  0.7921
 9618TIP3   OH250344   4.009   4.276   0.552 -0.3976 -0.7409 -0.1887
 9618TIP3    H150345   4.001   4.369   0.527 -0.4409 -0.6311  0.2284
 9618TIP3    H250346   4.091   4.271   0.600 -1.1513 -0.5961  1.1774
 9619TIP3   OH250347   1.364   4.983  17.180 -0.2565 -0.2904 -0.1845
 9619TIP3    H150348   1.454   5.012  17.165  0.1339 -1.8829 -1.1946
 9619TIP3    H250349   1.362   4.893  17.146 -2.7563  0.3807 -2.1156
 9620TIP3   OH250350   1.093   1.056  16.996  0.1069  0.0376  0.6148
 9620TIP3    H150351   1.058   1.004  16.924  0.4485 -0.4110  0.7723
 9620TIP3    H250352   1.096   0.996  17.070  0.6396  0.2404  0.7613
 9621TIP3   OH250353   2.923   2.953  14.277  0.6270 -0.7306 -0.0198
 9621TIP3    H150354   2.842   2.906  14.298  0.7287 -0.4061  1.1717
 9621TIP3    H250355   2.913   3.038  14.321  1.0965 -0.2158 -0.8802
 9622TIP3   OH250356   1.685   3.051   1.380 -0.4769  0.3154  0.1216
 9622TIP3    H150357   1.670   3.057   1.475 -0.8187 -0.8779  0.1591
 9622TIP3    H250358   1.609   3.094   1.341 -0.8256 -0.0582  0.3826
 9623TIP3   OH250359   3.478   1.082   1.604  0.3339 -0.6598  0.5452
 9623TIP3    H150360   3.566   1.113   1.626  0.3012 -0.0161 -0.2029
 9623TIP3    H250361   3.492   1.019   1.533  0.0643  0.8883 -0.9511
 9624TIP3   OH250362   5.407   4.619  14.654  0.4477  0.1405 -0.3400
 9624TIP3    H150363   5.450   4.534  14.645 -0.3234 -0.2310 -0.6052
 9624TIP3    H250364   5.318   4.605  14.621 -0.3682  0.4975  1.6025
 9625TIP3   OH250365   4.200   1.913   3.320  0.0482 -0.2074  0.0854
 9625TIP3    H150366   4.263   1.848   3.287  1.1914  0.7229  0.3816
 9625TIP3    H250367   4.178   1.965   3.244 -0.5733 -0.6859 -0.0706
 9626TIP3   OH250368   6.684   2.048   3.455 -0.8664 -0.5304 -0.4111
 9626TIP3    H150369   6.614   1.992   3.421  0.2280 -1.4864 -1.1516
 9626TIP3    H250370   6.754   2.040   3.390  0.0804  0.1059  0.5112
 9627TIP3   OH250371   0.362   4.203   4.564  0.6212 -0.8810 -0.3276
 9627TIP3    H150372   0.308   4.266   4.612  1.0670 -1.5663  1.1484
 9627TIP3    H250373   0.452   4.230   4.582  0.8007 -1.2292 -0.6818
 9628TIP3   OH250374   2.081   2.921  15.619 -0.5603  0.2044  0.0438
 9628TIP3    H150375   2.112   3.010  15.602  1.3348 -0.3497  0.2975
 9628TIP3    H250376   2.018   2.903  15.550  3.2405 -0.2497 -3.6574
 9629TIP3   OH250377   1.912   4.311   0.043  0.0391  0.1681  0.7814
 9629TIP3    H150378   1.958   4.343  -0.034 -0.8616 -0.1954  0.0663
 9629TIP3    H250379   1.940   4.221   0.053  1.0984  0.5808  1.6324
 9630TIP3   OH250380   4.933   4.913  15.020  0.1744 -0.4551  0.1881
 9630TIP3    H150381   5.004   4.852  15.000  0.1608 -0.9556  1.5876
 9630TIP3    H250382   4.853   4.862  15.009  0.0999 -0.3096  0.0499
 9631TIP3   OH250383   2.142   0.078  16.697 -0.0895 -0.2343  0.0513
 9631TIP3    H150384   2.072   0.021  16.667 -0.6352  0.2655  0.3436
 9631TIP3    H250385   2.152   0.143  16.628 -0.0238 -0.2149  0.0788
 9632TIP3   OH250386   0.806   1.567  10.422  0.0150  0.4214  0.3905
 9632TIP3    H150387   0.727   1.593  10.374 -0.6572 -0.4688  0.9796
 9632TIP3    H250388   0.840   1.649  10.458 -1.0193  0.7485  0.6710
 9633TIP3   OH250389   0.091   4.031  12.617 -0.4614  0.0413  0.2850
 9633TIP3    H150390   0.101   3.951  12.565  0.2722 -0.1195  0.6649
 9633TIP3    H250391   0.073   4.000  12.706 -0.9889  0.3114  0.2789
 9634TIP3   OH250392   0.266   5.267   1.684  0.0923  0.9439  0.0296
 9634TIP3    H150393   0.314   5.350   1.677  0.6685  0.5628 -0.7672
 9634TIP3    H250394   0.324   5.210   1.735  0.3648  0.5820 -0.6663
 9635TIP3   OH250395   1.352   5.637   0.607  0.4485  0.1404  0.2204
 9635TIP3    H150396   1.333   5.625   0.700  1.7322  0.7536  0.5745
 9635TIP3    H250397   1.271   5.675   0.571 -0.2454 -0.5994  0.9581
 9636TIP3   OH250398   0.310   1.324   5.856  0.2803 -0.4981 -0.2438
 9636TIP3    H150399   0.223   1.320   5.895  0.5504 -3.5240  0.2962
 9636TIP3    H250400   0.369   1.296   5.925  1.5081 -0.0649 -1.0800
 9637TIP3   OH250401   2.685   4.798   1.771 -0.0962 -0.0605 -0.2930
 9637TIP3    H150402   2.684   4.893   1.780  0.6702  0.1108 -1.6771
 9637TIP3    H250403   2.747   4.768   1.838 -0.2086  0.4260  0.0342
 9638TIP3   OH250404   3.736   1.849   2.516  0.5220 -0.2837 -0.5270
 9638TIP3    H150405   3.648   1.886   2.523  0.2857 -1.0949  1.2049
 9638TIP3    H250406   3.728   1.782   2.448 -0.3414 -0.7166 -0.0156
 9639TIP3   OH250407   6.518   2.082  11.036  0.2137  0.5959  0.0857
 9639TIP3    H150408   6.516   2.076  10.940  0.3664  0.4553  0.0917
 9639TIP3    H250409   6.532   1.992  11.065  1.8685  0.8617  0.1925
 9640TIP3   OH250410   6.123   6.282  15.707  0.1808 -0.0653 -0.1073
 9640TIP3    H150411   6.135   6.286  15.802  1.4921  0.8600 -0.2878
 9640TIP3    H250412   6.163   6.362  15.674  0.2849 -0.6541 -1.4952
 9641TIP3   OH250413   0.041   0.827  14.622 -0.2018  0.3559 -0.2328
 9641TIP3    H150414   0.010   0.742  14.653 -0.5309  0.5249 -0.0974
 9641TIP3    H250415   0.135   0.827  14.641 -0.1000 -0.1798 -0.7013
 9642TIP3   OH250416   0.984   1.545   3.668  0.0876  0.0725 -0.8104
 9642TIP3    H150417   1.060   1.574   3.617  0.8434  0.6703  0.6165
 9642TIP3    H250418   1.011   1.553   3.759 -1.1573 -1.2009 -0.2863
 9643TIP3   OH250419   1.694   0.334  12.821 -0.3191 -0.0412  0.3389
 9643TIP3    H150420   1.662   0.392  12.889  0.0323 -1.6077  1.9168
 9643TIP3    H250421   1.789   0.348  12.820 -0.5732  2.1170 -1.9583
 9644TIP3   OH250422   0.031   6.492  14.217 -0.2863 -0.1742 -0.4010
 9644TIP3    H150423  -0.027   6.545  14.164 -1.0102 -1.7638 -1.2638
 9644TIP3    H250424  -0.008   6.405  14.216 -0.1527 -0.3794  2.4769
 9645TIP3   OH250425   6.044   0.269  15.846 -0.5916 -0.7847  0.4328
 9645TIP3    H150426   6.049   0.218  15.765 -1.6049 -1.7361  0.9389
 9645TIP3    H250427   5.969   0.327  15.833  1.6996  2.1264 -0.9332
 9646TIP3   OH250428   3.385   0.893  12.073 -0.5935  0.1422 -0.1559
 9646TIP3    H150429   3.431   0.934  11.999 -0.8392  0.6287 -0.0462
 9646TIP3    H250430   3.396   0.956  12.145 -0.1443 -0.4452  0.2962
 9647TIP3   OH250431   2.891   5.708   5.158 -0.0493 -0.1170 -0.0556
 9647TIP3    H150432   2.891   5.764   5.236 -1.5738  1.5271 -1.1746
 9647TIP3    H250433   2.955   5.750   5.099 -0.2779 -0.2726 -0.4145
 9648TIP3   OH250434   0.408   0.638   6.089  0.1824 -0.3168  0.1703
 9648TIP3    H150435   0.418   0.720   6.138  0.2429 -1.2162  1.7381
 9648TIP3    H250436   0.341   0.657   6.024  0.6079  1.1422  0.1190
 9649TIP3   OH250437   5.355   6.107   0.701  0.2789 -0.4526  0.1642
 9649TIP3    H150438   5.349   6.198   0.673 -0.6420 -0.1920  1.0980
 9649TIP3    H250439   5.445   6.081   0.682  1.1920  1.2995  1.7491
 9650TIP3   OH250440   3.100   0.765   6.973  0.3381  0.2468 -0.0530
 9650TIP3    H150441   3.143   0.734   6.893  0.5139 -2.1112  0.8838
 9650TIP3    H250442   3.116   0.696   7.037  0.0558  1.9854  2.0119
 9651TIP3   OH250443   1.315   2.371   1.718  0.3192  0.3201 -0.6409
 9651TIP3    H150444   1.286   2.447   1.768  0.1056  0.4545 -0.9656
 9651TIP3    H250445   1.373   2.324   1.778  0.7201  0.9147 -0.5498
 9652TIP3   OH250446   3.909   6.100   2.860 -0.8022 -0.0285 -0.4044
 9652TIP3    H150447   3.944   6.065   2.778  0.2980 -0.4142  0.2171
 9652TIP3    H250448   3.925   6.195   2.854  2.3847 -0.3669  0.7334
 9653TIP3   OH250449   6.323   6.261  12.553  0.1841  0.1212 -0.2165
 9653TIP3    H150450   6.305   6.321  12.625  0.4034  2.2616 -1.8469
 9653TIP3    H250451   6.241   6.259  12.503 -0.2505 -2.0106  0.4675
 9654TIP3   OH250452   0.490   2.552  10.871 -0.8925  0.0586  0.1272
 9654TIP3    H150453   0.442   2.515  10.796 -1.3349 -2.0568  1.3935
 9654TIP3    H250454   0.567   2.496  10.881 -0.0342  1.2354  0.3714
 9655TIP3   OH250455   0.169   3.857   0.153 -0.2852 -0.5201 -0.3350
 9655TIP3    H150456   0.131   3.923   0.095 -1.4693 -0.2420  0.7176
 9655TIP3    H250457   0.254   3.894   0.180 -1.2478  0.9657  0.8404
 9656TIP3   OH250458   2.874   5.986  11.768  0.3061 -0.3700 -0.0062
 9656TIP3    H150459   2.877   5.935  11.850 -1.3127 -1.2540 -0.4508
 9656TIP3    H250460   2.905   6.073  11.793  1.2434 -1.0183  1.2259
 9657TIP3   OH250461   1.848   3.859   5.480  0.0982 -0.2166  0.0629
 9657TIP3    H150462   1.800   3.806   5.416 -0.3009 -0.5932  0.6658
 9657TIP3    H250463   1.919   3.801   5.510  0.1971 -0.0903  0.0746
 9658TIP3   OH250464   0.253   5.845  17.072 -0.5485 -0.2638  0.0193
 9658TIP3    H150465   0.348   5.856  17.073 -0.7459  2.1721 -1.1863
 9658TIP3    H250466   0.226   5.857  17.163  0.2148 -0.1277  0.2310
 9659TIP3   OH250467   1.274   6.135  11.712  0.1866 -0.0743  0.0809
 9659TIP3    H150468   1.221   6.101  11.640 -0.5661  0.2726  0.4612
 9659TIP3    H250469   1.364   6.129  11.680 -0.1051 -0.2940 -0.7298
 9660TIP3   OH250470   4.475   2.994   2.308  0.2574 -0.2664  0.6579
 9660TIP3    H150471   4.401   2.934   2.316 -0.7650  0.7737 -0.5567
 9660TIP3    H250472   4.527   2.960   2.235 -0.6188  0.5726 -0.3941
 9661TIP3   OH250473   1.309   0.271   2.281 -0.1006 -0.3062 -0.2855
 9661TIP3    H150474   1.318   0.281   2.376 -0.7572  1.4053 -0.3650
 9661TIP3    H250475   1.295   0.177   2.268 -0.0963 -0.5565  1.3143
 9662TIP3   OH250476   0.452   4.267  16.460 -0.3944  0.1966  0.6424
 9662TIP3    H150477   0.500   4.194  16.422  0.6792  0.7751  0.8397
 9662TIP3    H250478   0.403   4.229  16.533  1.2195 -0.1236  1.6161
 9663TIP3   OH250479   5.158   1.807   3.737 -0.0870  0.0876 -0.4301
 9663TIP3    H150480   5.065   1.785   3.735  0.4879 -2.8317  0.8404
 9663TIP3    H250481   5.203   1.724   3.756  2.8504  1.2378 -1.6831
 9664TIP3   OH250482   5.675   2.095  12.103 -0.1529  0.5161 -0.3768
 9664TIP3    H150483   5.589   2.055  12.086 -1.2459  1.5198  2.1786
 9664TIP3    H250484   5.731   2.021  12.127 -0.7921 -0.0008 -0.4437
 9665TIP3   OH250485   5.158   0.894  10.822  0.5482 -0.0078 -0.7567
 9665TIP3    H150486   5.148   0.986  10.796 -0.3634 -0.4491 -2.0434
 9665TIP3    H250487   5.253   0.880  10.821  0.6589  0.6825 -1.4284
 9666TIP3   OH250488   3.486   2.763   2.341  0.0457 -0.2888  0.0761
 9666TIP3    H150489   3.408   2.757   2.286 -0.6812 -0.9057  1.1344
 9666TIP3    H250490   3.510   2.672   2.359 -0.9355 -0.1697  2.3859
 9667TIP3   OH250491   2.928   5.688   3.869  0.6776 -0.0858  0.4701
 9667TIP3    H150492   2.939   5.731   3.954  0.1563  0.9179  0.0497
 9667TIP3    H250493   2.971   5.603   3.879  1.8952  0.5849  1.2917
 9668TIP3   OH250494   0.938   3.732   3.745 -0.1090 -0.1688  0.7479
 9668TIP3    H150495   1.000   3.708   3.676 -1.3436  0.5313 -0.6711
 9668TIP3    H250496   0.932   3.654   3.799  0.5693 -0.9054 -0.1868
 9669TIP3   OH250497   6.303   1.909  15.247 -0.3928 -0.2055 -0.8011
 9669TIP3    H150498   6.259   1.887  15.330  0.8277 -1.6461 -0.4926
 9669TIP3    H250499   6.394   1.883  15.261 -0.1482 -0.3859 -2.5774
 9670TIP3   OH250500   3.558   1.280   2.410 -0.0961  0.6607  0.1005
 9670TIP3    H150501   3.577   1.348   2.475 -0.5331 -1.0896  2.1655
 9670TIP3    H250502   3.481   1.312   2.363 -1.9993  0.4366  2.8862
 9671TIP3   OH250503   4.845   4.792  12.399 -0.5225 -0.0706 -0.2007
 9671TIP3    H150504   4.764   4.768  12.444 -2.1490  2.8749 -1.2815
 9671TIP3    H250505   4.884   4.859  12.455  0.2359 -0.1761 -0.5945
 9672TIP3   OH250506   5.817   3.504   4.471  0.5860  0.3447  0.2323
 9672TIP3    H150507   5.824   3.410   4.483  0.5383  0.4556  1.2315
 9672TIP3    H250508   5.731   3.527   4.508  0.7434  0.8244  0.3147
 9673TIP3   OH250509   2.144   6.148   3.475 -0.1690 -0.0684 -0.1972
 9673TIP3    H150510   2.132   6.197   3.394  0.0454 -2.1895 -1.5597
 9673TIP3    H250511   2.233   6.167   3.502 -0.3407  0.8918 -0.2545
 9674TIP3   OH250512   2.320   4.920  13.150  0.1409 -0.6285 -0.1808
 9674TIP3    H150513   2.335   4.981  13.223 -0.0171  1.1792 -1.5832
 9674TIP3    H250514   2.351   4.836  13.183  0.9779  0.3179  1.6362
 9675TIP3   OH250515   6.130   0.504  11.739 -1.3072 -0.2556 -0.0313
 9675TIP3    H150516   6.070   0.571  11.709  0.1364  0.9847 -0.2356
 9675TIP3    H250517   6.199   0.502  11.674 -0.2152 -0.3899  1.0950
 9676TIP3   OH250518   5.598   5.919   1.729 -0.0321  0.4137  0.4643
 9676TIP3    H150519   5.686   5.956   1.715 -0.3867  0.7731 -0.9795
 9676TIP3    H250520   5.546   5.954   1.658 -1.1002 -0.6535  0.6882
 9677TIP3   OH250521   1.132   6.769   0.751  0.6301  0.1013 -0.1140
 9677TIP3    H150522   1.174   6.770   0.665  2.0704  0.5267  0.5617
 9677TIP3    H250523   1.184   6.831   0.803  0.1619 -0.6101  1.2278
 9678TIP3   OH250524   6.038   6.598  14.749 -0.6837  0.0345 -0.0827
 9678TIP3    H150525   6.118   6.647  14.731 -1.0577  0.3881 -0.8781
 9678TIP3    H250526   6.065   6.525  14.803  0.0078  0.7400  0.5467
 9679TIP3   OH250527   3.497   3.947   3.631 -0.4221 -0.8605 -0.5883
 9679TIP3    H150528   3.510   3.963   3.725  0.0548 -0.1919 -0.7594
 9679TIP3    H250529   3.426   3.884   3.627 -1.0478 -0.2258  0.2001
 9680TIP3   OH250530   5.533   1.322   2.167  0.6215 -0.3578 -0.2584
 9680TIP3    H150531   5.610   1.374   2.193 -0.9223  1.7922  0.3290
 9680TIP3    H250532   5.526   1.254   2.233  1.1235  0.4246  0.6279
 9681TIP3   OH250533   2.681   1.386  15.331  0.1229 -0.3165  0.0721
 9681TIP3    H150534   2.634   1.326  15.273  1.4474 -1.3057 -0.0408
 9681TIP3    H250535   2.711   1.330  15.403 -1.2918  0.8379  1.6160
 9682TIP3   OH250536   1.926   0.918  12.423  0.3799  0.0941 -0.1674
 9682TIP3    H150537   1.983   0.934  12.348 -0.3079 -1.3966 -1.0640
 9682TIP3    H250538   1.843   0.889  12.384  0.0020 -0.7152  1.1663
 9683TIP3   OH250539   6.288   4.105   5.570 -0.2244  0.8466 -0.5270
 9683TIP3    H150540   6.279   4.188   5.617 -0.9839  1.0180 -0.9528
 9683TIP3    H250541   6.262   4.125   5.480  0.9622  0.4598 -0.9760
 9684TIP3   OH250542   4.017   0.182   3.378  0.5902 -0.7386 -0.0235
 9684TIP3    H150543   3.925   0.185   3.353  0.2379  4.5050  0.7399
 9684TIP3    H250544   4.015   0.166   3.472  0.3878 -0.1942  0.0694
 9685TIP3   OH250545   4.478   5.885  11.154  0.3357 -0.4615 -0.3173
 9685TIP3    H150546   4.422   5.848  11.087 -0.1743  0.7878 -0.6103
 9685TIP3    H250547   4.540   5.815  11.176  0.3674 -0.9577 -1.9143
 9686TIP3   OH250548   4.554   5.962   1.806 -0.3607 -0.2074  0.8958
 9686TIP3    H150549   4.502   5.917   1.739  1.5436  0.6966 -1.3567
 9686TIP3    H250550   4.490   5.994   1.869 -3.0344  2.9009 -2.8469
 9687TIP3   OH250551   5.784   5.833   2.634  0.6888 -0.1108 -0.7650
 9687TIP3    H150552   5.724   5.760   2.648  0.9426 -0.0088  1.2446
 9687TIP3    H250553   5.746   5.905   2.684  1.8912  0.2808 -0.3733
 9688TIP3   OH250554   3.185   5.769  13.296 -0.3893  0.0645 -0.2449
 9688TIP3    H150555   3.158   5.822  13.370  0.5740  2.1378 -1.2893
 9688TIP3    H250556   3.117   5.784  13.230  0.8473  1.6847 -1.2459
 9689TIP3   OH250557   4.964   3.623  14.390 -0.3935 -0.1018 -0.1823
 9689TIP3    H150558   5.041   3.652  14.341 -0.8247 -1.3488 -1.6616
 9689TIP3    H250559   4.895   3.684  14.365 -0.1622  0.3750  0.3235
 9690TIP3   OH250560   6.597   4.295  15.304  0.0341 -0.0254 -0.7903
 9690TIP3    H150561   6.505   4.267  15.298 -0.0553 -0.5670  1.7352
 9690TIP3    H250562   6.593   4.383  15.340  0.5065 -0.1979 -0.3103
 9691TIP3   OH250563   0.021   2.307  10.343 -0.5698  0.0267  0.0203
 9691TIP3    H150564  -0.010   2.388  10.302 -0.0643 -0.7989 -2.1329
 9691TIP3    H250565   0.114   2.320  10.355 -0.1639 -0.7514 -1.8387
 9692TIP3   OH250566   3.195   6.077  13.251 -0.5075  0.2479  0.4498
 9692TIP3    H150567   3.176   5.983  13.259 -0.6931  0.2086 -0.4035
 9692TIP3    H250568   3.269   6.081  13.190 -1.2953  0.7266 -0.4948
 9693TIP3   OH250569   4.944   2.729   1.569  0.3484 -0.8009  0.3037
 9693TIP3    H150570   4.866   2.768   1.530  0.4029 -1.3190 -0.3463
 9693TIP3    H250571   4.939   2.636   1.546 -0.0318 -1.2990  2.2463
 9694TIP3   OH250572   2.640   2.039   2.901 -0.0137 -0.0156  0.3523
 9694TIP3    H150573   2.698   2.019   2.827  0.2505 -3.5681  1.3421
 9694TIP3    H250574   2.557   2.062   2.860  0.7534  0.3664 -1.0518
 9695TIP3   OH250575   2.331   2.043   5.488 -0.1444  0.1479 -0.5113
 9695TIP3    H150576   2.255   2.098   5.508 -1.9316 -1.8403 -1.4486
 9695TIP3    H250577   2.299   1.954   5.495  1.6641 -0.7629 -2.5412
 9696TIP3   OH250578   1.284   6.122   1.579 -0.2447  0.9486  0.3621
 9696TIP3    H150579   1.271   6.098   1.487 -2.2689 -0.8939  1.0357
 9696TIP3    H250580   1.275   6.217   1.580 -1.4164  0.9013 -1.1938
 9697TIP3   OH250581   1.164   5.116  11.772  0.8723 -0.1416  0.2021
 9697TIP3    H150582   1.151   5.208  11.792  0.6452 -0.2617  0.6212
 9697TIP3    H250583   1.164   5.111  11.676 -0.6659  0.0650  0.1743
 9698TIP3   OH250584   2.196   1.211  12.287  0.3900  0.5880  0.3680
 9698TIP3    H150585   2.274   1.234  12.237 -0.0271 -0.8347 -1.0274
 9698TIP3    H250586   2.180   1.286  12.344  1.8570  1.5525 -0.4445
 9699TIP3   OH250587   5.174   3.427  12.184  0.1456 -0.0166  0.5845
 9699TIP3    H150588   5.168   3.378  12.266 -0.9601 -0.5512  0.1977
 9699TIP3    H250589   5.267   3.419  12.159  0.4172 -0.1354  1.6019
 9700TIP3   OH250590   2.615   1.968  16.528  0.5569 -0.1722 -0.0791
 9700TIP3    H150591   2.532   2.007  16.554 -0.3454 -0.7031 -1.9583
 9700TIP3    H250592   2.626   1.994  16.437  1.8088 -1.1913 -0.2477
 9701TIP3   OH250593   2.318   3.779   0.631 -0.5665  0.1563 -0.0002
 9701TIP3    H150594   2.329   3.709   0.567 -0.6102 -1.4406  1.6616
 9701TIP3    H250595   2.406   3.797   0.663 -0.3914  1.7121 -1.1845
 9702TIP3   OH250596   6.662   5.433  12.060  0.5894  0.5449 -0.0038
 9702TIP3    H150597   6.569   5.452  12.067  0.9278  1.9340  1.1771
 9702TIP3    H250598   6.669   5.339  12.074 -0.6113  0.4655  0.1252
 9703TIP3   OH250599   6.292   6.478   1.420  0.2131 -0.4568 -0.4676
 9703TIP3    H150600   6.374   6.430   1.408  0.4508 -0.4191  0.7793
 9703TIP3    H250601   6.312   6.567   1.390  1.3002  0.0827  1.6100
 9704TIP3   OH250602   5.333   6.370  14.565 -0.1071  0.0632 -0.3628
 9704TIP3    H150603   5.262   6.306  14.574  0.8534 -1.5147 -3.1189
 9704TIP3    H250604   5.378   6.368  14.650 -0.9549 -1.8554  0.0895
 9705TIP3   OH250605   2.909   1.742  11.919  0.3052 -0.0341 -0.8386
 9705TIP3    H150606   2.965   1.759  11.995  0.3568  0.1875 -0.9266
 9705TIP3    H250607   2.970   1.715  11.850  0.2736 -0.0903 -0.8447
 9706TIP3   OH250608   0.822   1.589   2.878  0.1291 -0.7604 -0.1364
 9706TIP3    H150609   0.871   1.613   2.799 -1.4380 -0.4442 -1.0609
 9706TIP3    H250610   0.874   1.623   2.950  1.2853 -0.4927 -1.0787
 9707TIP3   OH250611   0.601   0.623   4.589  0.2355 -0.3762 -0.4126
 9707TIP3    H150612   0.558   0.678   4.655  0.5040 -1.1829  0.4557
 9707TIP3    H250613   0.571   0.659   4.505 -1.3729 -0.2972  0.1479
 9708TIP3   OH250614   2.152   5.994  16.270  0.2887 -0.5735 -0.1944
 9708TIP3    H150615   2.181   6.085  16.260 -0.9836 -0.1084  0.1622
 9708TIP3    H250616   2.233   5.944  16.281  0.9384  0.8074  1.8075
 9709TIP3   OH250617   0.513   6.780  10.942  0.0449 -0.2167 -0.1065
 9709TIP3    H150618   0.558   6.803  10.860  0.0441 -1.0901 -0.3665
 9709TIP3    H250619   0.499   6.685  10.936 -0.0594 -0.2754  0.8566
 9710TIP3   OH250620   1.074   4.593   0.353  0.1869 -0.0191  0.1674
 9710TIP3    H150621   1.084   4.680   0.314 -0.6437 -0.3878 -0.9260
 9710TIP3    H250622   1.077   4.609   0.447 -1.6388  1.4593  0.0481
 9711TIP3   OH250623   6.491   0.984  13.871  0.3619 -0.8701  0.3402
 9711TIP3    H150624   6.560   1.047  13.851  1.0283 -1.7934 -0.3437
 9711TIP3    H250625   6.489   0.926  13.795 -2.0114 -0.1485 -0.2329
 9712TIP3   OH250626   1.561   5.142  11.651 -0.6694 -0.4805  0.4960
 9712TIP3    H150627   1.560   5.052  11.684 -1.2117 -0.1438  1.4287
 9712TIP3    H250628   1.569   5.196  11.729 -0.9198  0.3069 -0.0104
 9713TIP3   OH250629   1.444   2.298  10.600 -0.1617 -0.0178  0.3211
 9713TIP3    H150630   1.468   2.384  10.634 -0.3039 -0.0415  0.4824
 9713TIP3    H250631   1.517   2.273  10.543  0.0846  0.0109  0.6238
 9714TIP3   OH250632   6.444   6.355  13.453  0.0069  0.1192 -0.3268
 9714TIP3    H150633   6.510   6.286  13.459 -0.5682 -0.3652  0.4974
 9714TIP3    H250634   6.364   6.315  13.486 -0.6179  0.8214 -0.9588
 9715TIP3   OH250635   6.390   3.928   1.072 -0.3390  0.0503 -0.7226
 9715TIP3    H150636   6.460   3.878   1.029  0.6215  0.3985  0.3833
 9715TIP3    H250637   6.407   4.019   1.046  0.3351  0.2799  0.4616
 9716TIP3   OH250638   1.944   4.986   4.788 -0.1959  0.3828  0.2716
 9716TIP3    H150639   2.011   4.942   4.841 -0.1109  0.4736  0.2411
 9716TIP3    H250640   1.878   4.919   4.772 -0.5353  0.5247  1.0381
 9717TIP3   OH250641   1.010   6.104  16.690  0.2024 -0.2595 -0.3200
 9717TIP3    H150642   0.917   6.124  16.693  0.4685  0.9263  0.5062
 9717TIP3    H250643   1.053   6.189  16.693  1.3460 -0.8523  0.7983
 9718TIP3   OH250644   1.102   4.750   2.860  0.3716  0.1571  0.0813
 9718TIP3    H150645   1.061   4.686   2.919 -0.3074 -0.9175 -1.4824
 9718TIP3    H250646   1.163   4.798   2.916  0.3252 -1.3243  1.4944
 9719TIP3   OH250647   0.302   5.638  11.355  0.2341 -0.0905  0.1213
 9719TIP3    H150648   0.324   5.546  11.341 -0.9259 -0.3269 -0.2946
 9719TIP3    H250649   0.208   5.643  11.338  0.5225  1.4409 -1.3331
 9720TIP3   OH250650   1.987   3.510  11.064 -0.5797  0.1490  0.1493
 9720TIP3    H150651   1.947   3.492  10.979  1.1666 -1.6158 -0.3697
 9720TIP3    H250652   2.013   3.602  11.060 -4.6102  1.5091  0.6177
 9721TIP3   OH250653   5.251   6.209   1.425  0.0003 -0.6133  0.2362
 9721TIP3    H150654   5.231   6.300   1.449 -2.5731 -0.2568 -2.6519
 9721TIP3    H250655   5.290   6.215   1.338 -2.7894 -2.2658 -1.2797
 9722TIP3   OH250656   0.917   2.281  14.373  0.2374  0.3988  0.8962
 9722TIP3    H150657   0.879   2.369  14.368 -0.4041  0.0893  0.0109
 9722TIP3    H250658   1.009   2.296  14.396  0.6746  1.4775 -1.2209
 9723TIP3   OH250659   4.607   5.795   3.691 -0.0740 -0.0943  0.3741
 9723TIP3    H150660   4.698   5.797   3.720  0.3670 -3.7223 -0.2638
 9723TIP3    H250661   4.576   5.707   3.714 -2.9158  0.4491 -0.9055
 9724TIP3   OH250662   0.087   3.759   5.742 -0.3127 -0.4350 -0.0388
 9724TIP3    H150663   0.032   3.767   5.664 -0.8965 -0.2430  0.3845
 9724TIP3    H250664   0.173   3.735   5.708 -0.4449  0.0881 -0.7802
 9725TIP3   OH250665   1.956   5.263  14.310  0.3418  0.8458  0.2613
 9725TIP3    H150666   2.043   5.241  14.346  0.5342 -0.8256 -1.0937
 9725TIP3    H250667   1.974   5.291  14.220 -0.5456 -0.0060 -0.1967
 9726TIP3   OH250668   1.899   5.490   5.362  0.2508  0.3147  0.1724
 9726TIP3    H150669   1.813   5.504   5.402 -0.9561 -0.4384 -2.0071
 9726TIP3    H250670   1.890   5.521   5.272  1.7968 -1.1227 -0.5484
 9727TIP3   OH250671   2.790   5.960   3.131 -0.2582  0.7112  0.4986
 9727TIP3    H150672   2.819   6.047   3.106 -1.1988  1.1596  0.9411
 9727TIP3    H250673   2.721   5.938   3.068 -3.6027  2.3944  3.2460
 9728TIP3   OH250674   6.138   3.988   2.039 -0.1649  0.0016  0.6559
 9728TIP3    H150675   6.048   3.954   2.036  0.1977 -0.9264 -0.2390
 9728TIP3    H250676   6.129   4.081   2.019 -0.6999 -0.6058 -2.4762
 9729TIP3   OH250677   5.360   1.191  10.569 -0.2878  0.6094 -0.2230
 9729TIP3    H150678   5.348   1.272  10.519  1.1282  0.5974 -0.6366
 9729TIP3    H250679   5.277   1.178  10.615 -0.8996  1.7288 -0.9713
 9730TIP3   OH250680   1.217   4.399   5.240 -0.2086 -0.1258  0.2353
 9730TIP3    H150681   1.301   4.354   5.245 -0.6029 -1.0466 -1.0243
 9730TIP3    H250682   1.154   4.336   5.273 -0.3249  0.9181  2.1316
 9731TIP3   OH250683   3.681   6.384   5.450  0.4212 -0.2622  0.6924
 9731TIP3    H150684   3.630   6.358   5.527  1.4705 -0.5963  1.2934
 9731TIP3    H250685   3.756   6.431   5.485  1.9964 -2.1388  0.0698
 9732TIP3   OH250686   3.903   6.151  13.062 -0.5552  0.1734  0.2833
 9732TIP3    H150687   3.901   6.211  13.137  0.3592 -0.2548  0.6699
 9732TIP3    H250688   3.966   6.191  13.002  0.0473 -0.3894  0.5376
 9733TIP3   OH250689   1.882   2.916  13.898  0.0033 -0.4177 -0.0924
 9733TIP3    H150690   1.946   2.891  13.832  0.9594 -1.1020  1.0494
 9733TIP3    H250691   1.850   3.002  13.869  1.3029 -0.1443 -0.7921
 9734TIP3   OH250692   2.693   4.581  14.398 -0.6484 -0.1886 -0.7066
 9734TIP3    H150693   2.769   4.630  14.432  0.5096 -2.3768  0.0571
 9734TIP3    H250694   2.699   4.592  14.303 -0.4507  1.1543 -0.5599
 9735TIP3   OH250695   2.147   5.884  13.006 -0.2981  0.0492 -0.3750
 9735TIP3    H150696   2.216   5.868  13.069 -0.7772 -2.0278 -0.3060
 9735TIP3    H250697   2.168   5.969  12.968  1.7171 -0.0775  0.3507
 9736TIP3   OH250698   1.961   2.992  15.985  0.5206 -0.2601 -0.2993
 9736TIP3    H150699   1.994   2.952  16.066  1.4101 -1.0438 -1.0204
 9736TIP3    H250700   2.023   3.063  15.967  1.2350 -1.0535 -1.0831
 9737TIP3   OH250701   0.692   1.707  16.434 -0.2318 -0.2847  0.4580
 9737TIP3    H150702   0.670   1.723  16.526  0.3075  0.1865  0.5099
 9737TIP3    H250703   0.779   1.666  16.437  0.7375  1.6291  0.0781
 9738TIP3   OH250704   4.520   5.111   1.414 -0.3177 -0.1819 -0.6153
 9738TIP3    H150705   4.466   5.034   1.399 -1.3582  0.2025  0.9901
 9738TIP3    H250706   4.461   5.175   1.453  0.7678  1.0886 -0.9642
 9739TIP3   OH250707   6.619   0.717   4.940 -0.2425  0.1532 -0.3341
 9739TIP3    H150708   6.562   0.707   4.864  0.7664  1.0363 -1.2369
 9739TIP3    H250709   6.650   0.808   4.935 -0.0427  0.1830  1.0551
 9740TIP3   OH250710   6.650   5.197  16.806 -0.7447 -0.3610 -0.2246
 9740TIP3    H150711   6.700   5.126  16.766  1.1724 -0.3615  1.9688
 9740TIP3    H250712   6.580   5.154  16.855 -0.0077 -0.7026  0.5344
 9741TIP3   OH250713   3.854   2.598  15.435 -0.4009 -0.7879  0.1407
 9741TIP3    H150714   3.925   2.573  15.493  2.0430 -0.5337 -2.4772
 9741TIP3    H250715   3.811   2.672  15.479  1.9076  0.0075  1.2020
 9742TIP3   OH250716   3.415   6.164  17.064  0.5367 -0.6423 -0.0796
 9742TIP3    H150717   3.460   6.248  17.058  1.6430 -1.1762  0.3571
 9742TIP3    H250718   3.364   6.157  16.983  0.8565  0.2062 -0.3579
 9743TIP3   OH250719   3.187   2.314  11.781  0.5223  0.3631 -0.7962
 9743TIP3    H150720   3.133   2.384  11.744  3.0294  2.7385 -0.2786
 9743TIP3    H250721   3.151   2.300  11.869 -0.4425  0.4699 -1.1582
 9744TIP3   OH250722   3.168   0.796   5.806 -0.0856 -0.0755 -0.4751
 9744TIP3    H150723   3.086   0.845   5.804  0.6147  1.1542 -1.7754
 9744TIP3    H250724   3.227   0.851   5.859  0.1509 -0.4816 -0.3170
 9745TIP3   OH250725   4.506   4.198   3.870 -0.6313 -0.1378  0.1889
 9745TIP3    H150726   4.435   4.180   3.809 -1.8061  0.9589  1.1659
 9745TIP3    H250727   4.585   4.170   3.825 -1.7314 -2.0305 -0.6649
 9746TIP3   OH250728   3.699   2.242   2.377 -0.0306  0.2419 -0.2693
 9746TIP3    H150729   3.764   2.220   2.444  2.0094  3.2567 -1.0507
 9746TIP3    H250730   3.629   2.178   2.390  1.6225 -1.1906  2.7343
 9747TIP3   OH250731   5.626   0.919   4.365  0.1076 -0.2932 -0.2651
 9747TIP3    H150732   5.546   0.909   4.312 -0.1401 -0.1323  0.0803
 9747TIP3    H250733   5.660   1.004   4.340  0.3827 -0.5213 -0.6940
 9748TIP3   OH250734   6.275   1.164  12.081  0.5151  0.2387 -0.2074
 9748TIP3    H150735   6.329   1.211  12.018 -2.0160  3.0147 -0.5515
 9748TIP3    H250736   6.216   1.111  12.027  0.4304  0.1443 -0.0225
 9749TIP3   OH250737   1.202   3.363  13.093 -0.2834 -0.0750 -0.0236
 9749TIP3    H150738   1.176   3.443  13.138  0.6192  0.6326 -0.7394
 9749TIP3    H250739   1.147   3.360  13.015 -0.1043  0.0060 -0.1530
 9750TIP3   OH250740   2.603   1.037  16.479 -0.5139  0.3384 -0.1696
 9750TIP3    H150741   2.636   1.015  16.392 -0.6433  0.1883 -0.1810
 9750TIP3    H250742   2.637   0.967  16.535  1.0898  1.3911  0.2386
 9751TIP3   OH250743   3.041   2.970  17.218 -0.1044  0.2669 -0.0379
 9751TIP3    H150744   3.113   3.022  17.182 -0.5143  0.8213 -0.0679
 9751TIP3    H250745   3.024   3.009  17.303 -1.0969  0.8548 -0.4873
 9752TIP3   OH250746   5.349   2.019  12.375  0.0139  0.0398 -0.4573
 9752TIP3    H150747   5.288   1.950  12.349 -0.1728 -0.6728  1.6296
 9752TIP3    H250748   5.369   1.999  12.467  2.3648  1.0097 -0.6894
 9753TIP3   OH250749   1.646   1.255  13.551 -0.7411 -0.4234 -1.1279
 9753TIP3    H150750   1.669   1.302  13.470 -1.9502 -0.5237 -1.5627
 9753TIP3    H250751   1.729   1.224  13.585 -0.2253 -0.6810 -2.5356
 9754TIP3   OH250752   0.936   0.114   1.004 -0.0250  0.1565 -0.6820
 9754TIP3    H150753   0.957   0.204   0.980  0.0463 -0.4326 -3.2112
 9754TIP3    H250754   1.017   0.065   0.986 -0.2327 -0.4931  0.0965
 9755TIP3   OH250755   5.248   4.803   2.909 -0.5257  0.5506 -0.0213
 9755TIP3    H150756   5.212   4.884   2.872 -0.3745  0.6697  0.0903
 9755TIP3    H250757   5.343   4.814   2.903 -0.5010  0.1401 -0.5265
 9756TIP3   OH250758   5.514   0.444  16.417 -0.3250  0.5768  0.2607
 9756TIP3    H150759   5.479   0.530  16.442  1.2429  1.0583  0.9389
 9756TIP3    H250760   5.448   0.408  16.357 -1.3348  1.9580  0.4827
 9757TIP3   OH250761   6.230   0.375  16.693 -0.0261 -0.0175  0.2772
 9757TIP3    H150762   6.231   0.414  16.780 -0.5564  1.9249 -0.5405
 9757TIP3    H250763   6.151   0.321  16.691  0.0963 -0.2343  1.0406
 9758TIP3   OH250764   0.789   1.087  15.195 -0.0773 -0.4289 -0.4377
 9758TIP3    H150765   0.763   1.172  15.159 -0.6982 -0.6951 -0.6325
 9758TIP3    H250766   0.840   1.108  15.273 -0.3619  0.1186 -0.3968
 9759TIP3   OH250767   2.032   0.307  13.131  0.1768  0.0341 -0.0979
 9759TIP3    H150768   2.067   0.362  13.201  0.1171 -0.7397  0.5549
 9759TIP3    H250769   1.965   0.253  13.174 -1.4597  1.1041 -1.2206
 9760TIP3   OH250770   1.424   1.656  16.286 -0.3574 -0.0423 -0.0127
 9760TIP3    H150771   1.457   1.735  16.329  0.3069 -0.1698 -0.2880
 9760TIP3    H250772   1.378   1.688  16.208 -0.3863  0.0906  0.0580
 9761TIP3   OH250773   4.313   3.305   0.905  0.1540  0.6259 -0.0130
 9761TIP3    H150774   4.247   3.246   0.941  1.0266 -0.5120 -0.2421
 9761TIP3    H250775   4.264   3.385   0.884 -1.6831 -0.9986 -2.4541
 9762TIP3   OH250776   6.789   5.031  13.181 -0.0411 -0.1140 -0.0574
 9762TIP3    H150777   6.763   5.089  13.110  1.3454 -1.2732 -1.5705
 9762TIP3    H250778   6.845   5.085  13.237 -0.1307  0.4724 -0.5239
 9763TIP3   OH250779   2.683   6.064   5.943  0.2278  0.2387  0.1270
 9763TIP3    H150780   2.654   5.995   5.882  1.8131 -1.1256  0.8319
 9763TIP3    H250781   2.692   6.019   6.027  0.3687  1.5450  0.8306
 9764TIP3   OH250782   2.611   2.861  13.735 -0.7216 -0.6534  0.1849
 9764TIP3    H150783   2.681   2.818  13.783  1.2301  2.2549  0.1741
 9764TIP3    H250784   2.555   2.899  13.803  0.6632  1.3736  0.2526
 9765TIP3   OH250785   4.582   4.231   1.584 -0.2167  0.0983  0.1638
 9765TIP3    H150786   4.549   4.269   1.666  0.0992 -2.2233  1.4499
 9765TIP3    H250787   4.508   4.184   1.548 -0.8740  2.4950 -1.9053
 9766TIP3   OH250788   6.251   1.884   4.750 -0.0448  0.6459  0.3713
 9766TIP3    H150789   6.193   1.910   4.678 -1.5759 -0.3110  1.2218
 9766TIP3    H250790   6.237   1.951   4.817 -0.2986  0.3175  0.6466
 9767TIP3   OH250791   5.901   3.520  11.650 -0.2653 -0.1650  0.2780
 9767TIP3    H150792   5.871   3.521  11.740 -0.2441 -0.1255  0.2843
 9767TIP3    H250793   5.959   3.443  11.644 -0.9081 -0.6433  0.0906
 9768TIP3   OH250794   5.797   1.951  13.703  0.3357  0.2182  0.0871
 9768TIP3    H150795   5.763   1.870  13.741 -0.1744  0.3194 -0.1514
 9768TIP3    H250796   5.731   1.978  13.640  0.1099  1.2767  0.7634
 9769TIP3   OH250797   4.326   1.675   5.321  0.2920 -0.4582 -0.4371
 9769TIP3    H150798   4.316   1.760   5.280 -1.5297 -0.9325 -1.0632
 9769TIP3    H250799   4.414   1.677   5.360  0.2642  1.6931 -0.3877
 9770TIP3   OH250800   5.181   0.128  15.771 -0.0824 -0.7388 -0.2142
 9770TIP3    H150801   5.250   0.116  15.706 -0.1780 -3.0416  0.0441
 9770TIP3    H250802   5.100   0.117  15.722 -0.1667 -1.9123  0.1727
 9771TIP3   OH250803   3.776   1.464  15.067  0.1101  0.0706  0.1401
 9771TIP3    H150804   3.779   1.420  15.152  0.4344 -0.2461 -0.0361
 9771TIP3    H250805   3.836   1.539  15.077  1.4692 -0.9133 -0.3384
 9772TIP3   OH250806   2.608   1.366   5.614 -0.2706  0.0266  0.3013
 9772TIP3    H150807   2.525   1.378   5.660 -0.1601 -1.8531  1.0826
 9772TIP3    H250808   2.583   1.330   5.529 -0.2991  0.3410  0.1758
 9773TIP3   OH250809   0.617   3.274  14.869 -0.1903 -0.2325  0.0187
 9773TIP3    H150810   0.694   3.315  14.830 -0.8459  1.7426  0.6963
 9773TIP3    H250811   0.649   3.189  14.900  0.7587 -1.1749 -3.1446
 9774TIP3   OH250812   1.810   0.349  14.061 -0.3292 -0.2981  0.1739
 9774TIP3    H150813   1.822   0.268  14.110  1.8692 -0.3464 -0.3578
 9774TIP3    H250814   1.838   0.328  13.972 -1.6368  0.5323 -0.4695
 9775TIP3   OH250815   0.133   3.506   0.447 -0.0150 -0.1738 -0.0864
 9775TIP3    H150816   0.066   3.569   0.423 -0.9981 -1.3637 -0.6047
 9775TIP3    H250817   0.210   3.531   0.397 -0.0016  1.3011  0.6256
 9776TIP3   OH250818   2.511   4.556  11.298 -0.8205  0.2338  0.2576
 9776TIP3    H150819   2.474   4.567  11.211  0.3814 -1.5271 -0.5285
 9776TIP3    H250820   2.509   4.461  11.314  2.2932  0.1057  0.5742
 9777TIP3   OH250821   1.072   4.070  10.989  0.4092  0.0642  0.4249
 9777TIP3    H150822   1.076   4.107  10.901  1.5119 -2.3057 -0.6015
 9777TIP3    H250823   0.990   4.021  10.990  0.4128  0.0649  0.7102
 9778TIP3   OH250824   0.520   0.650   1.918  0.2820 -0.2917  0.5545
 9778TIP3    H150825   0.615   0.658   1.913  0.2381  0.7807  1.0152
 9778TIP3    H250826   0.499   0.571   1.868  1.4999 -1.1808  1.3930
 9779TIP3   OH250827   4.896   5.381   5.491 -0.1947 -0.0661  0.0288
 9779TIP3    H150828   4.902   5.361   5.584 -0.4621  1.6854  0.4534
 9779TIP3    H250829   4.956   5.455   5.478 -2.1355  1.5057 -0.5962
 9780TIP3   OH250830   3.539   5.963  17.205 -0.1354 -0.0670  0.2453
 9780TIP3    H150831   3.505   6.030  17.146  0.8512  0.1308 -0.1344
 9780TIP3    H250832   3.514   5.880  17.164  1.3547  0.0503 -1.0147
 9781TIP3   OH250833   2.234   1.068   0.745 -0.6468  1.0676  0.0958
 9781TIP3    H150834   2.232   1.130   0.672  2.1865  0.3345 -0.7157
 9781TIP3    H250835   2.236   0.982   0.703  1.3965  0.6447  0.9782
 9782TIP3   OH250836   6.131   2.243  16.157  0.7577  0.1519  0.2102
 9782TIP3    H150837   6.049   2.283  16.127  1.5217  1.2458 -0.5113
 9782TIP3    H250838   6.162   2.193  16.081  0.9572  0.0599  0.3512
 9783TIP3   OH250839   6.585   3.223  14.370  0.4222  0.1045  0.0115
 9783TIP3    H150840   6.544   3.156  14.317  0.0562  0.6956 -0.4621
 9783TIP3    H250841   6.628   3.281  14.308 -0.0004  0.7969  0.3486
 9784TIP3   OH250842   3.560   4.560   4.190 -0.3920 -0.5221  0.3958
 9784TIP3    H150843   3.586   4.469   4.180  2.9497  0.0372  2.3545
 9784TIP3    H250844   3.628   4.610   4.144 -1.0463  1.0372  1.0294
 9785TIP3   OH250845   1.874   1.117   0.802  0.1491 -0.1929 -0.5671
 9785TIP3    H150846   1.786   1.151   0.789  0.5380  1.1441  0.1459
 9785TIP3    H250847   1.929   1.173   0.746  0.6679 -0.3399 -0.2074
 9786TIP3   OH250848   5.325   0.645  15.817  0.0266 -0.2636  0.4461
 9786TIP3    H150849   5.308   0.552  15.803 -0.4965 -0.0107 -0.7153
 9786TIP3    H250850   5.417   0.657  15.794 -0.1432 -0.3421 -0.3103
 9787TIP3   OH250851   3.578   6.614   0.926 -0.0395  0.4594  0.1145
 9787TIP3    H150852   3.484   6.593   0.918  0.0155  0.0043  0.5325
 9787TIP3    H250853   3.610   6.619   0.836 -0.2998 -0.2001 -0.0228
 9788TIP3   OH250854   2.330   0.777   3.379 -0.2340  0.0112 -0.4450
 9788TIP3    H150855   2.371   0.731   3.452  0.0429  0.5490 -0.2527
 9788TIP3    H250856   2.263   0.717   3.347  0.1209 -0.5238 -0.2069
 9789TIP3   OH250857   2.383   2.796   5.580  0.6314 -0.1630 -0.8306
 9789TIP3    H150858   2.424   2.883   5.577  2.4610 -0.9983 -3.0106
 9789TIP3    H250859   2.290   2.813   5.566  0.9348  1.4641 -1.1348
 9790TIP3   OH250860   6.609   2.360  14.523  0.3346 -0.1678  0.3345
 9790TIP3    H150861   6.545   2.362  14.594  0.9845 -1.0298  0.9770
 9790TIP3    H250862   6.691   2.335  14.566  0.8401 -0.2737 -0.6583
 9791TIP3   OH250863   2.113   1.451   1.115 -0.6240 -0.0321  0.1634
 9791TIP3    H150864   2.093   1.511   1.044  1.2688  0.6365  0.1279
 9791TIP3    H250865   2.050   1.473   1.184 -2.2856 -0.4912 -1.1448
 9792TIP3   OH250866   5.743   1.076  12.836  0.2041  0.4708  0.2050
 9792TIP3    H150867   5.729   1.020  12.913 -2.5749  2.0550  0.9689
 9792TIP3    H250868   5.686   1.151  12.850  0.3746  1.3220 -2.9444
 9793TIP3   OH250869   3.873   1.430  16.540  0.0555  0.0140 -0.1546
 9793TIP3    H150870   3.913   1.448  16.625 -1.0736  0.7320  0.2544
 9793TIP3    H250871   3.869   1.515  16.496 -0.4598 -0.1422 -0.4218
 9794TIP3   OH250872   4.709   5.851  13.862 -0.0206 -0.3214 -0.1932
 9794TIP3    H150873   4.798   5.857  13.896  1.2993 -0.2715 -3.3014
 9794TIP3    H250874   4.695   5.756  13.851 -1.1063 -0.4508  1.9377
 9795TIP3   OH250875   1.953   2.817  11.799  0.2493 -0.2127 -0.6566
 9795TIP3    H150876   1.944   2.863  11.716  0.1054  1.2850  0.1520
 9795TIP3    H250877   1.939   2.725  11.777 -1.3024  0.3071 -2.0361
 9796TIP3   OH250878   2.339   6.267  13.310  0.6652  0.0251  0.6057
 9796TIP3    H150879   2.378   6.314  13.384  1.0390 -0.2146  0.5650
 9796TIP3    H250880   2.402   6.198  13.290  0.0640 -0.5684  0.7388
 9797TIP3   OH250881   0.135   3.501   1.280  0.0294 -0.4456 -0.0838
 9797TIP3    H150882   0.125   3.408   1.302  0.0150 -0.6638 -0.9600
 9797TIP3    H250883   0.220   3.506   1.236  0.8668  0.2784  1.5524
 9798TIP3   OH250884   6.178   0.347  15.327  0.3757 -0.5463 -0.0009
 9798TIP3    H150885   6.099   0.294  15.324 -0.9471  1.3065  0.0914
 9798TIP3    H250886   6.169   0.407  15.252  1.1443  0.3997  0.6383
 9799TIP3   OH250887   4.927   2.040  12.522  0.1551  0.7986 -0.4818
 9799TIP3    H150888   5.002   2.099  12.524  1.1354 -0.3863  1.0270
 9799TIP3    H250889   4.964   1.955  12.548 -1.5683  0.0096 -0.4987
 9800TIP3   OH250890   3.696   1.678   1.931 -0.2432  0.7608 -0.6168
 9800TIP3    H150891   3.789   1.657   1.919 -0.0690  1.4525 -0.5422
 9800TIP3    H250892   3.694   1.732   2.010 -0.4568  2.3287 -1.6406
 9801TIP3   OH250893   1.961   5.279   3.804 -0.3845  0.1894  0.6313
 9801TIP3    H150894   1.963   5.355   3.746 -0.6700 -1.6487 -1.9927
 9801TIP3    H250895   1.980   5.205   3.746 -1.8658 -1.9346  2.6974
 9802TIP3   OH250896   4.244   2.114  15.237 -0.3969  0.2483 -0.5226
 9802TIP3    H150897   4.326   2.121  15.187 -0.0956 -0.4280 -0.1372
 9802TIP3    H250898   4.188   2.183  15.201  1.3202  2.6305  1.0724
 9803TIP3   OH250899   1.415   1.440   3.923  0.1272  0.0477 -0.5774
 9803TIP3    H150900   1.383   1.522   3.959 -0.9564 -0.5702 -0.0689
 9803TIP3    H250901   1.458   1.397   3.997 -0.5145 -0.4298 -0.4702
 9804TIP3   OH250902   2.506   0.782  12.829  0.0356  0.1206  0.0109
 9804TIP3    H150903   2.414   0.805  12.814  0.2672  2.5122  1.6376
 9804TIP3    H250904   2.518   0.796  12.923  2.2055  0.5120 -0.2876
 9805TIP3   OH250905   5.148   5.834   4.851  0.5102  0.1440 -0.0055
 9805TIP3    H150906   5.232   5.825   4.805  0.3517 -0.1823 -0.2351
 9805TIP3    H250907   5.134   5.929   4.858 -0.1830  0.2161 -1.9468
 9806TIP3   OH250908   5.990   1.160   3.828  0.0026 -0.1213 -0.5457
 9806TIP3    H150909   6.006   1.245   3.867 -1.0771  0.0372 -0.4293
 9806TIP3    H250910   5.943   1.111   3.896  0.2111 -0.6548 -0.7797
 9807TIP3   OH250911   4.854   3.335  16.214 -0.0236 -0.2412 -0.6120
 9807TIP3    H150912   4.885   3.244  16.208  0.2117 -0.1685 -0.5157
 9807TIP3    H250913   4.844   3.351  16.308 -0.2492 -0.2284 -0.6375
 9808TIP3   OH250914   6.400   5.201   0.937 -0.3409 -0.4587 -0.1479
 9808TIP3    H150915   6.382   5.286   0.978  0.8604 -1.0096  1.5965
 9808TIP3    H250916   6.486   5.175   0.971  1.4714 -0.3574 -4.0469
 9809TIP3   OH250917   2.690   5.248   6.132  0.3824  0.0695  0.6293
 9809TIP3    H150918   2.688   5.318   6.197 -0.7530 -0.0229  0.7082
 9809TIP3    H250919   2.709   5.169   6.183 -1.9191 -0.2367  1.1157
 9810TIP3   OH250920   4.990   3.089  12.416  0.3954 -0.3045  0.2049
 9810TIP3    H150921   4.965   2.997  12.408  0.9152 -0.4043 -0.3363
 9810TIP3    H250922   5.070   3.096  12.365 -0.3122  0.7186 -0.7933
 9811TIP3   OH250923   5.520   0.332  13.861 -0.3006  0.6822 -0.3120
 9811TIP3    H150924   5.462   0.256  13.852  0.7321 -0.2716  0.8092
 9811TIP3    H250925   5.606   0.295  13.881  0.3407  2.1360 -0.2535
 9812TIP3   OH250926   3.977   1.884  16.693  0.3386 -0.3496 -0.2702
 9812TIP3    H150927   3.978   1.848  16.782  3.7553 -1.6711 -0.7129
 9812TIP3    H250928   3.996   1.977  16.705 -0.5239 -0.2485  0.4186
 9813TIP3   OH250929   2.044   5.364   2.162  0.0893 -0.6574 -0.1325
 9813TIP3    H150930   2.030   5.454   2.192  0.3236 -0.7828  0.3526
 9813TIP3    H250931   2.080   5.318   2.238  0.6651 -0.9821 -0.5928
 9814TIP3   OH250932   4.677   0.984  14.928 -0.0505 -0.0495  0.2312
 9814TIP3    H150933   4.640   1.065  14.963  0.6870  0.0090  0.9150
 9814TIP3    H250934   4.613   0.917  14.951 -0.7175  0.3477 -0.4369
 9815TIP3   OH250935   0.027   1.037   1.266  0.1153  0.3713 -0.2096
 9815TIP3    H150936   0.067   1.025   1.180  0.2695 -2.8915  0.1966
 9815TIP3    H250937  -0.063   1.006   1.256  0.0176  0.3273  0.6856
 9816TIP3   OH250938   4.502   5.369  12.361 -0.2725  0.2502  0.2030
 9816TIP3    H150939   4.482   5.440  12.422  1.5604  1.0210 -0.0236
 9816TIP3    H250940   4.589   5.391  12.327 -0.4606 -1.1338 -1.2868
 9817TIP3   OH250941   0.245   3.697  12.267  0.0813 -0.1127 -0.6968
 9817TIP3    H150942   0.192   3.693  12.187 -1.1560  1.6792 -0.0395
 9817TIP3    H250943   0.293   3.780  12.260 -1.8271  1.2990  1.3872
 9818TIP3   OH250944   3.718   3.779   5.264 -0.0131  0.3232 -0.5290
 9818TIP3    H150945   3.723   3.699   5.210  2.3564  0.1921 -0.2423
 9818TIP3    H250946   3.701   3.849   5.202  1.1401 -0.0287 -1.2804
 9819TIP3   OH250947   2.462   5.015   2.332  0.5054 -0.1545  0.9167
 9819TIP3    H150948   2.452   5.074   2.258  0.8586 -0.5405  0.5488
 9819TIP3    H250949   2.373   5.001   2.365  0.0120 -1.8390 -0.9207
 9820TIP3   OH250950   5.974   2.620   2.551 -0.1132 -0.7381  0.6914
 9820TIP3    H150951   6.027   2.602   2.629 -1.2417  0.2534  1.7248
 9820TIP3    H250952   5.915   2.544   2.544  0.8571 -1.4549  0.0077
 9821TIP3   OH250953   2.550   2.419  15.207  0.2165 -0.5608 -0.0750
 9821TIP3    H150954   2.512   2.335  15.181  0.9756 -0.5625 -1.2477
 9821TIP3    H250955   2.585   2.456  15.126 -1.0969  1.4377  0.2129
 9822TIP3   OH250956   1.997   4.047  11.866  0.4708 -0.2758  0.3267
 9822TIP3    H150957   1.997   3.968  11.919  0.5050 -1.0851 -0.8483
 9822TIP3    H250958   1.911   4.086  11.883  0.2593 -0.8192  0.5430
 9823TIP3   OH250959   4.569   1.975  15.672 -0.3028 -0.1153 -0.1177
 9823TIP3    H150960   4.596   1.886  15.695  1.2517  0.2339 -0.4871
 9823TIP3    H250961   4.575   2.024  15.754  1.0999  0.1497 -0.3456
 9824TIP3   OH250962   5.213   4.073  15.293 -0.4700 -0.1108 -0.0076
 9824TIP3    H150963   5.163   4.100  15.216  1.4878  3.6024 -0.2035
 9824TIP3    H250964   5.275   4.009  15.260 -2.6306 -2.1222 -0.4381
 9825TIP3   OH250965   1.116   6.147   2.151  0.0585 -0.1389  0.3551
 9825TIP3    H150966   1.030   6.121   2.183 -0.2685  0.5087  0.0182
 9825TIP3    H250967   1.148   6.069   2.105  0.0014 -0.6497  1.1449
 9826TIP3   OH250968   4.154   3.539  14.522  0.4257  0.4731 -0.4021
 9826TIP3    H150969   4.137   3.468  14.585 -1.2078  0.4879 -0.7848
 9826TIP3    H250970   4.174   3.494  14.440  1.2649  0.4605 -0.1977
 9827TIP3   OH250971   3.649   2.969   5.821 -0.1637 -0.2203  0.1510
 9827TIP3    H150972   3.644   2.966   5.916  0.2888 -1.6480  0.1601
 9827TIP3    H250973   3.702   2.892   5.797  0.0794  0.3373 -1.2251
 9828TIP3   OH250974   2.650   4.804   4.849 -0.2654  0.5921 -1.0074
 9828TIP3    H150975   2.740   4.799   4.881 -0.6271  1.2975  0.1630
 9828TIP3    H250976   2.655   4.770   4.760  0.8843 -0.8023 -0.4456
 9829TIP3   OH250977   5.871   1.450  15.763 -0.2364 -0.5611  0.0574
 9829TIP3    H150978   5.859   1.440  15.858  0.3863  1.3689  0.3802
 9829TIP3    H250979   5.782   1.459  15.729 -0.4085  2.3890  0.9919
 9830TIP3   OH250980   4.800   6.335   4.263 -0.1120 -0.2430  0.0647
 9830TIP3    H150981   4.844   6.295   4.338  0.6194  0.0741 -0.1791
 9830TIP3    H250982   4.852   6.307   4.188 -0.3161  0.1647 -0.2316
 9831TIP3   OH250983   3.799   0.967   2.933 -0.6661  0.0690  0.3073
 9831TIP3    H150984   3.883   1.010   2.917  0.3730 -1.0709  2.3280
 9831TIP3    H250985   3.764   0.949   2.846 -0.0664  2.8320 -0.6184
 9832TIP3   OH250986   1.256   3.833  16.384 -0.0136  0.4646 -0.0247
 9832TIP3    H150987   1.261   3.928  16.385  0.4561  0.4438 -0.0964
 9832TIP3    H250988   1.345   3.804  16.363 -0.5430  0.0479 -1.9247
 9833TIP3   OH250989   0.283   1.152   4.332  0.0822 -0.0529 -0.7250
 9833TIP3    H150990   0.211   1.167   4.271  0.1358  0.8124 -0.5883
 9833TIP3    H250991   0.256   1.196   4.412  0.8085  0.3798 -0.7093
 9834TIP3   OH250992   1.733   2.061  11.195 -0.6558 -0.4567  0.5405
 9834TIP3    H150993   1.720   2.144  11.149  1.3927 -0.4796 -0.1941
 9834TIP3    H250994   1.661   2.006  11.166 -0.0119 -0.1298 -1.8820
 9835TIP3   OH250995   5.753   4.062   3.228 -0.7687  0.2507 -0.0198
 9835TIP3    H150996   5.732   4.149   3.192 -1.4926 -0.5949 -1.7712
 9835TIP3    H250997   5.702   4.058   3.309 -1.7527  0.9932 -0.5649
 9836TIP3   OH250998   4.175   5.177   3.077 -0.1011 -0.2629 -0.2849
 9836TIP3    H150999   4.130   5.259   3.093 -0.1691 -0.5150  0.8756
 9836TIP3    H251000   4.262   5.203   3.047 -0.6627  0.2152 -1.6175
 9837TIP3   OH251001   4.374   6.435  13.225  0.2327  0.1438 -0.0835
 9837TIP3    H151002   4.339   6.409  13.310  0.0209 -0.2059 -0.2761
 9837TIP3    H251003   4.447   6.375  13.210  0.3141  0.2518 -0.1142
 9838TIP3   OH251004   5.968   4.220   2.987 -0.3083 -0.8080  0.0887
 9838TIP3    H151005   6.003   4.228   2.898 -0.2867  2.2214  0.2548
 9838TIP3    H251006   6.039   4.251   3.044 -1.7474  1.6263  0.7220
 9839TIP3   OH251007   2.481   1.201   2.866 -0.0392  0.5236  0.2279
 9839TIP3    H151008   2.393   1.176   2.838 -0.1502  1.5899 -0.4151
 9839TIP3    H251009   2.505   1.135   2.931 -1.2291  0.1045  0.2627
 9840TIP3   OH251010   6.504   5.523   4.067  0.0321  0.1035 -0.2698
 9840TIP3    H151011   6.430   5.574   4.034  0.8810  0.9284 -0.9707
 9840TIP3    H251012   6.464   5.447   4.109 -1.2384  0.9027  0.0311
 9841TIP3   OH251013   5.602   3.770  12.739  0.9610 -0.1331  0.6898
 9841TIP3    H151014   5.507   3.775  12.736  0.8819 -1.6488 -0.7594
 9841TIP3    H251015   5.622   3.730  12.823  0.2044 -1.2434  0.3568
 9842TIP3   OH251016   6.267   0.249  14.108  0.6697 -0.3013 -0.1382
 9842TIP3    H151017   6.271   0.315  14.039  2.3039 -2.4482 -2.2894
 9842TIP3    H251018   6.178   0.214  14.103  0.7161 -0.3195 -1.0905
 9843TIP3   OH251019   5.852   2.750  16.497  0.1590 -0.3929 -0.3795
 9843TIP3    H151020   5.808   2.787  16.421 -0.7621 -0.6668  0.0151
 9843TIP3    H251021   5.927   2.807  16.512 -0.5073  0.5465 -0.5674
 9844TIP3   OH251022   5.627   0.893  11.363 -0.5307 -0.3041 -0.2286
 9844TIP3    H151023   5.601   0.903  11.271 -1.3694 -1.0996 -0.0886
 9844TIP3    H251024   5.551   0.854  11.405 -0.5963  1.1451  1.0721
 9845TIP3   OH251025   0.824   6.287  10.463  0.0479  0.0569 -0.2616
 9845TIP3    H151026   0.772   6.343  10.520  0.6131  0.7843 -0.4424
 9845TIP3    H251027   0.914   6.318  10.475  0.6188 -1.8299  0.8468
 9846TIP3   OH251028   4.525   3.431  15.546 -0.3380  0.0261  0.3659
 9846TIP3    H151029   4.505   3.516  15.587 -0.5834 -0.6782  1.7848
 9846TIP3    H251030   4.483   3.435  15.461 -0.7994  1.1388  0.6247
 9847TIP3   OH251031   1.912   2.438  16.650 -0.0260  0.2713  0.2136
 9847TIP3    H151032   1.949   2.461  16.565 -2.1325 -0.6301 -1.0276
 9847TIP3    H251033   1.863   2.515  16.677 -1.7156 -0.3706 -0.8316
 9848TIP3   OH251034   2.985   3.588  14.568  0.2669 -0.0598  0.3423
 9848TIP3    H151035   3.053   3.592  14.636  0.1327 -1.2830  0.5628
 9848TIP3    H251036   2.912   3.638  14.605 -0.2560 -1.7151  1.6541
 9849TIP3   OH251037   5.925   1.700   0.761 -0.8280  0.5511  0.0915
 9849TIP3    H151038   5.919   1.788   0.723 -1.6124  1.0668  1.3647
 9849TIP3    H251039   5.837   1.681   0.793 -0.6816 -0.7338 -0.2109
 9850TIP3   OH251040   2.795   6.241  14.884  0.5369 -0.5167 -0.0243
 9850TIP3    H151041   2.775   6.314  14.826 -1.3526 -0.9683 -0.0320
 9850TIP3    H251042   2.817   6.281  14.968  0.0065  0.0912 -0.1693
 9851TIP3   OH251043   2.815   4.807  14.188  0.5081 -0.2291  0.0330
 9851TIP3    H151044   2.739   4.862  14.167  0.2520 -0.7193 -0.3322
 9851TIP3    H251045   2.816   4.802  14.283  0.7107  0.6531  0.0943
 9852TIP3   OH251046   0.595   2.871   2.984  0.2978  0.3415 -0.4198
 9852TIP3    H151047   0.596   2.907   3.073  1.9556 -0.3506 -0.1319
 9852TIP3    H251048   0.527   2.804   2.987  0.3743  0.2880  0.3466
 9853TIP3   OH251049   5.309   4.845  11.104  0.2036 -0.0670 -0.0596
 9853TIP3    H151050   5.317   4.751  11.120 -2.8942 -0.3868  0.1109
 9853TIP3    H251051   5.353   4.859  11.020 -0.5634 -1.9531 -0.8338
 9854TIP3   OH251052   5.199   0.875  14.122 -0.2323 -0.5631 -0.0636
 9854TIP3    H151053   5.284   0.873  14.078  0.4957 -0.4478  1.2796
 9854TIP3    H251054   5.220   0.896  14.213 -1.8859  1.5715 -0.1132
 9855TIP3   OH251055   1.150   4.048  14.230  0.0098 -0.0227 -0.3723
 9855TIP3    H151056   1.065   4.007  14.217  0.0535  0.1660 -1.2731
 9855TIP3    H251057   1.146   4.131  14.183  0.3306  0.4891  0.4656
 9856TIP3   OH251058   6.603   2.009   0.118 -0.2799  0.4153 -0.2576
 9856TIP3    H151059   6.661   2.021   0.193  0.2612 -0.8687 -0.4470
 9856TIP3    H251060   6.544   1.938   0.143 -0.1896  0.0675 -0.9893
 9857TIP3   OH251061   5.226   5.684  13.240  0.8129 -0.3176  0.0114
 9857TIP3    H151062   5.196   5.712  13.154  0.4325 -0.6658  0.0251
 9857TIP3    H251063   5.232   5.764  13.291  1.1297 -0.0987 -0.3656
 9858TIP3   OH251064   4.685   0.984  14.458 -0.3251 -0.2615  0.2308
 9858TIP3    H151065   4.605   1.026  14.428 -1.0772 -2.2430 -0.6581
 9858TIP3    H251066   4.719   0.939  14.381 -0.5929 -2.8295  1.5079
 9859TIP3   OH251067   2.625   3.506  11.247  0.9725  0.1090 -0.2197
 9859TIP3    H151068   2.561   3.574  11.229 -1.5858 -1.8984  0.5734
 9859TIP3    H251069   2.653   3.475  11.161 -1.3362 -0.8078 -0.7075
 9860TIP3   OH251070   5.878   3.162   1.648 -0.2059 -0.3013 -0.7126
 9860TIP3    H151071   5.798   3.206   1.621  0.5297  1.5471 -0.0442
 9860TIP3    H251072   5.939   3.178   1.576 -0.3346 -1.4493 -1.0887
 9861TIP3   OH251073   2.816   2.418  16.918  0.5240  0.2835 -0.4391
 9861TIP3    H151074   2.723   2.423  16.942  0.8153  1.2209  0.5854
 9861TIP3    H251075   2.833   2.324  16.908 -1.1686  0.1558 -3.4316
 9862TIP3   OH251076   5.237   0.831  16.986 -0.2709  0.0447 -0.1087
 9862TIP3    H151077   5.272   0.874  16.908  0.0216  0.2927  0.1569
 9862TIP3    H251078   5.272   0.742  16.982  0.5655  0.3456  0.2587
 9863TIP3   OH251079   4.245   1.284   5.467 -0.3179 -0.3491 -0.0301
 9863TIP3    H151080   4.179   1.245   5.409  0.0822  0.4792 -1.0845
 9863TIP3    H251081   4.199   1.355   5.511 -0.5882 -0.8929  0.5715
 9864TIP3   OH251082   6.433   5.464   3.610  0.3758 -0.5776 -0.3696
 9864TIP3    H151083   6.477   5.515   3.678 -3.5391  1.4430  0.9898
 9864TIP3    H251084   6.478   5.489   3.529  1.1172  2.0838  0.7431
 9865TIP3   OH251085   5.312   4.801  12.269  0.1343 -0.9836 -0.5828
 9865TIP3    H151086   5.283   4.728  12.324  0.3083 -1.6146 -1.3069
 9865TIP3    H251087   5.316   4.764  12.181  0.5514 -0.1824 -0.9097
 9866TIP3   OH251088   4.473   2.461  12.867  0.1432 -0.0201  0.4410
 9866TIP3    H151089   4.565   2.479  12.849 -0.2079 -0.1374 -1.8263
 9866TIP3    H251090   4.472   2.425  12.955  2.4393 -1.2154  0.0553
 9867TIP3   OH251091   6.475   2.552  15.866  0.0695 -0.0875  0.4523
 9867TIP3    H151092   6.550   2.547  15.926  0.0104 -0.4757  0.4926
 9867TIP3    H251093   6.440   2.640  15.880  0.3792  0.0160  0.5987
 9868TIP3   OH251094   5.302   0.086   5.087  0.1248 -0.6181 -0.2885
 9868TIP3    H151095   5.374   0.033   5.120 -0.0193 -1.9727 -1.9692
 9868TIP3    H251096   5.339   0.134   5.013 -0.2081  0.2675  0.1041
 9869TIP3   OH251097   6.016   2.633   4.785  0.3191  0.6390  0.0805
 9869TIP3    H151098   5.939   2.630   4.729 -0.4853  2.2828  1.0257
 9869TIP3    H251099   6.065   2.710   4.754  0.2741  1.0931  1.0989
 9870TIP3   OH251100   3.089   0.646   2.936 -0.1494 -0.7063 -0.2641
 9870TIP3    H151101   3.021   0.690   2.885 -0.4964 -1.2973 -0.3188
 9870TIP3    H251102   3.067   0.553   2.930  0.7945 -0.9311 -0.4836
 9871TIP3   OH251103   6.561   3.993  14.161  0.6305  0.1510 -0.8251
 9871TIP3    H151104   6.573   4.046  14.240  2.1199 -1.0019 -0.2321
 9871TIP3    H251105   6.466   3.982  14.154  0.4742  0.0847  0.9376
 9872TIP3   OH251106   1.668   6.643  15.528 -0.6321  0.0005  0.5003
 9872TIP3    H151107   1.754   6.607  15.508 -0.2049  1.4207 -0.4243
 9872TIP3    H251108   1.631   6.584  15.593  0.2409 -1.7155 -0.4967
 9873TIP3   OH251109   2.730   4.203   4.658  0.4129 -0.3097 -0.3686
 9873TIP3    H151110   2.714   4.267   4.589  2.4068  1.8016  0.9668
 9873TIP3    H251111   2.807   4.154   4.628 -0.9471 -1.9921 -1.2631
 9874TIP3   OH251112   1.990   3.997   1.884 -0.0576 -0.2651  0.2878
 9874TIP3    H151113   2.084   3.983   1.891 -0.1339 -0.3552  1.2469
 9874TIP3    H251114   1.956   3.978   1.972 -0.9361  0.0037  0.0184
 9875TIP3   OH251115   5.151   3.372  16.149 -0.2553 -0.0870 -0.3439
 9875TIP3    H151116   5.196   3.452  16.120 -1.2794  0.8002  0.4203
 9875TIP3    H251117   5.060   3.384  16.120 -0.3720 -1.0773 -0.4076
 9876TIP3   OH251118   6.408   0.516  14.401 -0.0244 -0.3352  0.2890
 9876TIP3    H151119   6.470   0.550  14.336  1.2279  0.0434  1.6189
 9876TIP3    H251120   6.406   0.422  14.386  1.0414 -0.3802  0.3274
 9877TIP3   OH251121   1.389   4.562   4.646 -0.8367 -0.0147  0.3152
 9877TIP3    H151122   1.393   4.477   4.691 -3.0670  0.3689  1.3456
 9877TIP3    H251123   1.454   4.555   4.577 -0.6547 -2.4082  0.6439
 9878TIP3   OH251124   0.906   4.376   2.486 -0.1427  0.1384 -0.5610
 9878TIP3    H151125   0.955   4.324   2.550 -0.1745  0.6940 -0.0716
 9878TIP3    H251126   0.814   4.357   2.503 -0.1181 -1.3789 -1.8849
 9879TIP3   OH251127   5.460   6.586   6.356  0.0152 -0.5309 -0.6114
 9879TIP3    H151128   5.401   6.568   6.430 -1.3947  1.5656 -1.1306
 9879TIP3    H251129   5.547   6.564   6.389 -0.4448  1.1737  2.0530
 9880TIP3   OH251130   5.386   4.707  13.694  0.6517 -0.3015  0.0526
 9880TIP3    H151131   5.367   4.718  13.601  1.7722 -0.4367 -0.2022
 9880TIP3    H251132   5.439   4.783  13.717  1.9042 -1.1746  0.1345
 9881TIP3   OH251133   1.780   2.470  11.183 -0.1364  0.0573 -0.0081
 9881TIP3    H151134   1.791   2.375  11.184  2.7549  0.3118 -0.6258
 9881TIP3    H251135   1.742   2.488  11.097  0.2599 -0.4579 -0.3001
 9882TIP3   OH251136   3.163   4.000  14.614  0.1194 -0.1254 -0.5042
 9882TIP3    H151137   3.215   4.068  14.659 -0.1553  0.4066 -0.9770
 9882TIP3    H251138   3.076   4.008  14.653  0.4087 -1.1171  0.3926
 9883TIP3   OH251139   1.709   3.451   0.433  0.3590  0.1814  0.1643
 9883TIP3    H151140   1.762   3.401   0.495  0.6372  0.4845  0.1775
 9883TIP3    H251141   1.762   3.529   0.415 -0.6560  1.1383  1.1975
 9884TIP3   OH251142   0.794   0.584   3.678  0.8157 -0.0165 -0.3223
 9884TIP3    H151143   0.702   0.591   3.705  0.3430 -3.9849 -0.1630
 9884TIP3    H251144   0.843   0.631   3.745 -0.9288 -1.2846  1.9823
 9885TIP3   OH251145   4.677   6.663   5.611  0.8072 -0.1826 -0.2040
 9885TIP3    H151146   4.682   6.758   5.618  0.4407  0.1284 -2.9612
 9885TIP3    H251147   4.592   6.640   5.650  0.5370  0.7134 -0.2488
 9886TIP3   OH251148   0.171   6.474   2.025  0.3470  0.4591  0.1876
 9886TIP3    H151149   0.154   6.389   2.065 -0.1048  1.0494  1.3029
 9886TIP3    H251150   0.266   6.484   2.029  0.4516 -0.1777 -0.3886
 9887TIP3   OH251151   1.557   0.981   4.254 -0.2997 -0.3923  0.7935
 9887TIP3    H151152   1.578   1.044   4.186 -1.7857  0.1389  0.7949
 9887TIP3    H251153   1.513   0.910   4.208  1.2297 -1.4093  0.8122
 9888TIP3   OH251154   0.351   5.880   2.836  0.1104  0.0795  0.4163
 9888TIP3    H151155   0.257   5.892   2.821  0.4072 -1.1364 -3.5896
 9888TIP3    H251156   0.392   5.951   2.786  1.3123 -0.9493 -0.1053
 9889TIP3   OH251157   6.448   6.013   1.936  0.2438  0.5704  0.3288
 9889TIP3    H151158   6.437   6.105   1.912  0.1613  0.8280  1.3100
 9889TIP3    H251159   6.369   5.991   1.985 -0.3724 -0.4302 -1.0375
 9890TIP3   OH251160   3.577   4.571   2.564 -0.0343  0.5892  0.3502
 9890TIP3    H151161   3.599   4.624   2.488  0.4295  0.0507  0.1042
 9890TIP3    H251162   3.649   4.508   2.572  0.2914  1.0999  1.6632
 9891TIP3   OH251163   2.361   2.580  13.620 -0.2436  0.2935 -0.4857
 9891TIP3    H151164   2.378   2.667  13.585 -1.3980  0.9793  0.5499
 9891TIP3    H251165   2.337   2.527  13.544  2.5970  0.2395 -1.4515
 9892TIP3   OH251166   2.300   5.094  15.814 -0.1495  0.0779  0.4933
 9892TIP3    H151167   2.366   5.145  15.767 -0.4451 -0.0516 -0.0686
 9892TIP3    H251168   2.218   5.110  15.766 -1.1880  2.5581  2.8153
 9893TIP3   OH251169   0.740   0.777  16.551  0.0151  0.0342  0.4470
 9893TIP3    H151170   0.828   0.765  16.515 -0.4243  2.2350 -1.6182
 9893TIP3    H251171   0.752   0.837  16.625  0.3420 -0.4319  0.7758
 9894TIP3   OH251172   3.317   3.078   2.446  0.7070  0.5643 -0.4906
 9894TIP3    H151173   3.312   3.069   2.350  3.5313 -0.6155 -0.6165
 9894TIP3    H251174   3.282   2.995   2.479 -1.5255  1.4874 -0.3706
 9895TIP3   OH251175   0.305   2.156  14.548  0.3093 -0.2816  0.1335
 9895TIP3    H151176   0.354   2.074  14.551 -2.9095 -2.3238  0.8534
 9895TIP3    H251177   0.287   2.169  14.455  1.3269 -0.0219 -0.0407
 9896TIP3   OH251178   0.601   5.522  13.287 -0.0326  0.7653  0.5096
 9896TIP3    H151179   0.599   5.452  13.223  1.6367  1.6153 -0.5580
 9896TIP3    H251180   0.674   5.500  13.345 -0.5883  0.7611  1.2253
 9897TIP3   OH251181   5.927   4.687   4.495  0.3215  0.2344 -0.4204
 9897TIP3    H151182   5.958   4.674   4.584 -0.0185  1.0245 -0.1789
 9897TIP3    H251183   5.942   4.602   4.452  0.1749 -0.2559  0.4702
 9898TIP3   OH251184   0.531   3.335  10.392 -0.4242  0.0702 -0.4750
 9898TIP3    H151185   0.452   3.315  10.342  0.9996 -1.4872 -2.2409
 9898TIP3    H251186   0.559   3.251  10.428  1.6077  0.1284 -1.7751
 9899TIP3   OH251187   6.479   5.802  14.583  0.4118 -0.1842  0.0474
 9899TIP3    H151188   6.407   5.796  14.520  0.0693 -0.6389  0.4834
 9899TIP3    H251189   6.520   5.887  14.564  0.6985 -0.5771 -1.1982
 9900TIP3   OH251190   0.034   2.529   3.588  0.3021 -1.0336 -0.3435
 9900TIP3    H151191   0.104   2.544   3.525 -0.6394 -0.6226 -1.3228
 9900TIP3    H251192  -0.022   2.463   3.547 -0.6150 -0.3737 -0.1888
 9901TIP3   OH251193   4.383   6.555   5.012  0.1197 -0.0366  0.2064
 9901TIP3    H151194   4.301   6.509   5.029  0.8584 -1.3820  0.2241
 9901TIP3    H251195   4.402   6.538   4.920  0.2231  0.5314  0.1178
 9902TIP3   OH251196   0.093   2.316  16.135 -0.3139 -0.2561 -0.3434
 9902TIP3    H151197   0.163   2.317  16.070 -1.2685  0.5250 -1.3937
 9902TIP3    H251198   0.062   2.225  16.135  0.7085 -0.6253  0.1722
 9903TIP3   OH251199   3.147   0.424  14.578  0.5089  0.2309  0.1566
 9903TIP3    H151200   3.152   0.336  14.614  0.8771 -0.2530 -1.0598
 9903TIP3    H251201   3.215   0.428  14.511  1.0189  1.6965  0.7100
 9904TIP3   OH251202   3.633   3.557  15.313  0.0750 -0.4557  0.2824
 9904TIP3    H151203   3.585   3.562  15.230  1.8605 -0.5930 -0.8007
 9904TIP3    H251204   3.722   3.531  15.288  0.4439 -1.3688  2.3258
 9905TIP3   OH251205   2.314   4.921   6.637 -0.3345 -0.0763 -0.0995
 9905TIP3    H151206   2.228   4.897   6.603 -0.4503  1.6181 -1.1185
 9905TIP3    H251207   2.329   5.010   6.605  1.2850  0.1257  1.0596
 9906TIP3   OH251208   4.756   5.968  16.933 -0.1914  0.1108 -0.4441
 9906TIP3    H151209   4.698   5.900  16.967  1.6111 -0.2348  2.3383
 9906TIP3    H251210   4.701   6.046  16.926 -1.3601 -0.5964  0.5169
 9907TIP3   OH251211   0.467   2.245   1.565  0.2082 -0.0867 -0.3775
 9907TIP3    H151212   0.490   2.272   1.654 -0.1099 -4.5363  1.3105
 9907TIP3    H251213   0.388   2.192   1.576  0.3097 -1.0141 -3.2980
 9908TIP3   OH251214   0.872   2.497   2.617  0.7652 -0.0550  0.5366
 9908TIP3    H151215   0.798   2.537   2.571  0.5406  0.4703  1.3313
 9908TIP3    H251216   0.947   2.511   2.559  0.3132 -0.2424 -0.0962
 9909TIP3   OH251217   0.259   4.978  16.207  0.8219  0.5234  0.4240
 9909TIP3    H151218   0.327   4.912  16.200 -1.0435 -1.8556  2.8709
 9909TIP3    H251219   0.251   5.014  16.118  2.4923 -1.9213 -0.8106
 9910TIP3   OH251220   2.770   1.342   2.067  0.2122  0.0294 -0.2983
 9910TIP3    H151221   2.789   1.310   1.979 -1.3949 -0.4129 -0.5034
 9910TIP3    H251222   2.808   1.275   2.125  0.1281 -0.3378 -0.6655
 9911TIP3   OH251223   1.156   5.560  10.700 -0.0100  0.1653  0.1600
 9911TIP3    H151224   1.180   5.470  10.678 -1.5004 -0.1433 -0.3083
 9911TIP3    H251225   1.107   5.591  10.624  0.2960  1.3142  0.4077
 9912TIP3   OH251226   1.883   2.724   4.523  0.3442 -0.2799  0.1546
 9912TIP3    H151227   1.962   2.755   4.566  0.0240  1.1448 -0.2464
 9912TIP3    H251228   1.907   2.718   4.430  0.6652 -2.1538  0.3127
 9913TIP3   OH251229   2.957   0.933   0.397 -0.4996 -0.1294 -0.4582
 9913TIP3    H151230   2.921   1.015   0.363 -1.2307  1.1043  2.8818
 9913TIP3    H251231   3.026   0.961   0.457 -2.0962 -1.7036  2.3402
 9914TIP3   OH251232   4.068   1.535   2.764  0.4628  0.1758 -0.1537
 9914TIP3    H151233   4.048   1.576   2.848  0.2924  2.4776 -1.2351
 9914TIP3    H251234   4.099   1.608   2.709  1.9716 -1.4965 -1.6510
 9915TIP3   OH251235   0.623   1.926  10.188 -0.0564 -0.0233 -0.5964
 9915TIP3    H151236   0.582   1.856  10.238  0.2010  0.9596  1.0496
 9915TIP3    H251237   0.554   1.992  10.178  0.8214  1.2994  1.5221
 9916TIP3   OH251238   3.906   3.700   0.756 -0.3537 -0.3745 -0.1927
 9916TIP3    H151239   3.921   3.785   0.797  1.3257 -0.2799 -0.9213
 9916TIP3    H251240   3.839   3.716   0.690  0.1353  0.4588 -0.5054
 9917TIP3   OH251241   5.128   3.266  15.588 -0.2350 -0.1648 -0.0652
 9917TIP3    H151242   5.048   3.223  15.615  0.4893 -1.1381  0.6079
 9917TIP3    H251243   5.149   3.227  15.502 -0.7135  0.4288 -0.4605
 9918TIP3   OH251244   3.173   0.324  12.655 -0.3813 -0.2362 -0.0073
 9918TIP3    H151245   3.101   0.345  12.715 -0.5001 -0.3607 -0.1074
 9918TIP3    H251246   3.166   0.230  12.641 -1.4111  0.0422 -1.5800
 9919TIP3   OH251247   6.608   0.007   1.396  0.4432 -1.2861  0.1521
 9919TIP3    H151248   6.600  -0.002   1.301 -0.8095  0.0354  0.1073
 9919TIP3    H251249   6.557  -0.066   1.431  0.1038 -1.2147 -0.1848
 9920TIP3   OH251250   0.282   1.753   0.875 -0.4172  0.1815 -0.3679
 9920TIP3    H151251   0.243   1.745   0.963 -0.5352  1.3178 -0.3022
 9920TIP3    H251252   0.310   1.844   0.870 -0.5595  0.1664 -1.5793
 9921TIP3   OH251253   3.053   1.919   2.571  0.0694 -0.1507 -0.3170
 9921TIP3    H151254   2.965   1.900   2.602  0.7332  0.3682  2.0998
 9921TIP3    H251255   3.049   2.010   2.543 -0.7635 -0.8847 -2.7926
 9922TIP3   OH251256   6.015   2.918   5.089 -0.2904 -0.5036  0.2867
 9922TIP3    H151257   6.047   3.001   5.054 -0.3949 -0.2640  0.7477
 9922TIP3    H251258   6.027   2.925   5.184 -0.1440 -1.0821  0.3201
 9923TIP3   OH251259   2.876   2.398   1.086 -0.2218 -0.3938 -0.2592
 9923TIP3    H151260   2.949   2.365   1.034 -0.7877  0.6901 -1.7817
 9923TIP3    H251261   2.854   2.325   1.144  0.0747 -1.8750 -1.9206
 9924TIP3   OH251262   3.879   4.041   0.457  0.1723 -0.0900  0.2850
 9924TIP3    H151263   3.945   3.984   0.417 -0.6591  0.6574 -2.3889
 9924TIP3    H251264   3.928   4.118   0.486  0.7898 -0.5871  0.5844
 9925TIP3   OH251265   4.553   4.852   3.641  0.1143  0.3276 -0.1654
 9925TIP3    H151266   4.513   4.834   3.556  0.1391  0.6535 -0.2489
 9925TIP3    H251267   4.522   4.940   3.664 -0.2077  0.0820  0.3505
 9926TIP3   OH251268   4.147   6.220   1.044  0.6393 -0.1962  0.0070
 9926TIP3    H151269   4.087   6.289   1.015  2.4500  1.2335 -0.4804
 9926TIP3    H251270   4.233   6.247   1.013  2.0054 -0.8686  2.8566
 9927TIP3   OH251271   5.885   2.676   5.881 -0.7771  0.1321  0.6269
 9927TIP3    H151272   5.881   2.584   5.906 -1.0385 -0.4986 -1.5355
 9927TIP3    H251273   5.924   2.720   5.957 -1.1961 -1.6384  1.9369
 9928TIP3   OH251274   6.023   0.704   6.361 -0.0459  0.3061 -0.1023
 9928TIP3    H151275   5.958   0.660   6.306 -0.8636  1.2394  0.0952
 9928TIP3    H251276   6.001   0.797   6.356  0.8584  0.5703  0.5165
 9929TIP3   OH251277   5.092   6.112  10.705  0.0926  0.2444  0.5050
 9929TIP3    H151278   5.131   6.079  10.786 -2.4275  1.8998  2.5636
 9929TIP3    H251279   5.021   6.170  10.735 -0.3347  1.7003 -2.8978
 9930TIP3   OH251280   5.996   4.156  15.380 -0.1016 -0.2373 -0.7082
 9930TIP3    H151281   6.018   4.241  15.342 -1.9030  0.1003 -1.0693
 9930TIP3    H251282   5.937   4.176  15.452 -0.0064 -1.1380 -0.3716
 9931TIP3   OH251283   4.784   5.342   4.284 -0.0861  0.4299 -0.0231
 9931TIP3    H151284   4.726   5.266   4.277  0.3465 -0.1382  1.8470
 9931TIP3    H251285   4.739   5.412   4.236 -0.1887 -1.1450 -2.3500
 9932TIP3   OH251286   1.006   2.371   3.131  0.0433 -0.4527  0.4660
 9932TIP3    H151287   1.051   2.295   3.094  0.2013 -1.9257  3.4083
 9932TIP3    H251288   0.927   2.379   3.077  1.7932 -0.2721 -2.2726
 9933TIP3   OH251289   3.994   5.066  16.199 -0.0625 -0.0642  0.8204
 9933TIP3    H151290   3.998   5.072  16.295  0.4880 -2.0202  0.9587
 9933TIP3    H251291   3.942   4.988  16.182  0.0752  0.1089 -0.4884
 9934TIP3   OH251292   4.387   1.615  14.773  0.0461 -0.0492  0.0445
 9934TIP3    H151293   4.479   1.594  14.762  0.0065  0.1121 -0.6045
 9934TIP3    H251294   4.373   1.694  14.721 -0.2674  0.4299  0.8280
 9935TIP3   OH251295   2.466   2.199   2.767  0.0086  0.8696  0.8573
 9935TIP3    H151296   2.386   2.149   2.752  0.8366  0.3596 -2.6253
 9935TIP3    H251297   2.441   2.290   2.747  0.3149  0.6678 -0.5313
 9936TIP3   OH251298   5.942   5.477   1.645 -0.3048 -0.6395 -0.0983
 9936TIP3    H151299   6.014   5.456   1.704  1.9118  0.0876 -2.3592
 9936TIP3    H251300   5.891   5.396   1.640  1.3815 -1.7863  0.2101
 9937TIP3   OH251301   3.965   4.749  14.503  0.6770 -0.4296 -0.2208
 9937TIP3    H151302   4.012   4.712  14.578  0.2183 -1.5414 -0.4617
 9937TIP3    H251303   3.938   4.673  14.452  0.6368  0.3041 -1.3120
 9938TIP3   OH251304   4.638   1.349  16.219 -0.3478  0.1137  0.2080
 9938TIP3    H151305   4.674   1.430  16.257 -1.2516  0.2481  0.8099
 9938TIP3    H251306   4.595   1.305  16.293 -2.1402  0.3676 -0.6417
 9939TIP3   OH251307   4.157   4.194  16.606  0.2230 -0.3487 -0.3471
 9939TIP3    H151308   4.230   4.183  16.546  0.6737  0.4414  0.0555
 9939TIP3    H251309   4.176   4.135  16.678  1.9925  1.9420  1.1840
 9940TIP3   OH251310   4.002   5.406   3.076 -0.2362  0.1649  0.4844
 9940TIP3    H151311   4.048   5.423   2.994  0.7960 -0.4044  0.9188
 9940TIP3    H251312   3.930   5.349   3.052 -0.6804  0.9881 -0.1997
 9941TIP3   OH251313   1.514   6.324  11.191 -0.1808 -0.0139 -0.1758
 9941TIP3    H151314   1.511   6.381  11.268 -1.0560  0.0933 -0.2775
 9941TIP3    H251315   1.534   6.382  11.119  1.4490 -0.2363  0.0659
 9942TIP3   OH251316   1.613   2.544  10.955 -0.5099 -0.2095 -0.1011
 9942TIP3    H151317   1.649   2.603  10.889  0.5839  1.5513  1.9280
 9942TIP3    H251318   1.591   2.464  10.907  1.0792  0.6315 -2.3926
 9943TIP3   OH251319   2.756   0.771  16.952 -0.0436 -0.0976  1.0700
 9943TIP3    H151320   2.845   0.752  16.922  0.0212 -0.5036  1.5023
 9943TIP3    H251321   2.702   0.704  16.909 -0.4778  1.4004 -0.8727
 9944TIP3   OH251322   2.876   3.440   5.926 -0.3012  0.7045  0.1027
 9944TIP3    H151323   2.934   3.503   5.883 -0.0569 -0.3730 -1.2068
 9944TIP3    H251324   2.936   3.375   5.964 -0.6093  0.2101 -0.2566
 9945TIP3   OH251325   0.697   4.156   3.327 -0.1631  0.3806  0.2357
 9945TIP3    H151326   0.688   4.220   3.398  3.2375 -0.1381  1.3053
 9945TIP3    H251327   0.655   4.077   3.360 -0.9780  0.9122  0.5061
 9946TIP3   OH251328   6.580   1.890   0.725 -0.0736 -0.2797 -0.1432
 9946TIP3    H151329   6.668   1.892   0.686  0.0740  2.2102  0.1712
 9946TIP3    H251330   6.568   1.799   0.753  1.4359 -1.2356 -2.2935
 9947TIP3   OH251331   6.419   2.811  16.832 -0.3049  0.6761  0.1671
 9947TIP3    H151332   6.387   2.756  16.903 -2.8411  0.5774 -0.9447
 9947TIP3    H251333   6.485   2.758  16.788 -1.5805 -0.8903  0.0608
 9948TIP3   OH251334   3.387   2.077  13.163  0.3155  0.0964  0.1064
 9948TIP3    H151335   3.430   2.131  13.097  1.1034 -1.6159 -0.8447
 9948TIP3    H251336   3.308   2.126  13.186  0.9766  1.6331 -0.6919
 9949TIP3   OH251337   6.084   6.412  12.408  0.2346 -0.2228  0.3509
 9949TIP3    H151338   6.085   6.399  12.313  2.2602 -1.6291  0.4954
 9949TIP3    H251339   5.998   6.380  12.436  0.9060 -3.3193 -0.6774
 9950TIP3   OH251340   1.510   5.518   2.067  0.2375  0.2995 -0.0216
 9950TIP3    H151341   1.446   5.452   2.041  1.4599 -0.3432 -1.5338
 9950TIP3    H251342   1.493   5.533   2.160  1.3881 -3.8500  1.0419
 9951TIP3   OH251343   1.648   4.724  16.668  0.3214 -0.5000  0.1507
 9951TIP3    H151344   1.650   4.684  16.755  0.1572  1.0275  0.8941
 9951TIP3    H251345   1.708   4.798  16.675  1.3647 -1.1566 -1.4790
 9952TIP3   OH251346   6.666   1.592   4.797  0.3536 -0.0211  0.1491
 9952TIP3    H151347   6.596   1.640   4.754  0.9496  0.1536 -0.6477
 9952TIP3    H251348   6.623   1.547   4.870 -0.2945  1.3149  0.6165
 9953TIP3   OH251349   2.082   5.190   3.095  0.3095  0.1379 -0.2256
 9953TIP3    H151350   2.035   5.120   3.049 -0.7887  1.8248 -1.7835
 9953TIP3    H251351   2.173   5.163   3.094 -0.1214 -1.4091 -0.5092
 9954TIP3   OH251352   6.768   1.656   3.736  0.2633 -0.1433  0.5338
 9954TIP3    H151353   6.823   1.732   3.720  1.8307 -1.1158  1.0680
 9954TIP3    H251354   6.679   1.689   3.730  0.8992  1.6721  0.5098
 9955TIP3   OH251355   2.981   4.547  14.845 -0.2541 -0.3861  0.1712
 9955TIP3    H151356   2.929   4.569  14.923 -0.4142  0.1207 -0.0726
 9955TIP3    H251357   2.998   4.453  14.853  1.5648  0.0210  1.9322
 9956TIP3   OH251358   6.018   4.102  12.650  0.1058 -0.1394 -0.1521
 9956TIP3    H151359   5.963   4.025  12.663 -1.2883  1.2095  2.9465
 9956TIP3    H251360   5.961   4.176  12.670  2.1009  1.5573 -0.3774
 9957TIP3   OH251361   4.937   0.857   4.155 -0.5679  0.0133 -0.7619
 9957TIP3    H151362   4.849   0.894   4.168 -0.0297  0.7219  1.1617
 9957TIP3    H251363   4.976   0.912   4.087 -0.7228  1.4006  0.2126
 9958TIP3   OH251364   0.320   1.661   5.531 -0.5277 -0.1222  0.2932
 9958TIP3    H151365   0.247   1.698   5.581 -2.1116 -2.2264 -0.3071
 9958TIP3    H251366   0.376   1.620   5.598  0.3202  1.7453  0.7845
 9959TIP3   OH251367   4.847   5.382   2.275  0.5701  0.3239 -0.1015
 9959TIP3    H151368   4.900   5.452   2.237  0.1503  0.8377  0.2551
 9959TIP3    H251369   4.778   5.427   2.324  1.3347 -0.3208  1.6273
 9960TIP3   OH251370   0.305   5.238  11.691  0.0806  0.3880 -0.0103
 9960TIP3    H151371   0.298   5.332  11.708  0.2457  0.2990  0.5751
 9960TIP3    H251372   0.399   5.222  11.682  0.0653  0.2421  0.0929
 9961TIP3   OH251373   6.113   2.410  13.171 -0.4948  0.3288  0.7409
 9961TIP3    H151374   6.200   2.371  13.177 -0.1035  1.0903  0.2218
 9961TIP3    H251375   6.056   2.337  13.147  0.2465  0.0950 -0.4015
 9962TIP3   OH251376   3.322   6.024  12.303  0.5400  0.4287  0.7224
 9962TIP3    H151377   3.340   5.988  12.216  1.7203 -0.8286  1.4464
 9962TIP3    H251378   3.231   6.001  12.320  0.1499  1.1089 -0.3600
 9963TIP3   OH251379   1.371   1.015  14.877 -0.1009 -0.0562  0.1009
 9963TIP3    H151380   1.386   0.982  14.966  1.9286  0.7943  0.1341
 9963TIP3    H251381   1.280   1.043  14.877  0.4705  2.2855  2.7909
 9964TIP3   OH251382   1.001   0.592   5.543 -0.5515  0.1203 -0.0695
 9964TIP3    H151383   0.970   0.508   5.577  1.7287 -0.3788  0.9782
 9964TIP3    H251384   0.981   0.655   5.612  0.1863 -0.0934  0.3507
 9965TIP3   OH251385   2.053   1.312   5.350  0.6205 -0.4992  0.4607
 9965TIP3    H151386   1.975   1.288   5.401  0.4827  0.4856  0.7301
 9965TIP3    H251387   2.071   1.235   5.297 -1.1524 -0.3741 -0.3848
 9966TIP3   OH251388   5.752   5.559   2.195  0.6034  0.2450 -0.4675
 9966TIP3    H151389   5.795   5.525   2.117 -1.8584 -1.2609 -1.2647
 9966TIP3    H251390   5.658   5.555   2.176 -0.0733  0.6709  2.2292
 9967TIP3   OH251391   3.293   0.370  13.670  0.0869 -0.1021  0.0630
 9967TIP3    H151392   3.349   0.438  13.709 -0.7124  1.1475 -0.8690
 9967TIP3    H251393   3.353   0.317  13.618  0.8616 -0.6381  1.4396
 9968TIP3   OH251394   2.799   2.392   2.722 -0.1945  0.5798 -0.1402
 9968TIP3    H151395   2.860   2.466   2.733  0.5548 -0.0607  0.1768
 9968TIP3    H251396   2.737   2.402   2.795  0.5968  0.2636  0.6000
 9969TIP3   OH251397   2.634   0.011  14.844 -0.1963  1.0570  1.2069
 9969TIP3    H151398   2.589   0.092  14.869  0.8618  1.8679  0.5620
 9969TIP3    H251399   2.565  -0.042  14.802 -0.8969  1.6101  1.6288
 9970TIP3   OH251400   3.756   3.217   3.227 -0.1529  0.3248 -0.4823
 9970TIP3    H151401   3.680   3.162   3.245 -0.1912  0.9699  1.4899
 9970TIP3    H251402   3.732   3.304   3.261  1.0054  0.8438 -0.9279
 9971TIP3   OH251403   2.839   2.494   0.733  0.2283 -0.0663  0.3417
 9971TIP3    H151404   2.910   2.469   0.792 -0.0746 -0.7201  0.4408
 9971TIP3    H251405   2.879   2.497   0.647  0.6583  0.8214  0.5655
 9972TIP3   OH251406   2.172   2.435   1.674  0.1257  0.0051 -0.5649
 9972TIP3    H151407   2.239   2.405   1.736  0.6275  0.0732 -1.0672
 9972TIP3    H251408   2.156   2.359   1.619 -0.2778 -0.0360 -0.3927
 9973TIP3   OH251409   0.137   0.760   1.013  0.0179  0.6132 -0.5458
 9973TIP3    H151410   0.158   0.853   1.004  0.4284  0.9404  2.5995
 9973TIP3    H251411   0.142   0.744   1.107  3.2422 -3.3353 -1.1298
 9974TIP3   OH251412   0.475   3.590  10.531  0.4033  0.2219  0.0419
 9974TIP3    H151413   0.518   3.551  10.455  0.6245  1.2943 -0.3967
 9974TIP3    H251414   0.544   3.639  10.576  0.5885 -1.4323  1.6906
 9975TIP3   OH251415   6.655   2.537   4.311 -1.2340  0.1399 -0.3391
 9975TIP3    H151416   6.748   2.560   4.307 -1.1890 -0.0746 -0.5990
 9975TIP3    H251417   6.655   2.444   4.334 -1.3707  0.0132 -0.8401
 9976TIP3   OH251418   3.377   1.304   5.521  0.3086  0.0600 -0.1802
 9976TIP3    H151419   3.392   1.284   5.614 -0.2931  1.7304  0.3156
 9976TIP3    H251420   3.335   1.226   5.486 -1.8435  0.3257  1.6121
 9977TIP3   OH251421   0.419   5.063  13.691 -0.7367 -0.2737  0.6198
 9977TIP3    H151422   0.412   5.096  13.601 -2.8621  0.9227  1.1683
 9977TIP3    H251423   0.508   5.086  13.718 -0.2049 -0.2638 -1.0106
 9978TIP3   OH251424   4.514   5.393  14.840 -0.0840  0.3586 -0.2152
 9978TIP3    H151425   4.466   5.453  14.897 -0.1389 -0.0124  0.1368
 9978TIP3    H251426   4.525   5.441  14.758 -0.1682  0.8282  0.0453
 9979TIP3   OH251427   6.608   3.866  11.755  0.1156 -0.1414 -0.3351
 9979TIP3    H151428   6.567   3.860  11.668 -0.2632 -1.2968 -0.0852
 9979TIP3    H251429   6.535   3.872  11.816  0.3881  1.1612 -0.1071
 9980TIP3   OH251430   2.110   5.861  12.686  0.4728  0.2299 -0.5394
 9980TIP3    H151431   2.196   5.900  12.668  0.6493  0.0447 -0.1110
 9980TIP3    H251432   2.131   5.772  12.716  0.0565 -0.4701 -2.1892
 9981TIP3   OH251433   0.153   4.358   3.001 -0.2595  0.4956  0.4575
 9981TIP3    H151434   0.204   4.376   2.922 -1.2420  2.4381  0.1890
 9981TIP3    H251435   0.217   4.334   3.067  0.6287 -0.6435 -0.7740
 9982TIP3   OH251436   5.867   5.209  12.487  0.1373  0.7929 -0.0380
 9982TIP3    H151437   5.789   5.186  12.437  0.9728  0.8849 -1.4193
 9982TIP3    H251438   5.922   5.258  12.426  0.9357  1.4344  1.1469
 9983TIP3   OH251439   0.877   5.654  13.322 -0.1873 -0.0119  0.0411
 9983TIP3    H151440   0.804   5.713  13.340 -1.9458 -1.2402 -2.4519
 9983TIP3    H251441   0.872   5.588  13.391 -2.3321 -0.7666 -0.7225
 9984TIP3   OH251442   4.312   6.428   5.795  1.0946 -0.5848  0.3469
 9984TIP3    H151443   4.266   6.396   5.872  2.1441  0.1864  1.3372
 9984TIP3    H251444   4.247   6.479   5.747  1.2439  2.0054  2.6349
 9985TIP3   OH251445   2.947   0.647  16.126  1.2002  0.5072 -0.2002
 9985TIP3    H151446   2.883   0.599  16.179  2.0166  1.9796  2.3197
 9985TIP3    H251447   2.922   0.630  16.036 -1.7330 -0.2990  0.6582
 9986TIP3   OH251448   3.847   2.958  13.093 -0.0546 -0.6015  0.1127
 9986TIP3    H151449   3.785   2.889  13.071  1.1904 -1.8226  0.2197
 9986TIP3    H251450   3.857   3.009  13.013 -1.6689  0.0355  0.2912
 9987TIP3   OH251451   1.941   6.333  16.756 -0.2798 -0.1920 -0.1930
 9987TIP3    H151452   2.002   6.357  16.687  1.0113 -0.0492  0.9699
 9987TIP3    H251453   1.959   6.393  16.828 -1.0683 -0.8213  0.5660
 9988TIP3   OH251454   4.171   3.250  16.122  0.2985  0.1190  0.1212
 9988TIP3    H151455   4.132   3.333  16.150 -0.1347  0.1842 -0.6343
 9988TIP3    H251456   4.144   3.187  16.189 -0.5786  0.3008 -0.0440
 9989TIP3   OH251457   4.257   0.899   0.107 -0.8492  0.2541 -0.2711
 9989TIP3    H151458   4.341   0.855   0.120 -0.4897  1.2540  1.0412
 9989TIP3    H251459   4.191   0.831   0.124 -0.2998  0.1131  1.4575
 9990TIP3   OH251460   0.548   0.097  12.042 -0.2545 -0.0108 -0.4270
 9990TIP3    H151461   0.550   0.002  12.057 -0.7800  0.1615  0.8065
 9990TIP3    H251462   0.561   0.135  12.129 -0.6062  1.0556 -0.8345
 9991TIP3   OH251463   1.596   5.392  11.812  0.0026  0.2520  0.1747
 9991TIP3    H151464   1.690   5.379  11.827 -0.2757  0.4185  2.3894
 9991TIP3    H251465   1.584   5.487  11.813 -0.0778  0.2844 -1.2118
 9992TIP3   OH251466   3.075   4.285  14.795  0.1076  0.3841  0.0380
 9992TIP3    H151467   3.159   4.239  14.790  0.1000  0.5006 -2.0453
 9992TIP3    H251468   3.027   4.240  14.864  1.4193 -0.4520  0.4517
 9993TIP3   OH251469   5.749   1.511  17.004 -0.0464  0.3054 -0.1385
 9993TIP3    H151470   5.733   1.605  17.014 -2.2597  0.0674 -0.7403
 9993TIP3    H251471   5.669   1.478  16.962 -0.1098 -2.1392  1.6566
 9994TIP3   OH251472   5.252   5.537   2.955  0.1257 -0.0927 -0.6325
 9994TIP3    H151473   5.214   5.623   2.972 -0.5462 -0.4673 -0.2000
 9994TIP3    H251474   5.330   5.555   2.902 -0.4728  0.7110 -1.2585
 9995TIP3   OH251475   3.156   4.733  13.408 -1.0285 -0.7270 -0.0801
 9995TIP3    H151476   3.126   4.725  13.318 -2.2703 -1.5137  0.3739
 9995TIP3    H251477   3.207   4.815  13.410 -1.0491 -0.6656 -1.4571
 9996TIP3   OH251478   3.120   5.556   6.315  0.2719  0.0425 -0.6102
 9996TIP3    H151479   3.140   5.463   6.305 -0.7890 -0.4691  1.4256
 9996TIP3    H251480   3.194   5.592   6.364 -0.8272 -0.5240  1.5792
 9997TIP3   OH251481   2.045   6.395  14.848  0.4568  0.1993 -0.1086
 9997TIP3    H151482   2.087   6.341  14.915  2.0188  2.4340  0.8374
 9997TIP3    H251483   2.111   6.402  14.779  0.4525  1.2551 -0.0107
 9998TIP3   OH251484   1.473   1.894   3.385  0.1469  0.0820  0.4853
 9998TIP3    H151485   1.426   1.836   3.444 -1.9127  0.1602 -0.9737
 9998TIP3    H251486   1.463   1.982   3.423  1.5267 -0.2146  1.6138
 9999TIP3   OH251487   1.742   0.010   0.207 -0.7625 -0.1461  0.7735
 9999TIP3    H151488   1.770   0.101   0.215  0.8502 -0.6389  1.0609
 9999TIP3    H251489   1.720  -0.000   0.114  0.3513  0.1927  0.4561
10000TIP3   OH251490   4.896   1.208  14.768  0.5208  0.1443 -0.4008
10000TIP3    H151491   4.882   1.178  14.678  0.0976 -0.6892 -0.0678
10000TIP3    H251492   4.808   1.222  14.803  0.5358 -2.0857  0.6972
10001TIP3   OH251493   0.837   4.654   2.241  0.1953  0.5248  0.2312
10001TIP3    H151494   0.875   4.698   2.317 -2.3648  2.9651  0.2643
10001TIP3    H251495   0.767   4.600   2.278 -0.5869  1.1532 -0.3049
10002TIP3   OH251496   3.966   5.697  15.243  0.4026  0.7336 -0.4349
10002TIP3    H151497   3.928   5.727  15.161  1.1096  3.1491  0.0515
10002TIP3    H251498   3.966   5.774  15.300  1.3392 -0.4735  1.3071
10003TIP3   OH251499   6.216   4.921   1.649 -0.4010 -0.1947  0.2285
10003TIP3    H151500   6.282   4.858   1.680  1.1787  0.9328 -0.6888
10003TIP3    H251501   6.245   4.945   1.561 -0.9571  1.8008  0.5338
10004TIP3   OH251502   0.584   2.063   3.527  0.3343 -0.2673  0.2704
10004TIP3    H151503   0.515   2.099   3.471  0.8396  1.4816  0.6986
10004TIP3    H251504   0.617   1.987   3.480 -0.5528  0.0337 -0.8798
10005TIP3   OH251505   1.308   1.194   4.247 -0.2612 -0.0745  0.1845
10005TIP3    H151506   1.399   1.184   4.220 -0.0151  0.2062  0.9108
10005TIP3    H251507   1.271   1.105   4.241  0.0378 -0.1754 -0.1734
10006TIP3   OH251508   2.959   2.463   1.835 -0.1415 -0.6547  0.1797
10006TIP3    H151509   3.039   2.501   1.799 -1.2094  0.9101 -0.6488
10006TIP3    H251510   2.987   2.378   1.869  1.8218 -0.2519 -0.2692
10007TIP3   OH251511   2.052   4.796   4.477  0.1377  0.1106 -0.7046
10007TIP3    H151512   1.991   4.723   4.475  0.4726 -0.1698 -0.7152
10007TIP3    H251513   2.011   4.863   4.422 -1.5927  1.0713  1.5811
10008TIP3   OH251514   2.592   1.310   5.349  0.6184  1.0517 -0.3874
10008TIP3    H151515   2.643   1.230   5.363 -0.9812  0.2048  0.9595
10008TIP3    H251516   2.649   1.365   5.295  1.3628 -1.3617 -2.2430
10009TIP3   OH251517   4.417   5.993   0.249 -0.1097 -0.1659  0.3311
10009TIP3    H151518   4.502   6.036   0.244 -0.6154  0.9136  0.5799
10009TIP3    H251519   4.433   5.903   0.222  1.0650  0.0812  0.1702
10010TIP3   OH251520   0.076   1.748  12.151 -0.1388  0.6906 -0.6363
10010TIP3    H151521   0.027   1.767  12.231  0.7677  0.9522 -0.1272
10010TIP3    H251522   0.050   1.659  12.128 -1.2334  1.0060 -0.6723
10011TIP3   OH251523   0.606   0.625  17.121  0.0901 -0.3229 -0.0038
10011TIP3    H151524   0.592   0.661  17.034 -2.5493 -1.6439 -0.2389
10011TIP3    H251525   0.634   0.699  17.174 -0.8210  1.0878 -1.4157
10012TIP3   OH251526   1.070   5.002   0.698 -0.1014  0.6732  0.1570
10012TIP3    H151527   1.113   4.982   0.780 -0.4167  0.6078  0.3093
10012TIP3    H251528   0.979   5.019   0.723  0.3163  3.3368  0.2202
10013TIP3   OH251529   3.620   3.844   0.040 -0.0375  0.3085 -0.1147
10013TIP3    H151530   3.582   3.846  -0.048 -1.1278 -1.5556  0.2634
10013TIP3    H251531   3.712   3.824   0.027 -0.1740  0.1441 -0.8305
10014TIP3   OH251532   2.502   4.175   1.518 -0.2225 -0.5865 -0.1504
10014TIP3    H151533   2.561   4.151   1.589  0.3219 -0.8918 -0.6945
10014TIP3    H251534   2.486   4.269   1.531  3.3652  0.4806 -2.0642
10015TIP3   OH251535   5.759   4.351   3.071  0.7887  0.0335 -0.6826
10015TIP3    H151536   5.838   4.301   3.049  0.3925 -1.4608  1.0942
10015TIP3    H251537   5.732   4.390   2.987  0.5973 -3.5144 -2.4662
10016TIP3   OH251538   4.206   1.084  12.742 -0.1267 -0.0397 -0.0348
10016TIP3    H151539   4.262   1.015  12.705 -1.0085 -1.6003  1.3887
10016TIP3    H251540   4.233   1.091  12.833 -0.1431  1.4549 -0.1202
10017TIP3   OH251541   0.480   0.867  11.799 -0.5509  0.5972 -0.5114
10017TIP3    H151542   0.395   0.907  11.819  0.1794  0.7810  2.9144
10017TIP3    H251543   0.486   0.794  11.860  1.7025  0.5333 -0.7549
10018TIP3   OH251544   1.428   6.763  14.520 -0.4323  0.2654 -0.0917
10018TIP3    H151545   1.491   6.820  14.564 -0.6140  0.5932 -0.2618
10018TIP3    H251546   1.361   6.822  14.487 -1.9760 -0.2233  1.9450
10019TIP3   OH251547   3.812   6.712  13.915  0.1499  0.5191  0.7597
10019TIP3    H151548   3.763   6.631  13.903 -0.5422  1.0932 -0.3996
10019TIP3    H251549   3.750   6.771  13.957  0.9267  0.2020  2.4391
10020TIP3   OH251550   0.848   5.085   0.200 -0.6511  0.4998  0.3228
10020TIP3    H151551   0.922   5.027   0.216 -0.8074 -0.7176 -2.8006
10020TIP3    H251552   0.868   5.128   0.117 -1.5635  3.3949  1.4538
10021TIP3   OH251553   0.779   2.505  14.932  0.0415  0.0188  0.2127
10021TIP3    H151554   0.711   2.491  14.866  2.0017 -1.3104 -1.6657
10021TIP3    H251555   0.791   2.419  14.973  0.0414  0.4388  1.1315
10022TIP3   OH251556   6.084   4.555  11.524 -0.3053 -0.1437  0.6936
10022TIP3    H151557   6.119   4.634  11.484 -0.9091  0.4423  1.2819
10022TIP3    H251558   6.071   4.579  11.616 -1.3626 -0.6177  0.6818
10023TIP3   OH251559   0.285   4.245   5.986  0.4847 -0.2308 -0.2490
10023TIP3    H151560   0.282   4.328   6.035 -0.1679 -0.2576 -0.2354
10023TIP3    H251561   0.199   4.205   6.001  1.8288 -2.4692  2.3869
10024TIP3   OH251562   1.405   5.861   3.833  0.0643 -0.1880 -0.5618
10024TIP3    H151563   1.424   5.774   3.869  1.7205  0.5430  0.4633
10024TIP3    H251564   1.454   5.864   3.751 -0.8104 -0.5705 -1.1059
10025TIP3   OH251565   4.108   0.334   4.597 -0.2389  0.1974  0.6428
10025TIP3    H151566   4.031   0.391   4.607  0.6613  1.7159 -0.5475
10025TIP3    H251567   4.138   0.318   4.686  0.4752  3.0964  1.0376
10026TIP3   OH251568   2.561   1.919  13.298  0.1807 -0.9886 -0.2905
10026TIP3    H151569   2.647   1.960  13.292  0.9487 -2.5994 -0.9475
10026TIP3    H251570   2.511   1.958  13.226 -0.2487  1.1872  1.0957
10027TIP3   OH251571   5.157   2.220  12.478 -0.0043 -0.0115  0.4451
10027TIP3    H151572   5.228   2.268  12.521 -0.0976  0.8508 -0.3459
10027TIP3    H251573   5.195   2.189  12.396 -0.6128  0.7080 -0.1203
10028TIP3   OH251574   1.955   4.644   0.517  0.6295  0.0071 -0.2803
10028TIP3    H151575   1.969   4.585   0.443 -0.5960 -0.9290  0.1955
10028TIP3    H251576   1.863   4.634   0.539  0.6336  1.3484  0.4788
10029TIP3   OH251577   5.218   4.003   1.491  0.0897  0.1898  0.5142
10029TIP3    H151578   5.143   3.989   1.434 -0.0982  2.0108  0.2603
10029TIP3    H251579   5.188   3.977   1.577  0.7794 -3.8827 -0.2879
10030TIP3   OH251580   2.031   2.757   4.768 -0.2655 -0.3344  0.1355
10030TIP3    H151581   2.100   2.809   4.810 -0.8710  0.9609 -0.3997
10030TIP3    H251582   2.044   2.668   4.801  0.6860  0.1873  1.2476
10031TIP3   OH251583   4.963   4.173  14.443 -0.6020  0.0635 -0.4779
10031TIP3    H151584   4.927   4.237  14.505 -0.2893 -0.0752 -0.1530
10031TIP3    H251585   5.001   4.227  14.373  2.5308  0.4176  1.3088
10032TIP3   OH251586   0.752   2.213  14.058 -0.8780 -0.2789  0.2344
10032TIP3    H151587   0.713   2.292  14.094 -1.1270  0.6230 -1.8836
10032TIP3    H251588   0.728   2.214  13.966  1.1014 -1.6102 -0.3551
10033TIP3   OH251589   3.134   5.830  17.191  0.0172 -0.1668  0.5297
10033TIP3    H151590   3.199   5.760  17.200  1.1790  0.6194 -1.2657
10033TIP3    H251591   3.182   5.910  17.212 -0.9905  0.2368  1.3957
10034TIP3   OH251592   2.132   4.400  15.106  0.1892 -0.1429  0.1983
10034TIP3    H151593   2.211   4.453  15.093  0.0143 -0.1865 -1.1681
10034TIP3    H251594   2.128   4.387  15.201 -0.0235  2.6664  0.6562
10035TIP3   OH251595   3.010   6.296   4.007  0.5824 -0.6453 -0.1907
10035TIP3    H151596   2.938   6.287   3.944  0.1820 -0.4733  0.2308
10035TIP3    H251597   2.991   6.229   4.073  1.0412 -0.8757 -0.2903
10036TIP3   OH251598   1.913   5.467   4.851 -0.2517  0.4141 -0.4121
10036TIP3    H151599   1.912   5.383   4.803  0.9069 -0.6299  1.2888
10036TIP3    H251600   1.983   5.517   4.809  0.0142 -0.0359 -0.5099
10037TIP3   OH251601   2.394   1.229   6.282 -0.5879 -0.1309 -0.6999
10037TIP3    H151602   2.478   1.221   6.327 -1.5090 -1.9719  0.7870
10037TIP3    H251603   2.361   1.315   6.309  0.3299  0.1760 -0.5035
10038TIP3   OH251604   0.543   6.753  12.512  0.0542  0.0030 -0.3738
10038TIP3    H151605   0.584   6.693  12.573  0.2183 -0.2008 -0.6814
10038TIP3    H251606   0.616   6.792  12.463 -0.0467  0.4752 -0.1566
10039TIP3   OH251607   1.958   1.329  15.093  0.1667 -0.4372 -0.3168
10039TIP3    H151608   1.927   1.241  15.069  3.1703 -0.8685 -3.3513
10039TIP3    H251609   2.049   1.316  15.121  0.4475  1.6481 -0.1068
10040TIP3   OH251610   2.607   6.440   3.280  0.0885 -0.1353 -0.4976
10040TIP3    H151611   2.516   6.434   3.250 -0.0904 -0.1187  0.0290
10040TIP3    H251612   2.600   6.447   3.375  0.6766 -0.9963 -0.3800
10041TIP3   OH251613   5.074   3.445   3.556 -0.2429 -0.0905 -0.3112
10041TIP3    H151614   5.112   3.448   3.644 -0.4491  0.2621 -0.2317
10041TIP3    H251615   4.984   3.414   3.570  0.0413 -1.0479 -0.5109
10042TIP3   OH251616   6.788   1.411  13.312 -0.1813  0.5452  0.3741
10042TIP3    H151617   6.769   1.489  13.259  1.2804 -0.4459 -1.7783
10042TIP3    H251618   6.867   1.374  13.272 -1.3263 -2.5531  0.6855
10043TIP3   OH251619   5.289   1.832   5.378  0.2381 -0.3671 -0.3530
10043TIP3    H151620   5.274   1.884   5.457  0.5420  1.2796 -1.3281
10043TIP3    H251621   5.370   1.785   5.395  1.3258  1.4287 -0.3648
10044TIP3   OH251622   0.022   0.525  11.840  0.1194  0.2726  0.5265
10044TIP3    H151623  -0.042   0.461  11.807  1.8860 -1.6573  0.6181
10044TIP3    H251624   0.062   0.562  11.761  3.3487 -3.3120  0.1955
10045TIP3   OH251625   3.556   4.822   3.833 -0.0854  0.1701 -0.0123
10045TIP3    H151626   3.464   4.824   3.860 -0.7759  2.2680 -2.1629
10045TIP3    H251627   3.571   4.732   3.805 -1.6138 -0.1349  0.0909
10046TIP3   OH251628   5.210   6.293   4.626 -0.2989  0.4250 -0.3563
10046TIP3    H151629   5.226   6.316   4.718 -1.0364 -0.2682 -0.0500
10046TIP3    H251630   5.201   6.378   4.582  1.0559  0.7957  0.0061
10047TIP3   OH251631   1.616   5.011  12.970 -0.1103 -0.0578  0.5267
10047TIP3    H151632   1.686   5.069  12.943  0.1757 -0.0537  1.2484
10047TIP3    H251633   1.568   5.060  13.037  0.6708 -0.9614  1.7926
10048TIP3   OH251634   6.759   2.933   5.716  0.2053  0.7301 -0.3354
10048TIP3    H151635   6.818   2.894   5.780  0.1622  0.4606 -0.4603
10048TIP3    H251636   6.685   2.873   5.711 -1.2809  2.2449  1.6341
10049TIP3   OH251637   2.076   2.488   4.866  0.4769 -0.8322 -0.8770
10049TIP3    H151638   2.171   2.487   4.879  0.3501 -1.3978  0.1500
10049TIP3    H251639   2.050   2.396   4.874 -0.3723 -0.4930  0.7067
10050TIP3   OH251640   2.432   6.269  15.681 -0.6351 -0.3813  0.0193
10050TIP3    H151641   2.410   6.337  15.617 -1.8178 -1.8845 -1.2687
10050TIP3    H251642   2.485   6.314  15.747 -0.7099  1.5922 -1.1794
10051TIP3   OH251643   2.762   4.296  13.713 -0.2514 -0.5806 -0.1034
10051TIP3    H151644   2.768   4.356  13.638 -1.8600  0.8444  0.8410
10051TIP3    H251645   2.672   4.264  13.710  0.2791 -2.1431  0.0513
10052TIP3   OH251646   2.664   3.616  15.371 -0.7846  0.0961 -0.0719
10052TIP3    H151647   2.682   3.616  15.465 -0.2418 -0.9752 -0.1607
10052TIP3    H251648   2.569   3.602  15.365 -0.7515 -0.3070  0.3133
10053TIP3   OH251649   1.859   3.900   5.025 -0.0611 -0.5328 -0.0664
10053TIP3    H151650   1.780   3.847   5.040  0.2749 -0.7792  0.9164
10053TIP3    H251651   1.853   3.927   4.934 -0.9055 -1.1777 -0.2121
10054TIP3   OH251652   6.466   2.743   1.171  0.2271 -0.6821  0.3995
10054TIP3    H151653   6.461   2.746   1.266 -1.4704 -1.3181  0.3725
10054TIP3    H251654   6.375   2.731   1.143  0.6505 -0.2186 -1.3154
10055TIP3   OH251655   6.480   1.213  16.898  0.0465  0.2822  0.1016
10055TIP3    H151656   6.473   1.288  16.957 -0.8735 -0.8053  1.4420
10055TIP3    H251657   6.557   1.231  16.844  0.6112  1.5716  1.2869
10056TIP3   OH251658   1.560   1.184   4.449  0.1235  0.0490 -0.4327
10056TIP3    H151659   1.581   1.158   4.539 -2.7545 -0.1897  0.2696
10056TIP3    H251660   1.554   1.101   4.401  0.8042  0.1242 -0.6610
10057TIP3   OH251661   3.860   5.506   5.894 -0.6894 -0.2632  0.0111
10057TIP3    H151662   3.929   5.456   5.939 -0.7926 -1.7255 -1.3838
10057TIP3    H251663   3.853   5.587   5.945  0.5436 -1.0099  1.4620
10058TIP3   OH251664   6.391   2.777  10.350  0.0304  0.0640 -0.3722
10058TIP3    H151665   6.381   2.748  10.259 -1.0440  1.3312 -0.6910
10058TIP3    H251666   6.432   2.703  10.394 -0.7934 -1.1613 -1.5627
10059TIP3   OH251667   1.552   3.781   4.440  0.2908 -0.2640  0.2409
10059TIP3    H151668   1.560   3.749   4.529  2.0669  1.0458  0.6145
10059TIP3    H251669   1.635   3.825   4.423 -0.3090  0.1879 -1.7882
10060TIP3   OH251670   1.806   1.406  17.039 -0.3273 -0.0520  0.6800
10060TIP3    H151671   1.848   1.436  17.120  1.4773 -2.9047  0.9363
10060TIP3    H251672   1.714   1.395  17.062 -0.2246  1.1065  1.7396
10061TIP3   OH251673   3.272   5.013   3.739 -0.0192  0.7656  0.0456
10061TIP3    H151674   3.333   5.063   3.793 -0.2145  0.2881  0.7089
10061TIP3    H251675   3.190   5.060   3.746  0.3120  1.5498 -1.0459
10062TIP3   OH251676   0.944   1.601   5.321 -0.1280 -0.7559 -0.1218
10062TIP3    H151677   0.857   1.628   5.349 -0.5284  0.2173 -2.0922
10062TIP3    H251678   1.002   1.672   5.349 -0.1452 -0.9078  0.2928
10063TIP3   OH251679   0.647   4.338  13.460 -0.1731  0.0543  0.3655
10063TIP3    H151680   0.712   4.300  13.519 -0.7386 -0.3616  0.7374
10063TIP3    H251681   0.690   4.416  13.424  0.6228 -0.3588  0.3920
10064TIP3   OH251682   3.084   3.455   3.055 -0.8577  0.0117  0.1162
10064TIP3    H151683   3.180   3.458   3.056 -0.8161 -1.0685  1.4526
10064TIP3    H251684   3.060   3.424   3.142 -2.4975  1.8642  0.3926
10065TIP3   OH251685   2.790   1.528   3.989 -0.0547 -0.4277  0.6905
10065TIP3    H151686   2.785   1.619   3.962 -0.5835 -1.2332 -2.4382
10065TIP3    H251687   2.883   1.507   3.988 -0.0205 -0.2678 -0.0403
10066TIP3   OH251688   4.765   4.191   3.613  0.2184 -0.1665 -0.2766
10066TIP3    H151689   4.751   4.285   3.607  0.9863 -0.0125  0.2059
10066TIP3    H251690   4.837   4.181   3.676  0.9328 -1.0093 -1.1931
10067TIP3   OH251691   1.688   5.240   3.192 -0.5624  0.3389 -0.3675
10067TIP3    H151692   1.622   5.233   3.123 -0.5553  0.6812 -0.4113
10067TIP3    H251693   1.668   5.168   3.252 -0.5745  0.0480 -0.7198
10068TIP3   OH251694   5.404   3.360  14.438  0.1523  0.7128 -0.1803
10068TIP3    H151695   5.387   3.289  14.377  2.3807 -0.3857  0.3917
10068TIP3    H251696   5.415   3.438  14.383 -0.3958  0.2441 -0.9597
10069TIP3   OH251697   1.885   6.484   2.543  0.0954 -0.7841  0.2896
10069TIP3    H151698   1.794   6.477   2.516  0.1927  0.8191 -0.5672
10069TIP3    H251699   1.912   6.572   2.516  1.2540 -0.3794  2.5080
10070TIP3   OH251700   2.475   0.431   3.955 -0.2847 -0.0788  0.2558
10070TIP3    H151701   2.458   0.394   3.868  0.4989 -1.6220  0.7063
10070TIP3    H251702   2.500   0.522   3.938  0.6669 -0.5710 -1.2232
10071TIP3   OH251703   2.315   1.304  11.382 -0.1609  0.2642  0.0009
10071TIP3    H151704   2.256   1.328  11.453  1.1918 -0.1067  1.2969
10071TIP3    H251705   2.350   1.388  11.350  0.5797  0.3506  0.9966
10072TIP3   OH251706   6.284   0.487   1.062 -0.2266  0.5116 -0.4317
10072TIP3    H151707   6.274   0.582   1.053  0.5420  0.6909  0.4526
10072TIP3    H251708   6.336   0.461   0.986 -0.2961  0.8234 -0.5880
10073TIP3   OH251709   2.173   5.134   0.451 -0.8589  0.0406 -0.0085
10073TIP3    H151710   2.126   5.063   0.407 -0.2282 -0.1021 -0.4666
10073TIP3    H251711   2.118   5.211   0.438  0.0439  0.3566 -2.4644
10074TIP3   OH251712   5.184   1.874   4.156 -0.7245  0.3223  0.3126
10074TIP3    H151713   5.110   1.835   4.110 -0.0646  0.1285 -0.6390
10074TIP3    H251714   5.199   1.818   4.231 -1.5847  0.4134  0.5585
10075TIP3   OH251715   2.811   3.661   1.228 -0.0872 -0.4392 -0.1640
10075TIP3    H151716   2.836   3.748   1.198 -0.4162 -0.6524 -1.0866
10075TIP3    H251717   2.717   3.667   1.244  0.0954 -0.3009  0.9693
10076TIP3   OH251718   0.051   5.695   3.871 -0.1237  0.1947  0.0012
10076TIP3    H151719   0.124   5.636   3.886  0.7762  1.0738 -0.7923
10076TIP3    H251720  -0.000   5.691   3.952 -0.5678 -2.2711 -0.3320
10077TIP3   OH251721   2.645   3.871   2.878  0.1206  0.2983  0.7349
10077TIP3    H151722   2.707   3.799   2.864 -0.8050 -0.7551  1.8382
10077TIP3    H251723   2.584   3.865   2.805  1.2395  1.2946 -0.3172
10078TIP3   OH251724   2.451   3.289   5.850 -0.1455 -0.1987 -0.5276
10078TIP3    H151725   2.488   3.378   5.854  1.6106 -0.8603 -1.1216
10078TIP3    H251726   2.520   3.233   5.883 -1.3948 -1.3378  0.2405
10079TIP3   OH251727   2.959   0.023  14.351 -0.2610 -0.2152  0.2854
10079TIP3    H151728   2.993   0.076  14.424 -2.4534  1.5146  0.1589
10079TIP3    H251729   2.987   0.070  14.272 -2.2624  0.9181  0.1719
10080TIP3   OH251730   1.583   2.538   3.858  0.0319 -0.6478 -0.1822
10080TIP3    H151731   1.624   2.585   3.785  2.0748  0.6653  1.6709
10080TIP3    H251732   1.496   2.515   3.826  1.1013 -0.8697 -3.2878
10081TIP3   OH251733   1.794   2.706   3.973 -0.3174  0.4370 -0.1722
10081TIP3    H151734   1.833   2.747   3.896  1.0573 -0.4227  0.0207
10081TIP3    H251735   1.713   2.665   3.941 -0.8171  1.8054 -0.7106
10082TIP3   OH251736   3.049   1.044   1.078 -0.1589  0.5928 -0.2002
10082TIP3    H151737   2.973   1.022   1.132  1.0714 -1.9834  0.6440
10082TIP3    H251738   3.109   1.090   1.137 -0.4458  1.3251 -0.4720
10083TIP3   OH251739   1.264   6.235   2.592 -0.3217  0.5670  0.1944
10083TIP3    H151740   1.332   6.259   2.655 -0.6658 -1.2495  1.3368
10083TIP3    H251741   1.245   6.316   2.545 -0.6419  2.2514  2.9803
10084TIP3   OH251742   6.187   6.148  12.000  0.0202 -0.3146  0.2740
10084TIP3    H151743   6.234   6.097  11.934  1.3563  1.0826  0.1057
10084TIP3    H251744   6.097   6.115  11.995  0.7479 -2.4077 -0.0369
10085TIP3   OH251745   2.555   5.890  13.084  0.3992  0.1525  0.0858
10085TIP3    H151746   2.614   5.951  13.128 -0.3109  0.0395  1.2286
10085TIP3    H251747   2.553   5.920  12.993  0.4163  1.5726  0.5260
10086TIP3   OH251748   0.233   1.066   0.982 -0.1883 -0.1967 -0.1030
10086TIP3    H151749   0.291   1.130   1.025 -0.8560 -1.0242  2.1788
10086TIP3    H251750   0.236   1.090   0.889 -0.9382  3.6071  0.6847
10087TIP3   OH251751   4.537   1.179  15.995 -0.5118  0.3000 -0.0772
10087TIP3    H151752   4.561   1.250  16.055 -1.7480  2.2638 -1.7559
10087TIP3    H251753   4.449   1.153  16.022  0.4382 -1.6371  1.3783
10088TIP3   OH251754   0.794   5.361   1.633 -0.2868 -0.3345  0.5192
10088TIP3    H151755   0.730   5.395   1.569 -0.4921 -1.3687  0.1485
10088TIP3    H251756   0.793   5.425   1.703 -0.1944  0.7441 -0.4320
10089TIP3   OH251757   0.251   6.302  12.024 -0.1517 -0.3110 -0.0181
10089TIP3    H151758   0.285   6.361  11.956 -1.2658 -0.0109 -0.3421
10089TIP3    H251759   0.316   6.306  12.094  0.1670  0.7236 -0.3504
10090TIP3   OH251760   0.443   2.023  16.974  0.2528 -0.0469 -0.2983
10090TIP3    H151761   0.499   1.948  16.953  1.9189  0.1745  2.7752
10090TIP3    H251762   0.416   2.008  17.064 -2.5121  1.2551 -0.8205
10091TIP3   OH251763   3.165   2.582   4.512  0.2083  0.0392 -0.0719
10091TIP3    H151764   3.113   2.508   4.543 -1.1176  1.0587  0.2064
10091TIP3    H251765   3.175   2.638   4.589  0.1459  0.7443 -0.5623
10092TIP3   OH251766   3.769   0.854   4.821 -0.3652  0.2619 -0.7117
10092TIP3    H151767   3.757   0.925   4.758  1.7004  1.5400  0.2087
10092TIP3    H251768   3.746   0.894   4.905 -0.3077 -0.5151 -0.3244
10093TIP3   OH251769   5.595   3.437  14.912 -0.1903  0.1832 -0.1781
10093TIP3    H151770   5.634   3.352  14.894  0.1181  0.4576 -0.8740
10093TIP3    H251771   5.515   3.438  14.860 -0.6490 -0.0143  0.5137
10094TIP3   OH251772   2.958   4.344   0.184 -0.3621 -0.1066 -0.3290
10094TIP3    H151773   2.863   4.336   0.195 -0.7741  1.7585 -2.0609
10094TIP3    H251774   2.981   4.276   0.120 -0.7293  0.1970 -0.7861
10095TIP3   OH251775   6.681   1.249  12.243  0.1209  0.1125 -0.2483
10095TIP3    H151776   6.603   1.199  12.219 -0.3539  0.1809  1.0806
10095TIP3    H251777   6.753   1.185  12.240 -0.1630 -0.2001 -0.4221
10096TIP3   OH251778   5.862   3.221   4.506  0.2285  0.0432 -0.7201
10096TIP3    H151779   5.929   3.241   4.571  0.0485  0.5360 -0.6765
10096TIP3    H251780   5.792   3.178   4.554  0.4891 -0.4223 -0.7560
10097TIP3   OH251781   6.566   2.841  16.282 -0.8994 -0.2217  0.7236
10097TIP3    H151782   6.628   2.828  16.354  0.2426  0.1595 -0.1525
10097TIP3    H251783   6.485   2.803  16.313  0.1718 -2.1320  1.3373
10098TIP3   OH251784   4.671   3.698   5.907 -0.5804  0.4913 -0.5591
10098TIP3    H151785   4.674   3.781   5.955 -0.3158  0.4743 -0.5472
10098TIP3    H251786   4.632   3.636   5.969 -1.1245  0.6921 -0.6947
10099TIP3   OH251787   4.933   6.734   5.859  0.3083 -0.0583 -0.0769
10099TIP3    H151788   4.998   6.756   5.925  0.2678  0.7110 -0.2890
10099TIP3    H251789   4.968   6.657   5.815  0.5928 -0.2491  0.4707
10100TIP3   OH251790   1.685   3.967  11.844  0.4346  0.3237  0.4645
10100TIP3    H151791   1.598   3.973  11.805  0.3746 -0.2626  0.5015
10100TIP3    H251792   1.692   4.046  11.899 -0.1002  0.3354  0.5239
10101TIP3   OH251793   3.174   6.365   5.288 -0.1686 -0.8476  0.0794
10101TIP3    H151794   3.251   6.315   5.260 -0.0223 -0.6810  0.1780
10101TIP3    H251795   3.153   6.331   5.374  1.9035  1.3940  1.6398
10102TIP3   OH251796   6.091   4.876  10.994 -0.8635  0.1047 -1.0072
10102TIP3    H151797   6.170   4.824  11.007 -0.3679  1.1892  0.5502
10102TIP3    H251798   6.021   4.825  11.035 -0.1421  1.2337  1.7890
10103TIP3   OH251799   3.819   0.424   3.024 -0.2400  0.2209 -0.4179
10103TIP3    H151800   3.737   0.374   3.020 -0.4054  0.1167  2.5168
10103TIP3    H251801   3.792   0.515   3.009 -0.4297 -0.1067 -2.3041
10104TIP3   OH251802   1.988   2.758  15.807  0.3499  0.0734  0.2341
10104TIP3    H151803   2.022   2.814  15.737 -4.4908  0.4035 -2.3168
10104TIP3    H251804   1.962   2.819  15.876 -0.5506  0.5198 -0.4764
10105TIP3   OH251805   0.004   2.613   5.583  0.4752  0.3552 -0.5128
10105TIP3    H151806  -0.003   2.519   5.566  1.0054  0.2176 -0.0016
10105TIP3    H251807  -0.015   2.622   5.676  2.4232  0.4853 -0.0740
10106TIP3   OH251808   0.208   4.543  14.043  0.0784  0.7662 -0.3834
10106TIP3    H151809   0.163   4.465  14.075  2.7243 -0.5928  0.3570
10106TIP3    H251810   0.197   4.540  13.948 -1.0687  0.3124 -0.2530
10107TIP3   OH251811   2.653   3.319  16.228 -0.0582 -0.0465  0.4018
10107TIP3    H151812   2.637   3.330  16.134  0.7482  0.3417  0.2958
10107TIP3    H251813   2.597   3.247  16.255  1.5059 -1.8405 -0.9008
10108TIP3   OH251814   2.280   5.428   5.308  0.2983 -1.0342 -0.2404
10108TIP3    H151815   2.370   5.460   5.310  0.4222 -1.3925  0.2476
10108TIP3    H251816   2.263   5.409   5.216  1.2693 -2.4761 -0.1515
10109TIP3   OH251817   4.718   1.807   5.731 -0.4055 -0.3216  0.7736
10109TIP3    H151818   4.664   1.738   5.770 -0.0422 -1.1613 -0.1665
10109TIP3    H251819   4.655   1.873   5.702 -0.7664 -0.2964  1.5745
10110TIP3   OH251820   3.672   5.358  14.808 -0.2538 -0.6507 -0.0434
10110TIP3    H151821   3.624   5.340  14.727 -2.2890 -0.0306  0.9581
10110TIP3    H251822   3.650   5.285  14.866  3.3471 -2.5900 -0.8092
10111TIP3   OH251823   1.510   6.798   4.402 -0.0639 -0.2128  0.0999
10111TIP3    H151824   1.475   6.833   4.484 -0.8605  1.0003 -0.7174
10111TIP3    H251825   1.553   6.873   4.360 -0.4473 -0.5885 -0.9968
10112TIP3   OH251826   1.103   5.597   1.591  0.0354 -0.4378  0.0534
10112TIP3    H151827   1.009   5.616   1.589  0.2247  0.5710  0.1679
10112TIP3    H251828   1.126   5.581   1.499  0.2607  2.0780 -0.3949
10113TIP3   OH251829   6.113   4.783   0.099  0.9699 -0.1159 -0.2197
10113TIP3    H151830   6.059   4.794   0.177 -0.7939 -1.1820 -1.2154
10113TIP3    H251831   6.097   4.863   0.048  0.3939 -0.3892 -0.4708
10114TIP3   OH251832   2.731   5.109  15.355  0.0938 -0.0792 -0.0081
10114TIP3    H151833   2.693   5.070  15.276 -0.4503  1.5709 -0.5882
10114TIP3    H251834   2.656   5.126  15.411  0.3798 -0.2801  0.4404
10115TIP3   OH251835   1.050   0.852   4.539 -0.2337  0.3446 -0.1700
10115TIP3    H151836   1.101   0.858   4.620 -0.4946 -0.3261  0.0559
10115TIP3    H251837   1.092   0.782   4.489 -0.9031 -0.1970  0.0076
10116TIP3   OH251838   3.210   2.036   4.387  0.4957  0.2873  0.3646
10116TIP3    H151839   3.247   1.961   4.433 -0.2338 -1.4387 -1.7060
10116TIP3    H251840   3.259   2.040   4.305 -0.3320  1.2753 -0.1035
10117TIP3   OH251841   6.388   4.542   5.699 -0.5048  0.5417  0.0515
10117TIP3    H151842   6.397   4.569   5.608  3.7310  2.1933  0.7489
10117TIP3    H251843   6.373   4.623   5.747 -0.3145  0.0130  1.0405
10118TIP3   OH251844   4.558   4.589  14.071  0.3889 -0.6146 -0.0099
10118TIP3    H151845   4.519   4.647  14.136  0.0854 -1.2916  0.4197
10118TIP3    H251846   4.514   4.612  13.989  3.2646  2.8231 -0.8755
10119TIP3   OH251847   6.173   5.273   6.108 -0.8191 -0.4001  0.5112
10119TIP3    H151848   6.256   5.227   6.120 -0.6943 -0.0425  1.0154
10119TIP3    H251849   6.161   5.323   6.189 -0.6842  0.9002 -0.2441
10120TIP3   OH251850   2.686   0.881  11.619  0.4156 -0.1966  0.5491
10120TIP3    H151851   2.777   0.908  11.607 -0.3622  1.9204 -1.3972
10120TIP3    H251852   2.642   0.959  11.651 -1.4304  0.2219 -2.5449
10121TIP3   OH251853   0.595   5.366   5.813  0.0697  0.0473  0.3214
10121TIP3    H151854   0.509   5.325   5.808 -0.5983  1.4825 -0.6810
10121TIP3    H251855   0.657   5.294   5.815 -1.0494 -1.0102 -1.2422
10122TIP3   OH251856   5.747   5.364  17.120  0.1345  0.0610  0.3933
10122TIP3    H151857   5.727   5.393  17.031 -0.1903 -2.2877 -0.3516
10122TIP3    H251858   5.688   5.415  17.176 -2.7475 -1.4083 -1.1148
10123TIP3   OH251859   2.442   2.303   2.049 -0.2544  1.0308 -0.1574
10123TIP3    H151860   2.409   2.384   2.088 -1.2841  0.1580  0.8684
10123TIP3    H251861   2.389   2.234   2.088 -1.2990  0.0410 -3.0581
10124TIP3   OH251862   0.781   5.451  15.966 -0.4548  0.2106 -0.6306
10124TIP3    H151863   0.773   5.519  15.900  0.5223 -0.0631 -1.0387
10124TIP3    H251864   0.836   5.489  16.034 -1.8582  0.6756  0.3030
10125TIP3   OH251865   4.545   6.770   0.176 -0.1053  0.4745  0.0459
10125TIP3    H151866   4.626   6.762   0.126  0.4809  0.7768  0.9210
10125TIP3    H251867   4.542   6.862   0.204 -0.5093  0.3599  0.4078
10126TIP3   OH251868   5.954   1.167  16.485 -0.0446  0.1414  0.2570
10126TIP3    H151869   5.976   1.110  16.411 -0.1247 -0.6957  0.8581
10126TIP3    H251870   6.002   1.129  16.558  0.7053  1.4582  0.4714
10127TIP3   OH251871   4.027   6.455  15.538  1.3952  0.6744  0.1899
10127TIP3    H151872   4.038   6.393  15.610  2.0873  0.6928  0.1043
10127TIP3    H251873   3.969   6.523  15.572  0.2132 -0.2684  0.1289
10128TIP3   OH251874   4.230   3.077  15.658 -0.0645  0.0978  0.3331
10128TIP3    H151875   4.239   3.167  15.688  0.5945  0.0760  0.2163
10128TIP3    H251876   4.142   3.052  15.684  0.2055  0.3395  1.5567
10129TIP3   OH251877   3.603   5.724   2.583  0.4070  0.0898 -0.2679
10129TIP3    H151878   3.532   5.661   2.571  1.2783 -0.5792 -2.1549
10129TIP3    H251879   3.641   5.735   2.496  2.4113  0.6895  0.6273
10130TIP3   OH251880   2.474   2.994   5.262  0.1027  0.2852 -0.2181
10130TIP3    H151881   2.384   2.979   5.292  0.3287  2.6580  2.0484
10130TIP3    H251882   2.465   3.021   5.171 -1.3847 -0.4302 -0.3042
10131TIP3   OH251883   1.775   0.453  15.140  0.3690 -0.3867  0.5196
10131TIP3    H151884   1.814   0.366  15.140  2.2535  0.4059  0.0731
10131TIP3    H251885   1.850   0.513  15.140 -0.8690  1.2350  0.0118
10132TIP3   OH251886   6.088   0.439  13.253 -0.2441  0.5576  0.0186
10132TIP3    H151887   6.017   0.472  13.307 -0.1831  0.4924  0.1391
10132TIP3    H251888   6.047   0.423  13.167 -0.0392  1.9382 -0.3618
10133TIP3   OH251889   0.981   4.202   3.875  0.3047 -0.5289  0.6880
10133TIP3    H151890   0.990   4.108   3.891  1.4864 -0.3169  1.3706
10133TIP3    H251891   1.065   4.229   3.839 -0.5454  0.0056 -1.0223
10134TIP3   OH251892   3.995   1.165  16.429  0.3855  0.4125  0.4640
10134TIP3    H151893   3.978   1.205  16.343 -2.7670 -0.4662  0.5333
10134TIP3    H251894   3.962   1.229  16.492 -3.5114 -1.4467  0.6185
10135TIP3   OH251895   6.013   5.086   4.427  0.2842  0.2165  0.2951
10135TIP3    H151896   6.064   5.162   4.455 -0.3363  0.9591 -0.5322
10135TIP3    H251897   6.032   5.018   4.492 -1.7174  2.0702  3.0328
10136TIP3   OH251898   4.525   0.055  12.196  0.6200 -0.6079  0.2031
10136TIP3    H151899   4.571   0.099  12.268  0.0288  0.4785 -0.0714
10136TIP3    H251900   4.466   0.121  12.161  0.6007 -1.2511 -1.0224
10137TIP3   OH251901   6.441   4.448   2.523 -0.3377 -0.2374  0.3122
10137TIP3    H151902   6.431   4.527   2.470  0.3222 -0.1311  0.3347
10137TIP3    H251903   6.383   4.384   2.481  1.0045 -0.5027 -1.2513
10138TIP3   OH251904   5.688   0.724   0.807  0.6150 -0.0324 -0.0828
10138TIP3    H151905   5.601   0.758   0.828  1.3132  1.8476 -0.0624
10138TIP3    H251906   5.696   0.645   0.861 -0.6128  0.4268  0.8322
10139TIP3   OH251907   4.726   2.692   5.889  0.3515  0.2319  0.1018
10139TIP3    H151908   4.728   2.597   5.900  1.0193  0.2709  0.3375
10139TIP3    H251909   4.722   2.705   5.794 -0.1291 -0.0270  0.0795
10140TIP3   OH251910   1.531   6.245  10.437  0.1425 -0.0146  0.7540
10140TIP3    H151911   1.536   6.336  10.466  1.7842  0.2661 -0.2855
10140TIP3    H251912   1.531   6.250  10.341  0.6438 -1.1116  0.6778
10141TIP3   OH251913   6.689   4.495  16.772 -0.4557 -0.1608  0.0867
10141TIP3    H151914   6.687   4.584  16.736 -3.3439 -0.3197 -0.3892
10141TIP3    H251915   6.754   4.500  16.843  0.0141  2.1045 -0.3968
10142TIP3   OH251916   0.187   6.686   1.306  0.0578 -0.3138  0.1718
10142TIP3    H151917   0.153   6.772   1.332  0.4247  0.0379 -0.4984
10142TIP3    H251918   0.178   6.633   1.385  0.2947  0.4793  0.7486
10143TIP3   OH251919   6.800   4.763  11.673  0.0120 -0.0093 -0.3283
10143TIP3    H151920   6.834   4.698  11.611  2.0953  1.0725 -0.4037
10143TIP3    H251921   6.870   4.773  11.738 -0.6890  1.4045  0.2573
10144TIP3   OH251922   4.148   2.620  13.174  0.2786  0.4059  0.4016
10144TIP3    H151923   4.189   2.635  13.089  0.9061  0.9307  0.7900
10144TIP3    H251924   4.054   2.632  13.159  0.3117 -0.2128 -0.3640
10145TIP3   OH251925   2.803   3.864  14.384 -0.0473 -0.0308  0.3545
10145TIP3    H151926   2.867   3.925  14.346 -0.5571  1.6598  2.0490
10145TIP3    H251927   2.789   3.799  14.316  2.3483  0.3732 -0.6474
10146TIP3   OH251928   1.597   0.586   3.263  0.2509 -0.0163  0.2815
10146TIP3    H151929   1.684   0.607   3.298  1.1340 -1.2480 -1.0968
10146TIP3    H251930   1.600   0.614   3.172 -1.1369  0.7620  0.4368
10147TIP3   OH251931   3.726   1.071   3.501  0.4653  0.3647 -0.0034
10147TIP3    H151932   3.684   1.051   3.417  1.3356 -1.9810  0.0446
10147TIP3    H251933   3.817   1.044   3.488  0.0929 -2.5048  2.4257
10148TIP3   OH251934   1.646   4.886  11.642  0.4614 -0.6363 -0.0951
10148TIP3    H151935   1.709   4.814  11.639  1.7122  0.4400 -0.6055
10148TIP3    H251936   1.624   4.902  11.550 -0.0582 -0.5545  0.0365
10149TIP3   OH251937   3.645   2.179   6.509  0.9753 -0.0493 -0.5639
10149TIP3    H151938   3.713   2.178   6.441  0.3566  0.6805 -1.2129
10149TIP3    H251939   3.638   2.271   6.534  0.2017 -0.1137 -0.5271
10150TIP3   OH251940   1.312   5.455   0.414 -0.0917 -0.5852 -0.1465
10150TIP3    H151941   1.350   5.533   0.453 -0.3426 -0.0694 -0.9084
10150TIP3    H251942   1.280   5.404   0.488 -0.8617  0.5239  0.3144
10151TIP3   OH251943   3.683   1.554  13.565  0.9015 -0.4119  0.1250
10151TIP3    H151944   3.588   1.559  13.560  0.7205  1.7156  3.0877
10151TIP3    H251945   3.705   1.466  13.535 -2.3205 -2.2145  2.5326
10152TIP3   OH251946   3.216   0.094  17.063 -0.5806 -0.6643 -0.4160
10152TIP3    H151947   3.259   0.009  17.050  2.0702  0.0403  2.6968
10152TIP3    H251948   3.169   0.086  17.146 -1.1514  0.6214 -0.5799
10153TIP3   OH251949   4.411   1.556   5.059 -0.1598  0.2525  0.3019
10153TIP3    H151950   4.340   1.556   5.124 -0.9086 -3.5513 -0.2793
10153TIP3    H251951   4.369   1.586   4.978 -0.2718  1.0834  0.6621
10154TIP3   OH251952   0.482   1.121  15.727 -0.2895 -0.0288 -0.5904
10154TIP3    H151953   0.539   1.152  15.797 -0.3288  0.4712 -0.7763
10154TIP3    H251954   0.530   1.141  15.646  0.4904 -2.0442 -0.6857
10155TIP3   OH251955   5.447   4.991  13.142 -0.4332 -0.0382 -0.0284
10155TIP3    H151956   5.416   4.902  13.127 -1.6623  0.3287  0.2392
10155TIP3    H251957   5.419   5.011  13.232  0.8644  0.2111  0.3478
10156TIP3   OH251958   0.347   6.511   3.984 -0.1073  0.3665  0.4906
10156TIP3    H151959   0.424   6.484   4.035 -0.4664  0.3622  1.0411
10156TIP3    H251960   0.281   6.532   4.050 -0.2599  1.3387  0.0495
10157TIP3   OH251961   3.515   0.611  14.376  0.6835 -0.3747 -0.1362
10157TIP3    H151962   3.534   0.574  14.290 -1.3938 -1.9511 -0.0045
10157TIP3    H251963   3.504   0.535  14.433  0.3556  0.5834  1.1291
10158TIP3   OH251964   3.107   6.133  14.349  0.1258  0.2798 -0.7406
10158TIP3    H151965   3.099   6.098  14.438 -1.0844 -0.3507 -1.0804
10158TIP3    H251966   3.114   6.228  14.362  1.2299  0.1058  0.0780
10159TIP3   OH251967   0.840   1.142  16.377 -0.2238 -0.2388  0.0690
10159TIP3    H151968   0.756   1.096  16.373  0.0125 -0.6959  0.2857
10159TIP3    H251969   0.819   1.231  16.349 -0.8205 -0.2935  0.3062
10160TIP3   OH251970   6.087   4.959   3.073  0.0642 -0.3295 -0.1229
10160TIP3    H151971   6.118   4.953   3.164 -2.7167 -1.3745  0.8737
10160TIP3    H251972   6.164   4.937   3.020  1.3202 -1.6086  2.0537
10161TIP3   OH251973   3.696   1.003  15.899  0.0409 -0.1862 -0.3072
10161TIP3    H151974   3.770   0.947  15.875  1.3082  0.2744  2.1964
10161TIP3    H251975   3.619   0.949  15.885  1.0259 -1.5741 -0.5555
10162TIP3   OH251976   1.825   4.564   4.118 -0.2989  0.1503 -0.1408
10162TIP3    H151977   1.872   4.626   4.173  0.1534  0.3501 -0.7444
10162TIP3    H251978   1.842   4.478   4.157 -1.5602  0.4521  1.1541
10163TIP3   OH251979   0.192   1.325  17.075 -0.2039 -0.9591 -0.4958
10163TIP3    H151980   0.191   1.418  17.099 -0.9049 -0.9953 -0.3496
10163TIP3    H251981   0.151   1.322  16.989 -0.9521 -1.2214 -0.1344
10164TIP3   OH251982   0.249   2.247  13.347  0.2248  0.3668 -0.1523
10164TIP3    H151983   0.228   2.165  13.392  1.4120 -0.5513 -1.2139
10164TIP3    H251984   0.172   2.265  13.294  0.1530 -0.3254 -0.2901
10165TIP3   OH251985   0.074   4.321   2.617  0.0702 -0.3618  0.2720
10165TIP3    H151986  -0.015   4.290   2.598  0.1277 -0.9172  0.9209
10165TIP3    H251987   0.130   4.246   2.601  0.4396 -0.0033 -0.1617
10166TIP3   OH251988   6.127   6.440  12.143  0.2262 -0.1298  0.5292
10166TIP3    H151989   6.104   6.532  12.152  0.5355  0.0047 -0.0147
10166TIP3    H251990   6.109   6.419  12.052  3.1153  0.2558 -0.2256
10167TIP3   OH251991   5.734   1.337   4.951 -0.4212  0.7722  0.1339
10167TIP3    H151992   5.680   1.281   5.006 -1.5013  0.5922 -1.0633
10167TIP3    H251993   5.735   1.421   4.997 -0.8307  0.4719  0.7018
10168TIP3   OH251994   2.790   0.726   4.073 -0.5853  0.1084  0.1215
10168TIP3    H151995   2.805   0.654   4.134  0.2773  1.3217  1.3900
10168TIP3    H251996   2.696   0.725   4.057 -0.8905 -0.0255  1.7812
10169TIP3   OH251997   1.990   0.379   1.031  0.1447  0.0631 -0.0412
10169TIP3    H151998   1.992   0.475   1.032  1.3396  0.0634 -1.1271
10169TIP3    H251999   1.986   0.356   0.939  2.6843 -0.9527  0.0293
10170TIP3   OH252000   5.966   2.166  13.092 -0.2223 -0.2891  0.4604
10170TIP3    H152001   5.906   2.158  13.018 -1.5796  2.8326  1.0737
10170TIP3    H252002   6.043   2.115  13.066 -1.3329 -0.7260 -2.3181
10171TIP3   OH252003   6.703   1.919  10.722  0.1377 -0.1282  0.1863
10171TIP3    H152004   6.724   1.967  10.642  0.4937  1.6799  1.3176
10171TIP3    H252005   6.610   1.935  10.735  0.3159  0.5001  0.7133
10172TIP3   OH252006   2.540   1.238  11.670  0.1524  0.0618  0.6788
10172TIP3    H152007   2.514   1.169  11.608 -3.0570  3.0130 -1.7038
10172TIP3    H252008   2.606   1.288  11.623 -2.0197  2.0904 -0.4307
10173TIP3   OH252009   6.020   2.693  13.751 -0.1304  0.2367 -0.4441
10173TIP3    H152010   6.080   2.766  13.765  1.8695 -1.5961  1.2087
10173TIP3    H252011   6.077   2.616  13.745 -2.2806 -1.6350  1.2793
10174TIP3   OH252012   4.811   0.951  10.716 -0.3556  0.0460 -0.4709
10174TIP3    H152013   4.819   1.046  10.725  1.2906 -0.0069 -1.1594
10174TIP3    H252014   4.777   0.938  10.628  0.5719 -0.0278 -0.8273
10175TIP3   OH252015   1.207   2.832  16.515  0.1812 -0.1185 -0.0501
10175TIP3    H152016   1.131   2.884  16.489 -1.6087 -2.4714  0.1224
10175TIP3    H252017   1.219   2.770  16.443  1.2386 -0.5204  0.4516
10176TIP3   OH252018   1.657   1.536   3.460 -0.3326 -0.3192 -0.3459
10176TIP3    H152019   1.697   1.466   3.409 -2.5213 -1.7142 -0.2726
10176TIP3    H252020   1.727   1.601   3.471  1.9391 -2.6576 -0.0235
10177TIP3   OH252021   3.885   4.993   0.581 -0.1125 -0.6368  0.8413
10177TIP3    H152022   3.830   5.022   0.654 -1.2613 -0.3632 -0.0974
10177TIP3    H252023   3.826   4.942   0.525  0.6138 -0.4314 -0.1477
10178TIP3   OH252024   2.544   1.064   1.478  0.1574 -0.1744 -0.1856
10178TIP3    H152025   2.601   1.092   1.406  0.1341 -1.0058 -0.5404
10178TIP3    H252026   2.519   0.974   1.455 -2.5272  0.6633 -0.8238
10179TIP3   OH252027   0.956   4.329   0.265 -0.1551  0.0549 -0.0545
10179TIP3    H152028   0.938   4.304   0.356  1.2814 -0.7503  0.0409
10179TIP3    H252029   0.998   4.415   0.272 -0.2828  0.1110  0.0253
10180TIP3   OH252030   0.359   0.526  14.062 -0.0604  0.1020  0.4813
10180TIP3    H152031   0.409   0.455  14.021 -1.3527 -1.2109  1.0790
10180TIP3    H252032   0.401   0.606  14.031  1.6857 -0.9133  0.0740
10181TIP3   OH252033   3.805   1.465  13.814 -0.1593  0.1608 -0.4513
10181TIP3    H152034   3.808   1.535  13.748 -3.0596  0.4391 -0.3895
10181TIP3    H252035   3.830   1.509  13.895  0.0600  0.6169 -0.7575
10182TIP3   OH252036   3.144   4.666   5.215 -0.0436 -0.1456 -0.0993
10182TIP3    H152037   3.134   4.596   5.279  0.8218  0.7836  1.0955
10182TIP3    H252038   3.238   4.666   5.194 -0.2122 -0.0185 -0.8857
10183TIP3   OH252039   6.092   4.639   3.542  0.4089  0.3118 -0.2258
10183TIP3    H152040   6.164   4.597   3.590  1.0182  0.4912 -0.9589
10183TIP3    H252041   6.061   4.570   3.482 -0.7089 -0.0865  0.7803
10184TIP3   OH252042   2.081   5.357  11.303  0.3295 -0.0707 -0.3092
10184TIP3    H152043   2.057   5.402  11.221  0.7074 -0.0056 -0.3844
10184TIP3    H252044   2.175   5.369  11.310  0.1846  0.7029  0.6001
10185TIP3   OH252045   1.382   4.023   5.725 -0.2462  0.1535  0.1255
10185TIP3    H152046   1.374   4.085   5.652  0.2115 -0.2768 -0.2954
10185TIP3    H252047   1.453   3.964   5.699  0.5470  0.5438  1.3174
10186TIP3   OH252048   3.198   1.778   2.768  0.0828  0.2982 -0.1892
10186TIP3    H152049   3.164   1.837   2.701  0.0508  0.2486 -0.2172
10186TIP3    H252050   3.136   1.705   2.769  1.3049 -0.8389 -1.7491
10187TIP3   OH252051   1.236   6.100   0.961  0.3660 -0.2721  1.0722
10187TIP3    H152052   1.166   6.154   0.923 -0.5476  0.3552  3.4537
10187TIP3    H252053   1.299   6.163   0.995  1.5705 -0.8289 -0.0391
10188TIP3   OH252054   5.327   4.665  15.539  0.1380  0.4177  0.1044
10188TIP3    H152055   5.326   4.576  15.573  0.1816 -0.3064 -1.6477
10188TIP3    H252056   5.316   4.721  15.615  2.0347 -0.9999  1.5094
10189TIP3   OH252057   6.215   3.438   1.602 -0.3517 -0.0610 -0.5159
10189TIP3    H152058   6.300   3.447   1.644 -0.1535 -1.2012 -0.6537
10189TIP3    H252059   6.181   3.528   1.597  0.4046  0.2878  0.4206
10190TIP3   OH252060   6.559   3.173  11.549 -0.1534  0.1675  0.9375
10190TIP3    H152061   6.603   3.150  11.631  1.8332  0.9183  0.1552
10190TIP3    H252062   6.610   3.246  11.515 -1.2044  0.1574 -0.7585
10191TIP3   OH252063   2.336   1.292   1.458 -0.4171 -0.8309  0.2105
10191TIP3    H152064   2.261   1.344   1.428  0.4211  0.2842 -0.0216
10191TIP3    H252065   2.411   1.331   1.413  0.3803 -1.5586  0.8820
10192TIP3   OH252066   4.373   5.476  14.108  0.0310  0.5985 -0.2604
10192TIP3    H152067   4.383   5.524  14.026  0.6957  1.7183  0.4588
10192TIP3    H252068   4.450   5.499  14.159  0.2752 -1.1092  0.1855
10193TIP3   OH252069   2.337   0.145   2.230  0.3713  0.0016  0.5252
10193TIP3    H152070   2.407   0.210   2.233  2.1900 -1.7812 -0.6971
10193TIP3    H252071   2.360   0.081   2.297 -0.5296 -0.2261  0.6330
10194TIP3   OH252072   6.506   6.196   5.173  0.5053 -0.2821  0.1976
10194TIP3    H152073   6.475   6.106   5.161  0.6486 -0.6266  2.1026
10194TIP3    H252074   6.491   6.237   5.089  0.4396 -2.0908 -0.7319
10195TIP3   OH252075   4.776   0.939   1.716  0.4304 -0.0222 -0.4950
10195TIP3    H152076   4.810   0.877   1.780 -0.4537  0.8170  0.8348
10195TIP3    H252077   4.739   0.885   1.647  0.2761 -0.9679  0.3118
10196TIP3   OH252078   5.344   5.093   3.006  0.1711  0.0313 -0.2258
10196TIP3    H152079   5.254   5.081   2.974 -0.2929  0.5064  0.8608
10196TIP3    H252080   5.391   5.016   2.973 -0.4903  0.0712 -1.2961
10197TIP3   OH252081   3.471   2.048  16.863  0.4240 -0.2537 -0.2287
10197TIP3    H152082   3.449   2.005  16.780 -1.3941  0.2959 -0.0713
10197TIP3    H252083   3.394   2.034  16.918  0.7954  1.0964  0.6693
10198TIP3   OH252084   4.523   1.238   2.987  0.3092 -0.0729  0.4836
10198TIP3    H152085   4.466   1.172   2.948 -1.7222  0.6721  2.0009
10198TIP3    H252086   4.604   1.232   2.937 -0.5160 -2.2887 -0.7478
10199TIP3   OH252087   4.097   3.939  15.747 -0.2205 -0.7249 -0.0167
10199TIP3    H152088   4.056   3.853  15.754 -2.4024  0.1970 -0.6754
10199TIP3    H252089   4.028   4.001  15.769  1.3744  0.8907  0.7457
10200TIP3   OH252090   0.224   0.461   1.690 -0.2336 -0.3043 -0.2233
10200TIP3    H152091   0.158   0.437   1.755 -0.1379 -1.5215 -0.5365
10200TIP3    H252092   0.306   0.426   1.726 -0.4025 -2.3473 -1.6374
10201TIP3   OH252093   0.877   0.025   6.505  0.3157  0.5587  0.2152
10201TIP3    H152094   0.848   0.002   6.593  0.9197 -0.2802  0.2059
10201TIP3    H252095   0.903   0.117   6.511  1.9926  0.0674  1.3735
10202TIP3   OH252096   0.613   2.356   3.454  0.4091 -0.1000 -0.8033
10202TIP3    H152097   0.682   2.378   3.391 -0.2914 -1.0783 -1.9574
10202TIP3    H252098   0.633   2.268   3.483  0.6366  0.2887  0.2557
10203TIP3   OH252099   1.073   4.569  12.289 -0.4502 -0.2402  0.6189
10203TIP3    H152100   1.080   4.637  12.355 -2.4034 -2.2080  3.0430
10203TIP3    H252101   1.015   4.607  12.222  1.9133  1.9428 -0.3343
10204TIP3   OH252102   2.858   3.653   3.693 -0.0205  0.5683  0.4075
10204TIP3    H152103   2.882   3.688   3.778 -1.1791  1.4866  0.3766
10204TIP3    H252104   2.887   3.719   3.630  0.0350  0.3107  0.1581
10205TIP3   OH252105   2.856   1.264   2.465 -0.3287 -0.0576  0.2739
10205TIP3    H152106   2.773   1.244   2.507 -1.2860  1.5102 -0.7857
10205TIP3    H252107   2.868   1.194   2.400 -1.5223  0.4181 -0.4942
10206TIP3   OH252108   2.869   5.319   3.769  0.0474 -0.2023  0.1181
10206TIP3    H152109   2.832   5.286   3.851  0.7069 -2.8532 -0.5700
10206TIP3    H252110   2.856   5.248   3.706 -2.0024  2.3663 -2.6342
10207TIP3   OH252111   6.084   3.067  17.258 -0.2442 -0.4736 -0.1920
10207TIP3    H152112   6.159   3.038  17.311  1.2851  3.4768  0.1841
10207TIP3    H252113   6.035   3.126  17.316 -2.7301 -1.6366 -1.0020
10208TIP3   OH252114   1.434   1.011   0.460 -0.0568  0.0986 -0.3195
10208TIP3    H152115   1.399   1.003   0.372 -1.8681  2.0421  0.1138
10208TIP3    H252116   1.490   1.089   0.457 -0.6772  0.5991  0.3397
10209TIP3   OH252117   3.500   1.790  11.315 -0.3871  0.4496  0.0712
10209TIP3    H152118   3.487   1.737  11.394 -0.3820 -0.4294 -0.5134
10209TIP3    H252119   3.432   1.761  11.255  0.0438  0.6261 -0.5080
10210TIP3   OH252120   1.135   0.948  15.705 -0.1480  0.0982 -0.0394
10210TIP3    H152121   1.111   0.951  15.797 -0.5682 -1.5063 -0.0651
10210TIP3    H252122   1.149   1.040  15.680 -1.5283  0.6860  1.2199
10211TIP3   OH252123   2.016   3.613  13.245 -0.4858  0.0906 -0.0878
10211TIP3    H152124   2.052   3.667  13.315  1.5702  0.3065 -1.2300
10211TIP3    H252125   1.972   3.541  13.290  1.3374 -0.1409  1.4603
10212TIP3   OH252126   1.615   5.444   5.972  0.0278  0.2911  0.2281
10212TIP3    H152127   1.530   5.483   5.952  0.2924  0.0543 -1.5357
10212TIP3    H252128   1.598   5.387   6.047 -1.3749  0.2565 -0.0849
10213TIP3   OH252129   1.609   2.881   2.908 -0.3230 -0.4243  0.0847
10213TIP3    H152130   1.532   2.831   2.937  0.6968 -0.9333  2.1393
10213TIP3    H252131   1.673   2.867   2.978  1.5864  0.1298 -1.4989
10214TIP3   OH252132   1.787   4.460   2.754 -0.7393 -0.4504  0.3367
10214TIP3    H152133   1.786   4.481   2.661  0.1354 -0.4190  0.3278
10214TIP3    H252134   1.776   4.544   2.798 -3.9129 -0.7081  0.2910
10215TIP3   OH252135   1.908   4.656  17.112 -0.6532  0.2833 -0.0012
10215TIP3    H152136   1.991   4.697  17.089 -1.0240  0.0445 -1.9405
10215TIP3    H252137   1.932   4.583  17.169  0.3881  0.6770  0.0815
10216TIP3   OH252138   5.786   3.254  13.234 -0.4715  0.6620 -0.1702
10216TIP3    H152139   5.741   3.296  13.308 -0.5459  1.8647 -0.8654
10216TIP3    H252140   5.732   3.277  13.158  0.7432  1.2609 -0.8786
10217TIP3   OH252141   6.400   4.102   1.692  0.3441  0.3045  0.0350
10217TIP3    H152142   6.315   4.061   1.706  0.4634  0.1196  0.2413
10217TIP3    H252143   6.414   4.099   1.597 -0.3540  1.3122 -0.1191
10218TIP3   OH252144   6.730   0.687   2.828  0.2385 -0.6721  0.5164
10218TIP3    H152145   6.820   0.696   2.798  0.3929  0.9200  1.3659
10218TIP3    H252146   6.678   0.730   2.760  0.3534  0.5291  1.1616
10219TIP3   OH252147   6.384   2.821   3.472  0.1723 -0.7513 -0.1541
10219TIP3    H152148   6.460   2.764   3.480  0.8076  0.1674  0.6371
10219TIP3    H252149   6.402   2.875   3.396  0.7812  0.1175  0.5889
10220TIP3   OH252150   1.883   1.685  10.337 -0.0305 -0.9577 -0.2978
10220TIP3    H152151   1.973   1.669  10.310 -0.2795 -1.4472 -0.8413
10220TIP3    H252152   1.845   1.598  10.351 -0.0474 -0.7384  1.1901
10221TIP3   OH252153   0.766   2.221  15.385  0.3679 -0.4765  0.0716
10221TIP3    H152154   0.797   2.158  15.320 -0.2764  0.3158 -1.0195
10221TIP3    H252155   0.830   2.293  15.381 -0.1573 -0.0244 -0.3318
10222TIP3   OH252156   4.194   2.553   1.518 -0.2149 -0.4614 -0.3638
10222TIP3    H152157   4.210   2.497   1.443  0.1919  1.6279 -1.9192
10222TIP3    H252158   4.267   2.615   1.519 -1.0872  0.6097  0.7229
10223TIP3   OH252159   6.066   5.021  17.116 -0.0373 -0.4098 -0.0089
10223TIP3    H152160   6.100   4.938  17.082 -1.1713 -0.6467 -0.6278
10223TIP3    H252161   6.144   5.072  17.139  0.8355 -0.4146 -2.5631
10224TIP3   OH252162   2.708   6.377  16.431  0.2236 -0.4648 -0.6353
10224TIP3    H152163   2.763   6.452  16.411  0.0075  0.3554  1.5589
10224TIP3    H252164   2.741   6.343  16.514 -0.9944 -1.5156 -0.5344
10225TIP3   OH252165   6.676   6.190   3.171  0.2522  0.2410 -0.0754
10225TIP3    H152166   6.767   6.219   3.168  0.6651 -0.7647  1.6628
10225TIP3    H252167   6.668   6.144   3.254 -1.4827 -0.9110 -0.8243
10226TIP3   OH252168   4.208   3.478  13.746  0.6215  0.0014 -0.4966
10226TIP3    H152169   4.245   3.566  13.743  0.3380  0.1654  0.5640
10226TIP3    H252170   4.120   3.490  13.781  1.6331 -1.0060  2.7058
10227TIP3   OH252171   3.015   2.197  15.619  1.1093  0.3147  0.4347
10227TIP3    H152172   2.991   2.240  15.537 -1.0511 -0.1346  0.7949
10227TIP3    H252173   3.034   2.107  15.594  0.2403  0.1234  0.4403
10228TIP3   OH252174   6.118   0.555   1.955  0.1144 -0.3093 -0.4710
10228TIP3    H152175   6.209   0.528   1.947  0.3189 -0.0891  0.9076
10228TIP3    H252176   6.120   0.629   2.015 -1.0152 -0.6003 -0.0472
10229TIP3   OH252177   1.604   5.197  16.013 -0.2818  0.7982 -0.1858
10229TIP3    H152178   1.532   5.249  16.050 -0.4130 -0.4614  1.4486
10229TIP3    H252179   1.682   5.249  16.031 -0.5623  1.1597  0.0032
10230TIP3   OH252180   2.590   5.133  16.228  0.5727 -0.4686  0.0211
10230TIP3    H152181   2.498   5.161  16.222  0.8741  1.1066  1.7292
10230TIP3    H252182   2.640   5.207  16.194  1.2382 -1.3090 -0.8903
10231TIP3   OH252183   1.386   2.832   0.199 -0.1540 -0.0415  0.5254
10231TIP3    H152184   1.292   2.828   0.183 -0.1413 -1.0028  0.6542
10231TIP3    H252185   1.405   2.758   0.256  0.8742 -0.6381 -0.5365
10232TIP3   OH252186   2.115   2.340   4.532  0.5139  0.4286  0.0905
10232TIP3    H152187   2.145   2.429   4.514  1.3254 -0.1008 -1.3239
10232TIP3    H252188   2.192   2.286   4.519 -0.3044 -0.6352 -0.4295
10233TIP3   OH252189   4.497   1.829  13.653  0.0958 -0.2152  0.5116
10233TIP3    H152190   4.442   1.903  13.629  0.8709  0.2737  0.2044
10233TIP3    H252191   4.443   1.776  13.712  0.0944  1.4672  2.1065
10234TIP3   OH252192   6.255   2.732  11.087  0.5340  0.3289  0.1180
10234TIP3    H152193   6.326   2.675  11.116 -0.3769  0.0849  2.0609
10234TIP3    H252194   6.288   2.775  11.009  2.5131 -0.3502  0.5356
10235TIP3   OH252195   3.431   3.081   0.189  0.3568  0.0596 -0.0667
10235TIP3    H152196   3.364   3.146   0.205 -0.6511 -0.9637 -0.0001
10235TIP3    H252197   3.488   3.121   0.123 -0.7605  0.6416 -0.7054
10236TIP3   OH252198   3.980   2.845  17.160 -0.2160 -0.2208  0.2817
10236TIP3    H152199   3.955   2.937  17.172 -0.4943 -0.4563  1.6507
10236TIP3    H252200   4.065   2.837  17.203 -0.4520 -0.7330  0.6613
10237TIP3   OH252201   2.765   5.703  16.012  0.2071  0.0813 -0.0315
10237TIP3    H152202   2.859   5.693  16.027  0.2651  1.8221  0.9924
10237TIP3    H252203   2.758   5.744  15.925  0.1990 -2.7639 -1.4988
10238TIP3   OH252204   1.008   1.129   2.936  0.1705  0.0638  0.3266
10238TIP3    H152205   0.938   1.101   2.995  1.0024 -2.2669  0.3106
10238TIP3    H252206   0.968   1.125   2.849 -0.1140  0.2467  0.4461
10239TIP3   OH252207   0.160   5.370  12.775  0.1615 -0.0808 -0.2602
10239TIP3    H152208   0.249   5.389  12.745 -0.6851  1.1460 -2.2174
10239TIP3    H252209   0.146   5.278  12.752  0.5155  0.0709 -1.1207
10240TIP3   OH252210   1.654   5.737  13.457  0.2703  0.3497 -0.1442
10240TIP3    H152211   1.636   5.727  13.363 -0.1680  1.3621 -0.1901
10240TIP3    H252212   1.681   5.829  13.466  1.2503  0.0076  0.5857
10241TIP3   OH252213   0.177   6.175  11.760  0.2277 -0.7415 -0.0606
10241TIP3    H152214   0.105   6.226  11.721 -1.4163 -2.1141  1.0518
10241TIP3    H252215   0.194   6.106  11.696  2.8682  1.3433 -1.8572
10242TIP3   OH252216   6.088   0.023   1.520 -0.1880  0.3101  0.1460
10242TIP3    H152217   6.061  -0.035   1.450 -0.3678 -0.0383  0.5033
10242TIP3    H252218   6.023   0.011   1.589  0.9593 -0.6973  1.0969
10243TIP3   OH252219   3.839   6.254   0.925 -0.3997 -0.0569 -0.0633
10243TIP3    H152220   3.892   6.178   0.951  0.8037  0.4061 -1.1073
10243TIP3    H252221   3.792   6.225   0.847  0.7210  0.5075 -0.9817
10244TIP3   OH252222   0.596   5.349   0.528  0.0327 -0.0728  0.2742
10244TIP3    H152223   0.634   5.268   0.497  1.2457  0.0793  1.2912
10244TIP3    H252224   0.555   5.326   0.612 -0.8316  0.0854 -0.0925
10245TIP3   OH252225   1.527   6.268   6.214  0.6453  0.2306  0.2688
10245TIP3    H152226   1.617   6.271   6.180  0.6899 -0.4319  0.3159
10245TIP3    H252227   1.485   6.343   6.173  0.3537 -1.1936 -2.3298
10246TIP3   OH252228   4.275   1.521  12.308  0.8124  0.2911  0.1142
10246TIP3    H152229   4.249   1.558  12.223 -1.9307 -1.3504  0.1074
10246TIP3    H252230   4.307   1.596  12.358 -0.4275  1.8727 -1.3368
10247TIP3   OH252231   1.410   5.136  12.246  0.3560 -0.2468  0.0616
10247TIP3    H152232   1.503   5.113  12.258  0.3462  0.1700  0.9959
10247TIP3    H252233   1.390   5.106  12.157  1.3184 -0.5685 -0.0647
10248TIP3   OH252234   0.502   6.421   1.576 -0.2461 -0.3801  0.2891
10248TIP3    H152235   0.565   6.477   1.622 -1.7863  0.2514  1.7314
10248TIP3    H252236   0.531   6.332   1.595  1.1530 -0.1126 -0.4733
10249TIP3   OH252237   4.842   5.228  13.944 -0.2187  0.2775  0.4128
10249TIP3    H152238   4.810   5.197  13.859 -1.2361  0.8909  0.5564
10249TIP3    H252239   4.804   5.166  14.007  1.4206 -0.8392  0.3724
10250TIP3   OH252240   1.763   4.542  16.461 -0.3620  0.6387  0.0729
10250TIP3    H152241   1.724   4.604  16.522  0.3753 -0.0293  1.2770
10250TIP3    H252242   1.698   4.472  16.452 -0.3167  0.5466  0.4277
10251TIP3   OH252243   0.524   3.634  11.179 -0.1194  0.1082 -0.2504
10251TIP3    H152244   0.620   3.633  11.189  0.3576 -0.9159 -3.5388
10251TIP3    H252245   0.491   3.652  11.266  3.0287 -1.7108  1.5284
10252TIP3   OH252246   1.357   0.525  13.729 -0.3094 -0.4711  0.8278
10252TIP3    H152247   1.428   0.514  13.793  1.5670 -0.8513 -1.2238
10252TIP3    H252248   1.386   0.595  13.671 -2.0928  0.0512  0.4822
10253TIP3   OH252249   0.588   6.143   2.310 -0.4348 -0.0369  0.0886
10253TIP3    H152250   0.500   6.125   2.342 -0.8258 -1.9842 -1.8057
10253TIP3    H252251   0.642   6.073   2.346  0.1966  0.7005  0.6092
10254TIP3   OH252252   1.682   5.550  14.052 -0.0387 -0.3197  0.1792
10254TIP3    H152253   1.617   5.546  13.982 -0.0373 -1.3379  0.2135
10254TIP3    H252254   1.658   5.477  14.110  0.7972 -0.3591  0.4882
10255TIP3   OH252255   3.375   0.231  13.936 -0.2767 -0.1692 -0.4229
10255TIP3    H152256   3.328   0.149  13.954  2.0629 -1.1546  1.7083
10255TIP3    H252257   3.434   0.210  13.864 -1.2716  0.3660 -1.4309
10256TIP3   OH252258   5.533   0.250   4.744  0.5335  0.2579  0.0667
10256TIP3    H152259   5.566   0.218   4.659  1.4233  0.3210  0.3726
10256TIP3    H252260   5.583   0.200   4.809  1.2588  1.5682  0.5552
10257TIP3   OH252261   4.245   5.432  12.239  0.0842 -0.2254  0.4806
10257TIP3    H152262   4.226   5.339  12.241  1.6317 -0.5495  0.9963
10257TIP3    H252263   4.181   5.471  12.299 -1.4678 -0.7272 -0.7553
10258TIP3   OH252264   0.570   1.118  15.466 -0.1176 -0.2492  1.0574
10258TIP3    H152265   0.540   1.090  15.380 -1.4879  0.3187  1.3346
10258TIP3    H252266   0.637   1.184  15.448 -2.2877  1.9267  0.3465
10259TIP3   OH252267   4.884   1.934   0.475  0.2638 -0.5924 -0.2149
10259TIP3    H152268   4.845   1.989   0.542  1.3779 -2.3087  1.9908
10259TIP3    H252269   4.945   1.992   0.428  1.0713  0.1931  1.7260
10260TIP3   OH252270   5.894   0.136  12.477 -0.1135 -0.7896 -0.0429
10260TIP3    H152271   5.841   0.058  12.490 -2.3445  0.6036 -0.1567
10260TIP3    H252272   5.900   0.145  12.381 -0.0784 -0.7015 -0.0328
10261TIP3   OH252273   1.153   6.077  11.097  0.8514 -0.0261  0.2484
10261TIP3    H152274   1.122   5.988  11.079  3.8220 -1.1613  0.1813
10261TIP3    H252275   1.087   6.134  11.057 -1.0072 -2.1734  0.0541
10262TIP3   OH252276   5.593   6.731  15.397 -0.2845 -0.5758 -0.6976
10262TIP3    H152277   5.619   6.640  15.381 -0.5711 -0.4041 -2.3420
10262TIP3    H252278   5.675   6.781  15.392 -0.2084 -0.6726 -0.4093
10263TIP3   OH252279   1.202   4.347  16.945 -0.4574 -0.1952  0.2701
10263TIP3    H152280   1.124   4.380  16.900 -0.6917  0.0196  0.8182
10263TIP3    H252281   1.177   4.345  17.038  0.7030  1.3890  0.6618
10264TIP3   OH252282   0.339   4.539   1.586 -0.4919  0.0435 -0.0433
10264TIP3    H152283   0.292   4.623   1.582  1.3842  1.0912 -2.6312
10264TIP3    H252284   0.273   4.474   1.561 -1.2131  1.1757 -1.2278
10265TIP3   OH252285   2.024   0.774  14.149  0.6848  0.2564  0.1569
10265TIP3    H152286   1.940   0.732  14.132 -1.1423  3.5769  0.2115
10265TIP3    H252287   2.040   0.830  14.073  1.4474  1.7249  1.3358
10266TIP3   OH252288   2.307   3.435   2.384  0.3731  0.2073  0.2605
10266TIP3    H152289   2.377   3.387   2.341 -0.5101 -0.3832 -0.5468
10266TIP3    H252290   2.242   3.451   2.316 -0.2037  0.9146  0.9473
10267TIP3   OH252291   5.195   1.863  14.658 -0.4139  0.5350  0.3674
10267TIP3    H152292   5.191   1.768  14.672 -0.7581  0.4282 -0.3964
10267TIP3    H252293   5.206   1.900  14.745 -2.8308 -0.0820  1.0088
10268TIP3   OH252294   1.743   1.328  16.726  0.0474 -0.4909  0.2158
10268TIP3    H152295   1.786   1.363  16.803  2.1446  0.9317 -1.4720
10268TIP3    H252296   1.650   1.348  16.738  0.3392 -0.2560  2.2874
10269TIP3   OH252297   5.521   5.748  16.125  0.5552 -0.7091 -0.2565
10269TIP3    H152298   5.455   5.680  16.138  0.4049 -0.5360 -0.1113
10269TIP3    H252299   5.511   5.806  16.200  0.2201 -0.1448 -0.7334
10270TIP3   OH252300   4.390   5.607  17.182  0.3854 -0.4688  0.3330
10270TIP3    H152301   4.417   5.520  17.155  0.6330 -0.3302  0.1284
10270TIP3    H252302   4.311   5.626  17.131  0.9188 -0.1589 -0.3894
10271TIP3   OH252303   4.123   5.189   5.142 -0.2518  0.6717 -0.0100
10271TIP3    H152304   4.190   5.122   5.131 -0.6817  0.2422 -0.0567
10271TIP3    H252305   4.132   5.217   5.233  0.3975  1.0681 -0.1870
10272TIP3   OH252306   1.008   6.734   1.252 -0.3237 -0.5857  0.2509
10272TIP3    H152307   0.976   6.672   1.186  0.6489 -0.3720 -0.4448
10272TIP3    H252308   1.059   6.798   1.202 -0.3193  0.1040  1.1084
10273TIP3   OH252309   6.775   6.668  14.681  0.4471  0.5528 -0.1670
10273TIP3    H152310   6.830   6.695  14.755 -0.7538  1.3090  0.4726
10273TIP3    H252311   6.837   6.632  14.618  1.7963  2.1942  0.1561
10274TIP3   OH252312   1.394   0.675  15.263  0.0120  0.6881  0.7886
10274TIP3    H152313   1.341   0.612  15.312  0.2801 -0.4643 -0.3289
10274TIP3    H252314   1.478   0.676  15.307  0.9093 -1.8006 -0.6284
10275TIP3   OH252315   4.359   3.721  11.144  0.6606 -0.3097  0.3030
10275TIP3    H152316   4.403   3.802  11.119 -0.5286  0.2563  0.0153
10275TIP3    H252317   4.403   3.653  11.092  1.3081  0.2092  0.1628
10276TIP3   OH252318   2.810   3.321   2.555  0.0849  0.6212 -0.4740
10276TIP3    H152319   2.766   3.312   2.470 -1.2315  0.8465  0.1598
10276TIP3    H252320   2.881   3.256   2.553 -0.5893 -0.1034 -1.3325
10277TIP3   OH252321   5.078   4.644  11.236 -0.2680 -0.2016 -0.4216
10277TIP3    H152322   5.042   4.724  11.196  0.4465 -0.3195 -1.3182
10277TIP3    H252323   5.028   4.573  11.196  0.3855 -0.3137 -1.0601
10278TIP3   OH252324   4.581   3.522   2.454 -0.0819  0.5827 -0.7674
10278TIP3    H152325   4.648   3.454   2.454 -0.8251 -0.2235 -2.2192
10278TIP3    H252326   4.623   3.598   2.414 -0.2624 -0.2573 -2.7098
10279TIP3   OH252327   6.614   1.103  15.124  0.0330 -0.3832 -0.3808
10279TIP3    H152328   6.584   1.095  15.033 -0.1779 -0.5218 -0.2997
10279TIP3    H252329   6.537   1.081  15.177  0.6994 -2.3880 -0.1637
10280TIP3   OH252330   5.863   3.449  16.932 -0.2836  0.5634 -0.0292
10280TIP3    H152331   5.855   3.360  16.896  0.3209  0.0813  0.9703
10280TIP3    H252332   5.786   3.495  16.899  0.5639  0.3578 -2.4431
10281TIP3   OH252333   4.788   6.760  12.573 -0.4532 -0.3506 -0.3521
10281TIP3    H152334   4.827   6.710  12.502  0.6727 -0.1246  0.0918
10281TIP3    H252335   4.862   6.797  12.621 -1.2165  0.4033  0.2963
10282TIP3   OH252336   3.630   6.505  13.937  0.4988  0.3992  0.0443
10282TIP3    H152337   3.637   6.413  13.962  0.3326  0.4037  0.1117
10282TIP3    H252338   3.571   6.505  13.862  1.1957  0.3586 -0.5091
10283TIP3   OH252339   2.492   1.931   5.167 -0.5686 -0.2303  0.7187
10283TIP3    H152340   2.580   1.959   5.192  0.0534  1.0874 -2.4750
10283TIP3    H252341   2.436   2.006   5.186 -0.0152  0.9597 -1.8728
10284TIP3   OH252342   2.238   1.401  11.996  0.3322 -0.1876 -0.0483
10284TIP3    H152343   2.217   1.441  11.912  2.0095 -0.4882 -0.6522
10284TIP3    H252344   2.189   1.452  12.061 -1.0561 -0.0114 -1.1917
10285TIP3   OH252345   4.991   6.048  15.561 -0.3261 -0.6440 -0.2197
10285TIP3    H152346   5.034   5.964  15.582  0.6634 -0.2382 -0.5885
10285TIP3    H252347   4.899   6.033  15.582 -0.4140 -2.2785 -1.5794
10286TIP3   OH252348   5.146   5.149  13.816  0.3315  0.3105  0.1418
10286TIP3    H152349   5.154   5.212  13.887  0.9699  0.2155  0.1575
10286TIP3    H252350   5.119   5.068  13.858  0.3341  0.3527  0.2242
10287TIP3   OH252351   0.747   1.169   6.711  0.1382 -0.1172 -0.1430
10287TIP3    H152352   0.749   1.265   6.710  0.4633 -0.1244 -0.3963
10287TIP3    H252353   0.839   1.144   6.721  0.1773 -0.4092 -1.1536
10288TIP3   OH252354   3.751   4.408   4.892  0.4999  0.2166  0.4696
10288TIP3    H152355   3.847   4.407   4.887  0.7182  1.7415  2.9648
10288TIP3    H252356   3.726   4.318   4.871  2.5635 -0.5642  1.0383
10289TIP3   OH252357   6.352   0.355   1.309  0.0356 -0.0450  0.3201
10289TIP3    H152358   6.267   0.320   1.338 -0.9876  2.2340  0.2299
10289TIP3    H252359   6.331   0.418   1.241  2.0498 -1.3174 -1.6456
10290TIP3   OH252360   5.974   4.361  12.436 -0.2080 -0.1896 -0.4653
10290TIP3    H152361   6.018   4.444  12.415  0.4845 -0.6214 -0.7844
10290TIP3    H252362   5.975   4.357  12.531  2.0536 -0.9933 -0.4671
10291TIP3   OH252363   6.240   1.221   3.712  0.0235  0.1870  0.2968
10291TIP3    H152364   6.150   1.207   3.738  0.0323  0.9410  0.7618
10291TIP3    H252365   6.292   1.171   3.775  0.0525  2.0918  1.8788
10292TIP3   OH252366   4.454   3.277   5.603 -0.5708 -0.4362 -0.3083
10292TIP3    H152367   4.397   3.265   5.527  1.3447 -1.3104 -1.7030
10292TIP3    H252368   4.416   3.219   5.670 -2.1970  0.2198 -0.6130
10293TIP3   OH252369   0.273   6.029   3.617 -0.4884 -0.0971  0.4660
10293TIP3    H152370   0.203   5.977   3.578  0.0495 -0.5869  0.1346
10293TIP3    H252371   0.279   5.997   3.707  0.5137 -1.3417 -0.0191
10294TIP3   OH252372   2.455   4.778  10.869  0.3893 -0.1008 -0.5800
10294TIP3    H152373   2.434   4.686  10.854  0.3689 -0.2125  0.0983
10294TIP3    H252374   2.406   4.825  10.801 -3.6204 -0.1855  1.9147
10295TIP3   OH252375   5.129   2.656   0.943  0.3137 -0.5719  0.8630
10295TIP3    H152376   5.155   2.737   0.986 -2.3106  1.1646 -0.5469
10295TIP3    H252377   5.180   2.654   0.862 -0.7099  0.5171  0.1710
10296TIP3   OH252378   4.130   3.294  13.217 -0.0966  0.0041  0.2897
10296TIP3    H152379   4.093   3.256  13.138  0.4882  1.7684 -0.9187
10296TIP3    H252380   4.220   3.260  13.220 -0.6917 -1.5654  1.3035
10297TIP3   OH252381   4.729   1.441  12.058  0.2884  0.2725 -0.3277
10297TIP3    H152382   4.726   1.525  12.012 -0.1642  0.7153  0.4906
10297TIP3    H252383   4.803   1.395  12.018  0.5356  1.0503 -0.7955
10298TIP3   OH252384   2.663   0.050  13.759  0.0307 -0.1722 -0.3323
10298TIP3    H152385   2.650   0.125  13.817 -0.3878  0.5741 -1.3530
10298TIP3    H252386   2.758   0.045  13.747  0.1336 -0.4579  0.5678
10299TIP3   OH252387   5.478   3.938   1.423  0.0783  0.0655  0.1654
10299TIP3    H152388   5.517   4.011   1.375  0.7355  0.5312  1.3494
10299TIP3    H252389   5.403   3.976   1.468  0.1811 -0.0757  0.4579
10300TIP3   OH252390   3.901   0.213   4.298 -0.1295  0.1881  0.0932
10300TIP3    H152391   3.817   0.197   4.255 -0.4363 -1.3134  1.1757
10300TIP3    H252392   3.964   0.160   4.249  0.0573  0.7020 -0.2337
10301TIP3   OH252393   1.958   0.382   3.375  0.1491 -0.7829  0.6840
10301TIP3    H152394   2.008   0.385   3.457  0.3297 -0.4481  0.5644
10301TIP3    H252395   1.878   0.432   3.394  0.6464  0.1695  0.3612
10302TIP3   OH252396   0.794   1.208  14.816  0.3590  0.1184  0.3407
10302TIP3    H152397   0.705   1.175  14.830  0.5948 -1.4174 -1.3294
10302TIP3    H252398   0.824   1.162  14.738  1.8236  2.2726 -0.4655
10303TIP3   OH252399   5.409   6.313  16.004  0.3688 -0.0409 -0.1959
10303TIP3    H152400   5.423   6.392  16.056 -0.8033 -0.5245  0.9278
10303TIP3    H252401   5.496   6.288  15.973  0.7398  1.6953 -0.6048
10304TIP3   OH252402   2.334   5.205  17.074  0.0884  0.1943 -0.4206
10304TIP3    H152403   2.387   5.230  17.150 -0.8008 -0.5304  0.4518
10304TIP3    H252404   2.327   5.286  17.023  0.8136  0.6569  0.1839
10305TIP3   OH252405   0.299   3.061   1.800  0.2639 -0.5881 -0.2706
10305TIP3    H152406   0.207   3.067   1.824 -0.2182  0.8711 -2.2543
10305TIP3    H252407   0.311   3.127   1.731  2.5501 -1.4712 -0.8285
10306TIP3   OH252408   6.023   2.052  16.384  0.1344  0.4449 -0.3096
10306TIP3    H152409   5.989   1.999  16.311  0.7909  0.2263 -0.4671
10306TIP3    H252410   6.012   1.997  16.461  1.3398 -0.1799 -0.5556
10307TIP3   OH252411   3.416   2.664  13.749  0.0305 -0.0840 -0.5599
10307TIP3    H152412   3.507   2.652  13.776 -0.3055 -1.7035 -0.0451
10307TIP3    H252413   3.391   2.748  13.788  0.8524 -0.3334  0.5819
10308TIP3   OH252414   4.843   4.650  10.902  0.8189  0.3659 -0.2120
10308TIP3    H152415   4.853   4.686  10.990  2.3350  1.4902 -0.7831
10308TIP3    H252416   4.873   4.560  10.909  1.9852  0.7615  0.2381
10309TIP3   OH252417   3.751   6.767  13.227  0.8224 -0.3288  0.5524
10309TIP3    H152418   3.755   6.693  13.167  0.1078  0.2293 -0.2028
10309TIP3    H252419   3.699   6.832  13.182  1.0673  0.4777  1.3916
10310TIP3   OH252420   0.756   6.491   4.433  0.7387 -0.1563  0.1028
10310TIP3    H152421   0.780   6.504   4.341 -0.6706  1.2695 -0.1095
10310TIP3    H252422   0.693   6.419   4.432 -0.2318  0.6769 -0.2349
10311TIP3   OH252423   3.714   4.235  12.161 -0.2015 -0.2347 -0.1106
10311TIP3    H152424   3.798   4.229  12.114 -0.3812  4.0140 -1.3872
10311TIP3    H252425   3.739   4.238  12.253  1.1993  1.4866 -0.4871
10312TIP3   OH252426   0.653   0.088  14.929  0.0609  0.5322  0.2502
10312TIP3    H152427   0.610   0.004  14.914 -0.7166  1.0007 -0.2490
10312TIP3    H252428   0.746   0.068  14.931 -0.1129 -0.3258  0.0465
10313TIP3   OH252429   1.767   5.852  17.256  0.3172  0.6548  0.0037
10313TIP3    H152430   1.680   5.881  17.285 -0.2025 -1.1262  0.3545
10313TIP3    H252431   1.778   5.891  17.170 -1.4166 -0.1386 -0.6243
10314TIP3   OH252432   5.828   3.613  16.494 -0.7202 -0.1154  0.3755
10314TIP3    H152433   5.915   3.576  16.506 -0.4571  0.8399  1.7127
10314TIP3    H252434   5.832   3.697  16.540 -2.0221  0.4379 -0.4708
10315TIP3   OH252435   1.164   1.401  12.880  0.0840  0.2004 -0.3318
10315TIP3    H152436   1.160   1.417  12.974 -1.3660  0.9199 -0.4729
10315TIP3    H252437   1.255   1.381  12.862  1.1246  3.3119  0.7521
10316TIP3   OH252438   2.433   5.632   1.815 -0.3843  0.2884  0.5034
10316TIP3    H152439   2.340   5.645   1.833 -0.4168  2.8110 -0.9737
10316TIP3    H252440   2.435   5.570   1.742 -1.0314  1.0793 -0.2202
10317TIP3   OH252441   6.405   1.024  16.687  0.2257 -0.2396  0.0388
10317TIP3    H152442   6.430   1.085  16.756  0.4088 -2.3344  1.9203
10317TIP3    H252443   6.471   1.037  16.618  1.1566  0.5966  1.0583
10318TIP3   OH252444   0.611   3.611  15.751 -0.3920  0.0090 -0.1824
10318TIP3    H152445   0.620   3.592  15.844 -1.7734  1.2921  0.2531
10318TIP3    H252446   0.522   3.586  15.729  0.0363 -0.6361 -1.2708
10319TIP3   OH252447   4.599   1.480  15.483  0.7285 -0.4251  0.5110
10319TIP3    H152448   4.638   1.405  15.528 -0.1441 -0.9399  0.4347
10319TIP3    H252449   4.525   1.504  15.538  0.8935  0.2747  0.4380
10320TIP3   OH252450   3.525   4.385  14.732 -0.8047  0.2079 -0.5366
10320TIP3    H152451   3.501   4.455  14.794 -0.8485 -0.3369  0.0718
10320TIP3    H252452   3.565   4.432  14.659  0.9555  0.7677  0.7137
10321TIP3   OH252453   1.334   3.244  14.793  0.1998 -0.1092 -0.5363
10321TIP3    H152454   1.345   3.315  14.730 -0.7335  0.0678 -0.5177
10321TIP3    H252455   1.241   3.219  14.785  0.1569 -0.3228  0.5081
10322TIP3   OH252456   5.965   0.391  16.935  0.1670  0.2308  0.5786
10322TIP3    H152457   6.054   0.415  16.960 -0.1452  0.6894  1.2811
10322TIP3    H252458   5.973   0.362  16.844  0.6006  3.0006 -0.3764
10323TIP3   OH252459   1.728   3.152   2.663 -0.3374 -0.3557  0.2152
10323TIP3    H152460   1.773   3.204   2.730  1.6043  0.2662 -1.4364
10323TIP3    H252461   1.732   3.206   2.585 -0.5787 -1.9344 -0.9404
10324TIP3   OH252462   3.868   5.052   0.186 -0.0917 -0.4432  0.2981
10324TIP3    H152463   3.875   4.957   0.185  1.0928 -0.3773  1.0075
10324TIP3    H252464   3.958   5.083   0.181 -0.1035  0.6011  3.8253
10325TIP3   OH252465   1.370   3.229   2.709 -0.2047  0.3448 -0.1870
10325TIP3    H152466   1.415   3.213   2.793  0.8388  0.3455 -0.7299
10325TIP3    H252467   1.277   3.229   2.732  0.0997  1.6457  1.2040
10326TIP3   OH252468   2.216   4.477   2.133  0.0153  0.9771  0.1856
10326TIP3    H152469   2.270   4.554   2.151  0.6343  0.8235 -0.9114
10326TIP3    H252470   2.148   4.478   2.201  0.0731  2.4237  0.2431
10327TIP3   OH252471   5.496   5.918   1.259 -0.6131  0.1577 -0.0150
10327TIP3    H152472   5.472   6.007   1.235 -0.2173  0.1775 -0.3534
10327TIP3    H252473   5.438   5.896   1.332 -1.6817  0.1859 -0.8356
10328TIP3   OH252474   3.967   2.466  14.713  0.3373  0.0119 -0.4260
10328TIP3    H152475   4.053   2.446  14.678 -0.1582 -5.0399  0.4913
10328TIP3    H252476   3.907   2.413  14.662 -1.5829 -0.3102  1.9436
10329TIP3   OH252477   1.561   0.593  12.186 -0.4324  0.4065 -0.2906
10329TIP3    H152478   1.561   0.550  12.271 -2.0451  1.7686  0.4601
10329TIP3    H252479   1.479   0.643  12.185 -0.0437  1.0853 -2.3067
10330TIP3   OH252480   3.026   3.897   1.858  0.1166 -0.1316  0.3713
10330TIP3    H152481   3.106   3.847   1.845 -0.0513 -0.0120 -1.3324
10330TIP3    H252482   2.957   3.843   1.821 -0.2016  0.9049 -0.6018
10331TIP3   OH252483   6.239   6.398  15.226  0.1483  0.1706 -0.2510
10331TIP3    H152484   6.277   6.407  15.139  0.3710  2.3051  0.0300
10331TIP3    H252485   6.163   6.341  15.213 -0.0045  0.7189 -1.8985
10332TIP3   OH252486   2.054   1.807  16.174 -0.4641 -0.1161  0.3528
10332TIP3    H152487   2.015   1.745  16.235 -1.4613 -0.6465 -0.7740
10332TIP3    H252488   2.145   1.779  16.166 -0.7998 -1.2015  0.1709
10333TIP3   OH252489   1.750   0.421   4.042 -0.2304  0.1139  0.4830
10333TIP3    H152490   1.768   0.513   4.058  2.7066 -0.2568  0.0389
10333TIP3    H252491   1.827   0.375   4.077 -1.2493 -2.1119  0.0264
10334TIP3   OH252492   5.511   5.303  12.200  1.0436 -0.4155  0.1306
10334TIP3    H152493   5.479   5.221  12.237  2.0081 -1.0458 -0.3837
10334TIP3    H252494   5.459   5.315  12.121 -0.4846  0.5330  1.2367
10335TIP3   OH252495   5.294   0.993  13.739 -0.6529  0.8203  0.1427
10335TIP3    H152496   5.283   0.914  13.687  0.1039  1.0998 -0.4521
10335TIP3    H252497   5.388   1.010  13.739 -0.8986  2.3095 -0.6320
10336TIP3   OH252498   2.497   6.251  16.821 -0.6234 -0.4525 -0.8828
10336TIP3    H152499   2.521   6.244  16.914  0.7814  0.2190 -1.1546
10336TIP3    H252500   2.549   6.183  16.778 -0.4851 -0.1013 -1.2843
10337TIP3   OH252501   2.610   6.389  10.831 -0.5326  0.6986  0.1638
10337TIP3    H152502   2.542   6.451  10.803 -0.5433  0.9843  0.8123
10337TIP3    H252503   2.671   6.386  10.757 -0.8175  1.0610 -0.0939
10338TIP3   OH252504   0.675   1.785   3.109  0.4859 -0.2445  0.0128
10338TIP3    H152505   0.682   1.799   3.015 -1.3425  1.1106  0.0185
10338TIP3    H252506   0.740   1.717   3.128  1.9560  0.5044 -1.9545
10339TIP3   OH252507   2.103   4.045  13.243 -0.0998 -0.1189 -0.0228
10339TIP3    H152508   2.090   4.139  13.230  0.5019 -0.0153  0.0693
10339TIP3    H252509   2.048   4.004  13.177 -1.4386  0.2553  0.8208
10340TIP3   OH252510   2.864   1.699  12.533  0.6387 -0.1733  0.2590
10340TIP3    H152511   2.840   1.702  12.441 -2.1988  2.7027  0.9052
10340TIP3    H252512   2.941   1.756  12.540 -0.8851  2.0483 -0.0404
10341TIP3   OH252513   5.056   2.619  12.922  0.1916 -0.0825  0.0617
10341TIP3    H152514   5.102   2.690  12.965 -0.2248  0.3998 -0.2813
10341TIP3    H252515   5.113   2.593  12.850 -0.3143  0.8849 -0.7006
10342TIP3   OH252516   0.592   3.201  14.458 -0.0398 -0.0746  0.3643
10342TIP3    H152517   0.542   3.262  14.403  0.5280  1.5902  1.6167
10342TIP3    H252518   0.542   3.196  14.539 -0.5805 -2.0929 -0.0223
10343TIP3   OH252519   2.378   3.861   1.435 -0.1049  0.1116  0.6240
10343TIP3    H152520   2.429   3.942   1.437 -1.0669  0.7461 -0.2040
10343TIP3    H252521   2.444   3.792   1.422  0.5083  0.9765 -1.1120
10344TIP3   OH252522   0.757   2.143   3.761  0.2543  0.1592 -0.3822
10344TIP3    H152523   0.710   2.163   3.681 -0.7150 -2.9201 -0.7317
10344TIP3    H252524   0.689   2.134   3.828  1.0269  2.4574  0.8060
10345TIP3   OH252525   1.576   0.581  11.184  0.5448  0.5346  0.2602
10345TIP3    H152526   1.521   0.514  11.226  1.0009  0.7700  1.2496
10345TIP3    H252527   1.554   0.574  11.091  0.3912 -0.8131  0.3745
10346TIP3   OH252528   1.352   0.252   0.378  0.0090  0.1155  0.0075
10346TIP3    H152529   1.399   0.245   0.461 -1.7708 -1.2020  0.9688
10346TIP3    H252530   1.391   0.184   0.323 -0.4045 -0.6457  0.6310
10347TIP3   OH252531   3.961   2.694   3.697 -0.3343  0.0403 -0.1549
10347TIP3    H152532   3.874   2.656   3.709  0.3151 -2.0705 -1.5905
10347TIP3    H252533   4.010   2.628   3.648  1.8439  1.5143 -0.1224
10348TIP3   OH252534   1.463   3.466  10.943  0.3918 -0.4072 -0.0995
10348TIP3    H152535   1.462   3.500  10.853  0.8140  1.1439  0.4548
10348TIP3    H252536   1.546   3.496  10.979 -0.5416  0.5212  1.3626
10349TIP3   OH252537   1.498   4.640   2.753  0.0543  0.6235 -0.2315
10349TIP3    H152538   1.489   4.569   2.689  1.0339 -0.0800  0.3843
10349TIP3    H252539   1.446   4.611   2.827  1.0217  0.1878  0.2995
10350TIP3   OH252540   5.205   5.981  10.930  0.0455  0.0882 -0.6559
10350TIP3    H152541   5.293   5.953  10.906 -0.6537 -0.0968 -3.2400
10350TIP3    H252542   5.158   5.900  10.950  0.3615  0.1763  0.5678
10351TIP3   OH252543   2.501   4.221  13.035  0.0010 -0.1015 -0.2847
10351TIP3    H152544   2.565   4.253  12.972  0.0953  2.7336  1.0852
10351TIP3    H252545   2.416   4.234  12.993  0.0976  1.1499 -0.1202
10352TIP3   OH252546   0.039   5.701  10.708 -0.3776 -0.2292  0.2062
10352TIP3    H152547   0.127   5.737  10.706 -0.4608 -0.0097  0.3148
10352TIP3    H252548   0.026   5.675  10.800 -0.8576  0.8685  0.4765
10353TIP3   OH252549   2.816   0.384   5.224 -0.0657 -0.9772 -0.3499
10353TIP3    H152550   2.886   0.318   5.214 -0.5945 -1.5356 -0.4285
10353TIP3    H252551   2.743   0.349   5.173  0.4127  0.8277 -2.3697
10354TIP3   OH252552   3.739   1.080   6.202 -0.0111  0.5951  0.3903
10354TIP3    H152553   3.682   1.023   6.254  0.5095  0.9677  1.3974
10354TIP3    H252554   3.827   1.047   6.217  0.0922  0.2864 -0.8206
10355TIP3   OH252555   0.471   3.092  16.544  0.5228  0.1259 -0.6362
10355TIP3    H152556   0.396   3.151  16.557  0.0602 -0.0075 -2.4120
10355TIP3    H252557   0.471   3.035  16.621 -0.5621  0.8059 -0.1088
10356TIP3   OH252558   1.651   1.033  14.335 -0.0642 -0.2451  1.2495
10356TIP3    H152559   1.593   0.980  14.389  0.1681 -0.1460  1.5963
10356TIP3    H252560   1.739   1.008  14.362  0.0557  1.1219  2.2291
10357TIP3   OH252561   0.583   0.450   0.075 -0.2456  0.3255  0.4258
10357TIP3    H152562   0.595   0.494  -0.009  0.5745  0.8693  0.8202
10357TIP3    H252563   0.496   0.410   0.068  0.4236 -0.9303 -1.2487
10358TIP3   OH252564   4.133   6.512   4.214 -0.0135 -0.2277 -0.4153
10358TIP3    H152565   4.073   6.525   4.141  0.0815  0.8403 -0.3252
10358TIP3    H252566   4.077   6.498   4.289 -0.1942  1.3300 -0.2276
10359TIP3   OH252567   6.543   4.276  17.002 -0.3953  0.2080  0.1583
10359TIP3    H152568   6.610   4.345  17.000  0.3539 -0.5041  0.5484
10359TIP3    H252569   6.590   4.196  17.024 -1.3592 -0.3342  0.3199
10360TIP3   OH252570   2.278   2.317  13.131 -0.1476  0.4302 -0.1322
10360TIP3    H152571   2.286   2.237  13.079  0.8728  0.0714  0.5426
10360TIP3    H252572   2.263   2.386  13.066 -1.4848 -0.3460 -0.6941
10361TIP3   OH252573   5.096   0.577  13.500  0.4286  0.7113 -0.0811
10361TIP3    H152574   5.087   0.645  13.433  0.7979  0.0007 -0.8620
10361TIP3    H252575   5.188   0.551  13.496 -0.2709 -1.8474 -1.8258
10362TIP3   OH252576   2.801   1.782   5.549  0.2730 -0.1083 -0.4539
10362TIP3    H152577   2.758   1.776   5.635 -0.2878 -2.5934 -0.8356
10362TIP3    H252578   2.890   1.813   5.568 -0.6506  2.0798  0.6748
10363TIP3   OH252579   1.865   6.069  13.702 -0.0854 -0.5584  0.0590
10363TIP3    H152580   1.933   6.112  13.754 -0.7037 -1.8563  2.0311
10363TIP3    H252581   1.912   6.010  13.644  0.5612  0.0538 -0.0536
10364TIP3   OH252582   5.717   3.123   2.962  0.0461 -0.0689 -0.2294
10364TIP3    H152583   5.801   3.094   2.926 -0.0724  0.4461 -0.9311
10364TIP3    H252584   5.663   3.142   2.886 -0.6123 -0.0972  0.2191
10365TIP3   OH252585   3.951   1.388   5.411  0.3508  0.5483 -0.5272
10365TIP3    H152586   3.902   1.337   5.476  2.0197 -2.1673 -1.2306
10365TIP3    H252587   3.952   1.477   5.446 -2.0933  0.0136  1.1755
10366TIP3   OH252588   1.271   5.926  16.382 -0.1925  0.2662 -0.3079
10366TIP3    H152589   1.224   5.938  16.465 -1.1548  0.0832 -0.8170
10366TIP3    H252590   1.207   5.888  16.323  0.5122  0.3088 -1.1206
10367TIP3   OH252591   5.455   1.098   2.371 -0.5710 -0.1809  0.9533
10367TIP3    H152592   5.398   1.026   2.343  0.9519 -0.2189 -2.5488
10367TIP3    H252593   5.539   1.056   2.388  0.4524  0.6787 -1.5310
10368TIP3   OH252594   5.536   5.597  15.763  0.2305 -0.3506  0.0382
10368TIP3    H152595   5.467   5.637  15.815  0.2497 -0.3572  0.0693
10368TIP3    H252596   5.597   5.668  15.745  1.7140 -0.8890  2.4495
10369TIP3   OH252597   2.348   3.402   1.210  0.0734  0.0245 -0.2260
10369TIP3    H152598   2.344   3.322   1.157 -0.6471 -0.9969  1.3105
10369TIP3    H252599   2.260   3.412   1.246 -0.7605  3.2016 -2.6815
10370TIP3   OH252600   4.452   5.214  11.843  0.0423  0.2587 -0.0051
10370TIP3    H152601   4.389   5.276  11.878 -0.4222 -0.3054  0.1721
10370TIP3    H252602   4.403   5.133  11.832  1.1967 -0.8227  2.1860
10371TIP3   OH252603   4.727   6.712   6.030 -0.6411 -0.4828  0.1667
10371TIP3    H152604   4.802   6.727   5.972 -1.0494 -2.2451 -0.8810
10371TIP3    H252605   4.659   6.676   5.973 -2.2715  0.9434  1.1273
10372TIP3   OH252606   1.815   6.336   6.159 -0.3428 -0.2211  0.2370
10372TIP3    H152607   1.824   6.386   6.240 -0.5579 -0.7481  0.5916
10372TIP3    H252608   1.806   6.402   6.091 -0.7025  0.2275  0.7117
10373TIP3   OH252609   3.589   6.429  12.785 -0.0360  0.3356  0.2659
10373TIP3    H152610   3.603   6.371  12.860  3.3308  2.2211  1.3010
10373TIP3    H252611   3.565   6.513  12.824 -1.1146  0.6228 -0.9683
10374TIP3   OH252612   1.437   3.253   4.513  0.8182  0.6775  0.1057
10374TIP3    H152613   1.395   3.283   4.432  0.5665 -0.1620 -0.0896
10374TIP3    H252614   1.401   3.311   4.581 -1.6252 -0.7261  0.1376
10375TIP3   OH252615   5.693   6.169  16.324 -0.3878  0.1294  0.7786
10375TIP3    H152616   5.611   6.219  16.324  1.2034  2.8975  0.1241
10375TIP3    H252617   5.699   6.134  16.413 -1.2901  1.6258  1.4666
10376TIP3   OH252618   2.437   3.734  16.626  0.5087  0.0949 -0.2036
10376TIP3    H152619   2.444   3.732  16.531 -0.3383 -0.4826 -0.2694
10376TIP3    H252620   2.519   3.697  16.657  0.5966 -0.1595 -0.7242
10377TIP3   OH252621   4.835   1.393   5.349  0.3273  0.7631  0.3063
10377TIP3    H152622   4.824   1.303   5.318 -1.5374  1.1123 -0.1456
10377TIP3    H252623   4.832   1.387   5.444 -0.8765  0.4376  0.2642
10378TIP3   OH252624   3.490   0.553  13.725 -0.0810 -0.5465  0.5267
10378TIP3    H152625   3.553   0.485  13.702  0.5376 -0.2826  1.3509
10378TIP3    H252626   3.545   0.626  13.756 -0.7985 -0.7664  2.4831
10379TIP3   OH252627   1.653   3.605   3.576  0.6011  0.4364  0.1879
10379TIP3    H152628   1.590   3.563   3.518 -0.4026  1.1899  0.6922
10379TIP3    H252629   1.635   3.699   3.568  1.3197  0.6293  0.7161
10380TIP3   OH252630   3.235   0.600   4.613  0.4918  0.4338 -0.0371
10380TIP3    H152631   3.142   0.611   4.632  0.8158  2.7437  0.5929
10380TIP3    H252632   3.270   0.554   4.689 -0.2603 -1.4665 -0.7691
10381TIP3   OH252633   0.351   1.495  11.570  0.4843 -0.1173 -0.6045
10381TIP3    H152634   0.381   1.535  11.652 -0.9028  0.2178 -0.2359
10381TIP3    H252635   0.413   1.527  11.504 -0.7649  3.0584 -0.4073
10382TIP3   OH252636   0.507   4.579  17.004 -0.3685  0.4143 -0.2267
10382TIP3    H152637   0.440   4.531  16.955  1.9505 -0.7180 -2.5812
10382TIP3    H252638   0.566   4.613  16.936  1.2603  1.6258  1.6853
10383TIP3   OH252639   5.110   1.393   0.356  0.6109 -0.9954 -0.5755
10383TIP3    H152640   5.041   1.387   0.290  0.9551  0.9726 -1.1840
10383TIP3    H252641   5.079   1.460   0.417  0.9225 -1.8085  0.5001
10384TIP3   OH252642   5.336   1.314  16.052  0.5240  0.1951 -0.2850
10384TIP3    H152643   5.306   1.277  16.135  2.3033 -0.5136  0.0799
10384TIP3    H252644   5.374   1.240  16.005  0.4645  0.7874 -1.2995
10385TIP3   OH252645   1.257   2.614  17.245  1.3578  0.2066  0.3119
10385TIP3    H152646   1.338   2.662  17.227  0.7880  1.0459 -0.1661
10385TIP3    H252647   1.189   2.682  17.243  0.3313 -0.7710 -1.7382
10386TIP3   OH252648   5.107   6.192  14.562 -0.2411 -0.1004 -0.0555
10386TIP3    H152649   5.039   6.244  14.520 -1.1503 -1.7922 -0.7698
10386TIP3    H252650   5.079   6.185  14.653 -0.1656  0.5380  0.0248
10387TIP3   OH252651   1.693   2.255   1.524 -0.4466  0.2131  0.5774
10387TIP3    H152652   1.607   2.284   1.493 -0.2020  0.7864  0.4260
10387TIP3    H252653   1.673   2.194   1.595 -0.9727  1.1120  1.2231
10388TIP3   OH252654   1.725   2.747   3.171  1.0063 -0.5054  0.1925
10388TIP3    H152655   1.755   2.661   3.201  1.3816 -0.8983 -1.2331
10388TIP3    H252656   1.630   2.744   3.181  1.1355 -0.4567  1.6878
10389TIP3   OH252657   1.018   4.538  14.493  0.2899 -0.6815  0.0593
10389TIP3    H152658   1.084   4.501  14.552  0.5891 -0.0641  0.1159
10389TIP3    H252659   0.935   4.504  14.526  0.5012 -0.7420  0.5384
10390TIP3   OH252660   3.870   0.853  16.895  0.0668 -0.2424 -0.0656
10390TIP3    H152661   3.777   0.869  16.911  0.0084 -0.5241 -0.1125
10390TIP3    H252662   3.894   0.914  16.825  0.1443  0.4796  0.5767
10391TIP3   OH252663   5.864   1.046   4.057  0.1288  0.1964  0.3644
10391TIP3    H152664   5.801   1.086   4.117  0.1937  0.5256  0.2116
10391TIP3    H252665   5.876   0.957   4.091  0.4740  0.5055  1.0842
10392TIP3   OH252666   3.234   5.934   4.828  0.5766 -0.5050  0.2309
10392TIP3    H152667   3.322   5.919   4.863  0.6308 -0.3646  0.1542
10392TIP3    H252668   3.242   6.012   4.775  0.7140 -1.2662 -0.8941
10393TIP3   OH252669   5.321   4.937   3.667 -0.3479 -0.1351 -0.2361
10393TIP3    H152670   5.410   4.947   3.633 -0.0565 -2.1252 -0.2065
10393TIP3    H252671   5.326   4.967   3.757 -0.4378  2.4796 -1.0387
10394TIP3   OH252672   4.131   0.793  14.512  0.3979 -0.1414 -0.0794
10394TIP3    H152673   4.181   0.712  14.506  1.2497  0.3892 -0.2684
10394TIP3    H252674   4.078   0.782  14.591  0.1740 -1.0536 -0.3418
10395TIP3   OH252675   6.324   0.563   1.688 -0.0570 -0.2030  0.6018
10395TIP3    H152676   6.368   0.627   1.632  1.2409 -1.1933  0.4320
10395TIP3    H252677   6.314   0.606   1.772 -0.1544  0.5723  0.2038
10396TIP3   OH252678   5.447   0.166  16.845 -0.1607  0.0990  0.3158
10396TIP3    H152679   5.395   0.086  16.849 -1.3453  0.9073  1.8581
10396TIP3    H252680   5.398   0.223  16.785 -0.3848  0.3895  0.7714
10397TIP3   OH252681   3.565   5.707  10.865 -0.0374  0.2672  0.0737
10397TIP3    H152682   3.590   5.790  10.825 -0.7953 -0.0342 -1.1010
10397TIP3    H252683   3.471   5.716  10.881  0.2473  0.3754  1.8421
10398TIP3   OH252684   3.423   0.431  12.311 -0.2518  0.2743  0.5491
10398TIP3    H152685   3.363   0.373  12.265 -0.2380  0.3426  0.4436
10398TIP3    H252686   3.509   0.411  12.273  0.2170 -1.6084  2.4229
10399TIP3   OH252687   4.786   3.307   2.475 -0.2016  0.2885 -0.6354
10399TIP3    H152688   4.882   3.302   2.471 -0.1758  0.3412 -0.1328
10399TIP3    H252689   4.757   3.217   2.460 -0.0574  0.1987 -0.3819
10400TIP3   OH252690   2.088   2.636  10.988  0.0875 -0.0368  0.2086
10400TIP3    H152691   2.174   2.602  11.010 -0.4112 -1.4858  0.0137
10400TIP3    H252692   2.053   2.574  10.924 -1.5613 -0.1143  1.1345
10401TIP3   OH252693   4.846   5.634  13.547  0.0851 -0.3232  0.0326
10401TIP3    H152694   4.825   5.728  13.549  0.4955 -0.2275  1.5008
10401TIP3    H252695   4.778   5.595  13.493 -0.6265  0.7007  0.1586
10402TIP3   OH252696   4.578   0.828   5.278  0.3674  0.0319  0.2912
10402TIP3    H152697   4.609   0.834   5.188  0.7757 -2.0047  0.2684
10402TIP3    H252698   4.556   0.919   5.301  0.6853  0.6589 -1.6799
10403TIP3   OH252699   4.795   0.752   5.567 -0.2517  0.1419 -0.4970
10403TIP3    H152700   4.816   0.665   5.533  0.7448  0.5572 -0.9568
10403TIP3    H252701   4.699   0.757   5.561 -0.1877 -0.1597 -2.3510
10404TIP3   OH252702   5.067   3.232   2.451 -0.5835  0.3311  0.5951
10404TIP3    H152703   5.046   3.212   2.543  1.4667 -2.1353  0.6347
10404TIP3    H252704   5.150   3.280   2.455 -0.4635  0.1764  0.0170
10405TIP3   OH252705   6.599   1.821   3.300 -0.0265  0.0885  0.1028
10405TIP3    H152706   6.509   1.825   3.333 -0.2310  0.3028 -0.4737
10405TIP3    H252707   6.594   1.763   3.224  0.2688  0.3240 -0.0969
10406TIP3   OH252708   1.549   0.689   2.969 -0.0367 -0.2106 -0.2089
10406TIP3    H152709   1.615   0.697   2.901  0.8873 -0.1455  0.6635
10406TIP3    H252710   1.471   0.658   2.924  0.1876  0.9984 -1.4854
10407TIP3   OH252711   4.444   5.568   0.954  0.1008  0.2229  0.4156
10407TIP3    H152712   4.480   5.498   0.899 -0.9823 -0.4932  0.6022
10407TIP3    H252713   4.504   5.642   0.940  1.0912 -0.6352 -0.0150
10408TIP3   OH252714   1.411   2.865   5.404 -0.8052 -0.1634  0.3842
10408TIP3    H152715   1.480   2.799   5.412 -1.1888 -0.4220  1.8385
10408TIP3    H252716   1.438   2.935   5.464 -2.0070 -0.4691  1.3173
10409TIP3   OH252717   3.690   3.401   5.301 -0.1595  0.6836 -0.4679
10409TIP3    H152718   3.754   3.450   5.249  1.9159 -0.8699  0.4678
10409TIP3    H252719   3.687   3.448   5.384  1.1151 -0.1455  0.0880
10410TIP3   OH252720   2.600   6.684   3.113 -0.4777 -0.2007  0.4844
10410TIP3    H152721   2.509   6.670   3.085  0.0080  0.0800 -1.3869
10410TIP3    H252722   2.613   6.622   3.184 -2.1688 -0.1734  0.8599
10411TIP3   OH252723   0.378   5.788  11.578  0.2332 -0.2471 -0.0123
10411TIP3    H152724   0.469   5.759  11.582  0.5216  0.2683 -1.8769
10411TIP3    H252725   0.345   5.754  11.494 -1.6258 -1.2800  1.0555
10412TIP3   OH252726   1.133   6.398   2.299 -0.4825  0.5363 -0.7694
10412TIP3    H152727   1.135   6.313   2.255 -0.0140 -0.4440  1.0463
10412TIP3    H252728   1.078   6.453   2.243 -0.1631 -0.7179 -2.3853
10413TIP3   OH252729   2.409   6.452  12.195  0.6143 -0.3393  0.0398
10413TIP3    H152730   2.367   6.417  12.116  1.3917 -0.8668 -0.1524
10413TIP3    H252731   2.494   6.483  12.164  0.9401 -0.5908  0.6848
10414TIP3   OH252732   2.735   1.118   3.958 -0.1168 -0.1348  0.1511
10414TIP3    H152733   2.689   1.038   3.935  1.0089 -0.4932 -0.9763
10414TIP3    H252734   2.825   1.090   3.974 -0.0549  0.6811  1.3899
10415TIP3   OH252735   1.070   5.248   2.334 -0.4501 -0.3985  0.2156
10415TIP3    H152736   1.023   5.173   2.296  0.2309 -0.0292 -1.4469
10415TIP3    H252737   1.161   5.221   2.336 -0.2262  0.2968 -0.1955
10416TIP3   OH252738   2.341   3.156  15.436  0.2308 -0.0588 -0.1981
10416TIP3    H152739   2.375   3.242  15.458 -0.6595  0.1260  0.5273
10416TIP3    H252740   2.414   3.096  15.452  0.3033  0.3511  1.1100
10417TIP3   OH252741   0.466   6.644  12.069  0.4735  0.2242  0.5219
10417TIP3    H152742   0.395   6.644  12.005  0.2692 -3.1679  0.6013
10417TIP3    H252743   0.422   6.650  12.154  0.5953  1.9519  0.5089
10418TIP3   OH252744   1.738   0.139  16.639  0.0918 -0.2360  0.1715
10418TIP3    H152745   1.732   0.225  16.682  0.3895  0.8447 -1.8515
10418TIP3    H252746   1.826   0.136  16.604  0.4471 -1.8592  1.0991
10419TIP3   OH252747   0.460   6.119  11.810 -0.2755 -0.7267  0.6499
10419TIP3    H152748   0.501   6.105  11.895  0.1561  2.4104  1.0576
10419TIP3    H252749   0.378   6.164  11.829 -0.7279 -1.0110 -0.5308
10420TIP3   OH252750   4.642   3.822   1.486 -0.2456  0.0367 -0.2813
10420TIP3    H152751   4.639   3.832   1.391 -1.4256  1.5156 -0.1297
10420TIP3    H252752   4.647   3.912   1.519 -1.3245 -0.3692  1.0791
10421TIP3   OH252753   1.018   0.694  15.711  0.5216  0.1446  0.0926
10421TIP3    H152754   1.002   0.686  15.617 -0.4263 -0.2054  0.2739
10421TIP3    H252755   1.061   0.779  15.721 -0.2187  0.6012 -0.5576
10422TIP3   OH252756   2.253   1.727   6.888  0.5924 -0.3180  0.5433
10422TIP3    H152757   2.315   1.792   6.920  0.0705  0.6768 -0.3974
10422TIP3    H252758   2.298   1.683   6.816  0.5987 -0.3450  0.5639
10423TIP3   OH252759   2.844   5.555   0.463  0.0595  0.3858  0.3098
10423TIP3    H152760   2.774   5.609   0.426 -0.8981 -0.0096  1.4725
10423TIP3    H252761   2.922   5.610   0.459 -0.4160  1.0300 -0.5328
10424TIP3   OH252762   2.428   0.661  17.014 -0.1274  0.3165  0.0218
10424TIP3    H152763   2.358   0.640  17.077 -0.7341 -0.3189 -0.8447
10424TIP3    H252764   2.397   0.741  16.971 -0.5892 -0.2526 -0.7286
10425TIP3   OH252765   4.436   1.921  15.373 -0.5847  0.0641  0.0298
10425TIP3    H152766   4.485   1.977  15.433 -0.0607 -2.0437  1.7078
10425TIP3    H252767   4.382   1.981  15.323  0.2628  2.0913  1.4044
10426TIP3   OH252768   2.008   1.828  16.825  0.0411  0.1978 -0.0519
10426TIP3    H152769   2.095   1.866  16.826  0.5459 -0.9264  1.0280
10426TIP3    H252770   1.969   1.855  16.908 -1.4553  2.3823 -1.3482
10427TIP3   OH252771   1.452   6.029   5.070  0.3591  0.2608  0.7030
10427TIP3    H152772   1.399   6.106   5.049 -0.0475  0.4184  2.2051
10427TIP3    H252773   1.542   6.057   5.053  0.2135  1.0852  1.2256
10428TIP3   OH252774   1.553   4.682  15.910  0.4931 -0.2510 -0.2309
10428TIP3    H152775   1.641   4.708  15.882  1.0693 -0.1920  1.5568
10428TIP3    H252776   1.531   4.741  15.981 -2.0100  1.3037 -2.1024
10429TIP3   OH252777   6.738   6.527   0.415 -0.0887 -0.5505 -0.2489
10429TIP3    H152778   6.780   6.559   0.336 -1.4849 -0.5953 -1.0372
10429TIP3    H252779   6.780   6.575   0.486  0.1983  0.5318 -1.1295
10430TIP3   OH252780   5.713   6.425   2.488  0.5498 -0.9198 -0.2505
10430TIP3    H152781   5.729   6.331   2.497  0.4072 -0.9218 -0.0236
10430TIP3    H252782   5.715   6.440   2.393 -3.3681 -1.8635 -0.6483
10431TIP3   OH252783   5.570   0.994   1.159 -0.3307  0.6912  0.3306
10431TIP3    H152784   5.591   0.908   1.197 -2.6159  0.4800  1.2345
10431TIP3    H252785   5.655   1.037   1.149  1.0377 -2.0869 -1.2604
10432TIP3   OH252786   1.202   5.011   4.078  0.2892 -0.5951  0.5654
10432TIP3    H152787   1.250   5.004   4.160  0.5015  0.7124  0.5811
10432TIP3    H252788   1.269   5.032   4.013 -0.3638  3.2033  0.8991
10433TIP3   OH252789   0.990   2.584   0.923  0.2324 -0.4609  0.8899
10433TIP3    H152790   0.921   2.620   0.867  1.8156  0.9570 -0.2475
10433TIP3    H252791   0.960   2.496   0.945 -1.8201  0.0304  0.2717
10434TIP3   OH252792   2.870   3.013  16.837 -0.6211  0.2751 -0.2779
10434TIP3    H152793   2.844   3.012  16.929 -1.6724 -0.7738 -0.5522
10434TIP3    H252794   2.808   2.954  16.794  0.6101 -0.2421 -1.4463
10435TIP3   OH252795   6.301   4.102  12.538 -0.3313 -0.0269  0.0455
10435TIP3    H152796   6.341   4.164  12.477  0.6668  0.1405  0.8564
10435TIP3    H252797   6.214   4.139  12.555 -0.1286  0.6170 -0.2704
10436TIP3   OH252798   1.220   3.953   4.346 -0.0248 -0.1529  0.1527
10436TIP3    H152799   1.298   3.992   4.386  1.3485 -0.4320 -2.1192
10436TIP3    H252800   1.194   4.015   4.278 -0.3038 -1.2210 -0.7377
10437TIP3   OH252801   6.347   4.779   5.808  0.0526 -0.1129  0.1140
10437TIP3    H152802   6.417   4.843   5.793  0.2079  0.6358  3.2794
10437TIP3    H252803   6.281   4.799   5.741  0.9209  2.1164 -0.1636
10438TIP3   OH252804   6.802   3.763   0.356  0.6443  0.7236 -0.5494
10438TIP3    H152805   6.863   3.808   0.297  1.6354 -0.0669 -0.1558
10438TIP3    H252806   6.763   3.694   0.301 -0.5084  1.7108 -1.0162
10439TIP3   OH252807   2.105   2.276   0.135 -0.6662  0.3247  0.0686
10439TIP3    H152808   2.100   2.200   0.194  0.8843  0.0749 -0.0993
10439TIP3    H252809   2.128   2.240   0.050  0.5746  1.0162  0.0906
10440TIP3   OH252810   0.304   5.960  15.410  0.3715 -0.2507  0.8116
10440TIP3    H152811   0.392   5.986  15.438 -0.1862  2.1301  0.5447
10440TIP3    H252812   0.245   6.016  15.461 -0.9709 -1.1331  0.2814
10441TIP3   OH252813   4.327   5.860   3.615 -0.3832 -0.0797  0.3901
10441TIP3    H152814   4.369   5.824   3.694  0.4089 -0.3154 -0.1202
10441TIP3    H252815   4.295   5.946   3.641  1.8813  0.8308  0.4010
10442TIP3   OH252816   5.608   3.179  15.813  0.7724 -0.1311 -0.3746
10442TIP3    H152817   5.604   3.163  15.908  0.3939 -0.9391 -0.5175
10442TIP3    H252818   5.563   3.263  15.801  0.6084 -0.1402  0.1322
10443TIP3   OH252819   2.873   1.521   4.447 -0.0615  0.4563  0.0598
10443TIP3    H152820   2.902   1.608   4.421 -1.6362  1.1412  0.5113
10443TIP3    H252821   2.900   1.464   4.375  0.9364  1.3115 -0.2672
10444TIP3   OH252822   6.082   5.322  12.033  0.1832  0.5485  0.1023
10444TIP3    H152823   6.141   5.374  11.978  0.8977 -1.0952 -0.7391
10444TIP3    H252824   6.034   5.267  11.971  0.0112 -0.3536  1.0136
10445TIP3   OH252825   0.010   5.401   1.178 -0.1013  0.6593 -0.0997
10445TIP3    H152826   0.027   5.446   1.095  1.6181  0.2293 -0.0167
10445TIP3    H252827   0.036   5.310   1.162  0.8410  0.7033  1.0714
10446TIP3   OH252828   5.866   4.448   1.689 -0.1257  0.5237  0.0238
10446TIP3    H152829   5.928   4.463   1.761  1.0820 -1.1710 -0.6040
10446TIP3    H252830   5.896   4.506   1.620  1.8874 -1.4074 -0.8668
10447TIP3   OH252831   5.607   2.648   3.045 -0.2057 -0.7235  0.3222
10447TIP3    H152832   5.660   2.604   2.979  0.3018  0.2697  0.0403
10447TIP3    H252833   5.524   2.600   3.046 -0.3189 -0.6083 -1.2169
10448TIP3   OH252834   5.264   0.544  11.609  0.0726 -0.1053 -0.5821
10448TIP3    H152835   5.260   0.458  11.566  2.5972 -1.3379  1.3186
10448TIP3    H252836   5.210   0.534  11.687 -0.9420  0.6369 -1.1667
10449TIP3   OH252837   3.403   2.524  14.317  0.1935 -0.7528 -0.0261
10449TIP3    H152838   3.429   2.588  14.383  0.2349 -0.2886 -0.4832
10449TIP3    H252839   3.331   2.567  14.270  1.5542 -0.1787 -1.6729
10450TIP3   OH252840   3.288   4.309  14.086  0.1972 -0.4340  0.2896
10450TIP3    H152841   3.214   4.333  14.142 -0.0434  1.3481 -0.7222
10450TIP3    H252842   3.363   4.354  14.125  0.2067  0.0297 -0.2530
10451TIP3   OH252843   1.745   4.302  12.595 -0.8794 -0.3960 -0.0855
10451TIP3    H152844   1.782   4.386  12.622  1.1627 -0.8880 -1.1330
10451TIP3    H252845   1.754   4.246  12.672 -2.8755  0.4907  0.8368
10452TIP3   OH252846   3.432   0.168   5.410 -0.4118 -0.0167  0.3145
10452TIP3    H152847   3.403   0.163   5.319 -1.9296 -1.3685  0.8337
10452TIP3    H252848   3.410   0.257   5.438  0.3202  0.4989 -0.6902
10453TIP3   OH252849   5.235   4.522  10.848 -0.2488  0.8276  0.4898
10453TIP3    H152850   5.255   4.611  10.820  0.5610  0.5681  0.2072
10453TIP3    H252851   5.156   4.499  10.800  0.7236  0.6487 -1.1158
10454TIP3   OH252852   3.255   2.408  14.973  0.3570  0.2720 -0.2316
10454TIP3    H152853   3.239   2.502  14.969  0.8652  0.3362 -0.9119
10454TIP3    H252854   3.332   2.399  15.029  0.4680  0.2786 -0.3843
10455TIP3   OH252855   2.929   6.802  13.740  0.5558  0.2384 -0.0244
10455TIP3    H152856   3.004   6.861  13.747  2.2278 -1.9957  2.5585
10455TIP3    H252857   2.966   6.722  13.703 -0.8553 -0.4918  0.1145
10456TIP3   OH252858   4.413   3.375  14.771  0.5275 -0.5071  0.2720
10456TIP3    H152859   4.432   3.352  14.679  2.4695  1.7963  0.0059
10456TIP3    H252860   4.424   3.470  14.775 -2.8452 -0.0475  2.2127
10457TIP3   OH252861   1.363   5.655   5.406 -0.2845  0.5342 -0.3420
10457TIP3    H152862   1.379   5.587   5.340  2.8927 -1.9610  2.5607
10457TIP3    H252863   1.430   5.721   5.389  0.3301  0.0451  0.1029
10458TIP3   OH252864   4.404   3.800   1.796 -0.5026  0.1882 -0.1457
10458TIP3    H152865   4.403   3.763   1.707 -0.3776 -1.0778  0.3518
10458TIP3    H252866   4.497   3.818   1.813 -0.4695 -0.0214 -0.0991
10459TIP3   OH252867   6.623   5.929   0.906  0.4051  0.1051 -0.0282
10459TIP3    H152868   6.719   5.922   0.902  0.3976 -1.3704  1.5267
10459TIP3    H252869   6.607   6.018   0.938  1.3392 -0.2922  1.6335
10460TIP3   OH252870   6.558   3.923   4.169  0.0988 -0.5230  0.2374
10460TIP3    H152871   6.642   3.919   4.124  0.0442 -0.0210  0.0831
10460TIP3    H252872   6.562   4.004   4.220  0.0653 -0.9609  0.9565
10461TIP3   OH252873   4.774   4.213   5.285  0.2756 -0.2687  0.1855
10461TIP3    H152874   4.812   4.134   5.245 -1.0601 -0.0531 -1.5999
10461TIP3    H252875   4.802   4.285   5.228 -1.4330  0.0845 -0.2671
10462TIP3   OH252876   1.454   4.618  13.485 -0.6367  0.9412  0.1833
10462TIP3    H152877   1.515   4.677  13.531  0.8059  1.0095 -1.6905
10462TIP3    H252878   1.477   4.627  13.393 -2.1629 -0.6004 -0.4007
10463TIP3   OH252879   0.128   4.140   5.704  0.3680  0.6169 -0.4913
10463TIP3    H152880   0.104   4.099   5.787 -0.6505  1.2287 -0.4643
10463TIP3    H252881   0.186   4.213   5.728  0.0841  0.7850 -0.3123
10464TIP3   OH252882   5.995   3.982  16.263  0.4511 -0.0565 -0.0468
10464TIP3    H152883   6.058   3.913  16.244  0.3599  0.0176 -0.6427
10464TIP3    H252884   5.911   3.938  16.269  0.4723 -0.0727  0.1662
10465TIP3   OH252885   6.183   1.545  11.316 -0.0583 -0.0625  0.4183
10465TIP3    H152886   6.113   1.576  11.374  1.3214  1.2243  1.4473
10465TIP3    H252887   6.261   1.542  11.372  1.2688  0.9687 -1.2904
10466TIP3   OH252888   2.763   3.992  17.002  0.3564  0.1515 -0.8407
10466TIP3    H152889   2.830   4.044  16.957  0.2518  0.0788 -1.0788
10466TIP3    H252890   2.768   3.906  16.962 -0.4260  0.3645 -1.4196
10467TIP3   OH252891   4.393   2.512   3.902 -0.1242  0.3881  0.0374
10467TIP3    H152892   4.412   2.418   3.902 -1.9346 -0.0235  1.0828
10467TIP3    H252893   4.335   2.525   3.827 -0.6864  0.4633  0.4751
10468TIP3   OH252894   1.177   6.332   5.888  0.1093  0.0272 -0.2196
10468TIP3    H152895   1.263   6.328   5.928  0.0857 -0.6007 -0.2099
10468TIP3    H252896   1.146   6.241   5.889 -0.0637  0.0566 -1.2714
10469TIP3   OH252897   1.230   2.790   4.443  0.2195  0.0779  0.8073
10469TIP3    H152898   1.294   2.819   4.378  1.2693  0.2552  1.8876
10469TIP3    H252899   1.198   2.870   4.483 -1.1063  0.0240 -0.0815
10470TIP3   OH252900   5.246   2.256  15.139  0.0573 -0.2355 -0.2027
10470TIP3    H152901   5.190   2.330  15.114  1.8815  1.8786  1.4764
10470TIP3    H252902   5.206   2.221  15.218 -0.0827 -0.1529 -0.2370
10471TIP3   OH252903   6.046   5.837  14.165 -0.3462  0.6294 -0.1005
10471TIP3    H152904   6.101   5.821  14.242  1.1771  0.3082 -1.2154
10471TIP3    H252905   6.009   5.924  14.180  0.2188  0.7304  0.8223
10472TIP3   OH252906   6.423   6.536   5.764 -0.2950  0.1443 -0.3297
10472TIP3    H152907   6.469   6.617   5.740  1.5991 -0.1341  2.0225
10472TIP3    H252908   6.444   6.475   5.693  0.2367  1.0038 -0.9349
10473TIP3   OH252909   1.232   4.554  11.569  0.2805  0.8428 -0.4081
10473TIP3    H152910   1.197   4.516  11.488 -1.1451 -0.9757  0.9703
10473TIP3    H252911   1.182   4.634  11.582  0.3839  1.0479 -1.1861
10474TIP3   OH252912   6.260   4.881  13.862 -0.1114  0.2924  0.4615
10474TIP3    H152913   6.307   4.885  13.779 -0.3252 -0.4678  0.2931
10474TIP3    H252914   6.169   4.898  13.839  0.0105  1.3321  0.7242
10475TIP3   OH252915   6.570   1.065  16.081  0.1098  0.4508  0.2647
10475TIP3    H152916   6.559   1.158  16.060  0.4146  1.2939  3.4178
10475TIP3    H252917   6.504   1.048  16.148  0.9422 -1.2538  0.6883
10476TIP3   OH252918   4.426   6.514   4.747 -0.2591  0.3704  0.0548
10476TIP3    H152919   4.447   6.595   4.701 -0.4017  0.5974  0.3829
10476TIP3    H252920   4.500   6.455   4.728 -0.1601  0.5742 -0.1915
10477TIP3   OH252921   2.336   5.967   0.308 -0.0189  0.1436  0.0313
10477TIP3    H152922   2.262   5.906   0.309  0.4053 -0.4043 -0.7513
10477TIP3    H252923   2.328   6.016   0.390 -0.4716 -0.8402  0.5956
10478TIP3   OH252924   2.818   2.663  14.923  0.3053 -0.2265  0.2417
10478TIP3    H152925   2.765   2.591  14.889 -0.1276 -0.5262  1.4861
10478TIP3    H252926   2.780   2.741  14.884  0.7711 -0.6572 -1.1171
10479TIP3   OH252927   5.335   2.918  11.831  0.1139  0.4569 -0.2707
10479TIP3    H152928   5.373   2.858  11.767 -2.7326 -2.0052  0.1244
10479TIP3    H252929   5.333   3.003  11.787  1.9615 -0.2353 -1.8278
10480TIP3   OH252930   1.797   1.620   4.073  0.2428 -0.1832 -0.2765
10480TIP3    H152931   1.810   1.527   4.055 -1.7726 -0.8796  1.4565
10480TIP3    H252932   1.831   1.633   4.161  1.4348  1.0082 -0.8636
10481TIP3   OH252933   6.391   5.101   0.335  0.1529 -0.1311 -0.3913
10481TIP3    H152934   6.484   5.111   0.358  0.0728  0.5710 -0.3377
10481TIP3    H252935   6.345   5.156   0.399 -0.2348  0.1874 -0.9353
10482TIP3   OH252936   6.800   5.824   4.381  0.2924 -0.3424 -0.2026
10482TIP3    H152937   6.883   5.785   4.408  0.1036 -0.1404  0.7070
10482TIP3    H252938   6.818   5.918   4.377 -0.5612  0.0446  2.7592
10483TIP3   OH252939   1.833   1.394  14.421  0.6257  0.7800 -0.6570
10483TIP3    H152940   1.910   1.340  14.408  1.3930  1.6724 -0.0278
10483TIP3    H252941   1.850   1.441  14.503  0.1110  2.1367 -1.2822
10484TIP3   OH252942   3.768   5.888  13.160  0.6226  0.4743  0.8724
10484TIP3    H152943   3.687   5.877  13.112  0.3005 -1.0018  1.6967
10484TIP3    H252944   3.797   5.977  13.139  0.7977 -0.2681 -2.4310
10485TIP3   OH252945   1.043   4.996   2.164  0.2715  0.0679 -0.0416
10485TIP3    H152946   1.097   4.923   2.195 -0.0659 -1.2475 -2.3582
10485TIP3    H252947   1.106   5.061   2.131  0.5130 -0.0736  0.1422
10486TIP3   OH252948   1.711   0.491  11.852 -0.3312  0.2555  0.4989
10486TIP3    H152949   1.763   0.572  11.852  0.2935 -0.1302  0.9149
10486TIP3    H252950   1.699   0.470  11.760 -0.3466  0.7320  0.3908
10487TIP3   OH252951   5.826   2.605   4.030  0.3863  0.0996 -0.3486
10487TIP3    H152952   5.831   2.694   3.994 -1.8945 -0.6134 -2.7883
10487TIP3    H252953   5.909   2.564   4.006  1.2664  1.3740  0.3842
10488TIP3   OH252954   0.945   3.119  11.361  0.4213  0.7208  0.2918
10488TIP3    H152955   0.971   3.194  11.308  3.3060 -0.2644  0.1689
10488TIP3    H252956   1.025   3.090  11.404 -0.5291 -2.4177  0.2050
10489TIP3   OH252957   1.140   2.141  10.518 -0.8605 -0.0515  0.4122
10489TIP3    H152958   1.113   2.050  10.525  1.3396 -0.8997 -1.0111
10489TIP3    H252959   1.091   2.176  10.444 -0.9374 -0.3931  0.3026
10490TIP3   OH252960   3.855   5.301  16.201  0.1222 -0.4968 -0.4029
10490TIP3    H152961   3.815   5.329  16.284  1.9800  1.7660 -0.1246
10490TIP3    H252962   3.904   5.222  16.224  0.4712  0.0026  0.6816
10491TIP3   OH252963   4.587   4.145  14.023  0.0686 -0.1173  0.5133
10491TIP3    H152964   4.601   4.200  13.946 -1.9652 -0.7198 -0.3542
10491TIP3    H252965   4.510   4.092  14.002  1.0059 -2.2230  1.9058
10492TIP3   OH252966   5.149   1.032   2.415  0.4261 -0.1457 -0.0556
10492TIP3    H152967   5.130   0.986   2.333  2.2337 -1.6632  0.3220
10492TIP3    H252968   5.190   0.966   2.471 -2.2975  0.3134  2.7892
10493TIP3   OH252969   5.914   3.868  13.598  0.0731  0.4359  0.1830
10493TIP3    H152970   5.886   3.777  13.585 -0.3979  0.4534  1.0067
10493TIP3    H252971   5.965   3.889  13.519  0.6328 -0.7090  0.2166
10494TIP3   OH252972   3.721   1.193  16.539 -0.1088  0.2233  0.1216
10494TIP3    H152973   3.709   1.164  16.449 -2.9099  1.6369 -0.0896
10494TIP3    H252974   3.742   1.286  16.532  2.1369 -0.1589  0.9343
10495TIP3   OH252975   2.707   0.512   1.967 -0.1114 -0.3719  0.7797
10495TIP3    H152976   2.628   0.462   1.989  1.0413 -2.6575  0.0732
10495TIP3    H252977   2.767   0.494   2.039  0.8143 -1.2413 -0.1713
10496TIP3   OH252978   3.749   4.568  15.875 -0.3245 -0.4713  0.1873
10496TIP3    H152979   3.658   4.538  15.873 -0.0707 -1.2470 -0.0730
10496TIP3    H252980   3.771   4.572  15.968 -0.0281 -2.1844  0.2180
10497TIP3   OH252981   3.652   4.822  13.795 -0.4831  0.6093  0.4389
10497TIP3    H152982   3.687   4.744  13.837 -1.9956  0.2857  1.1675
10497TIP3    H252983   3.583   4.789  13.737  1.2519  1.0850 -2.0385
10498TIP3   OH252984   5.844   4.264  15.988 -0.1287  0.3683 -0.0375
10498TIP3    H152985   5.930   4.226  16.005 -0.2788 -0.4403 -1.0182
10498TIP3    H252986   5.857   4.358  15.998  0.6197  0.1857  0.8506
10499TIP3   OH252987   4.449   2.069  11.574 -0.3155 -0.4346  0.3736
10499TIP3    H152988   4.360   2.050  11.605 -0.4056 -2.0111 -0.7707
10499TIP3    H252989   4.438   2.098  11.484  0.4481 -2.5708 -0.4567
10500TIP3   OH252990   2.647   4.407   5.855 -0.1297  0.4075  0.1744
10500TIP3    H152991   2.707   4.367   5.916 -0.5807 -0.8803 -0.1918
10500TIP3    H252992   2.703   4.449   5.789  0.3446  0.9934  0.9335
10501TIP3   OH252993   3.357   0.021  14.794 -0.0242  0.4977 -0.2374
10501TIP3    H152994   3.386  -0.005  14.882  0.9468  1.6589 -0.1915
10501TIP3    H252995   3.367  -0.058  14.742  0.3672  0.0646  0.4746
10502TIP3   OH252996   3.883   2.193   4.443 -0.6399  0.4357  0.5276
10502TIP3    H152997   3.811   2.170   4.384 -1.6595  1.3688  1.3557
10502TIP3    H252998   3.954   2.219   4.384 -1.0707 -0.1942 -0.3066
10503TIP3   OH252999   5.789   4.468   0.709  0.1199  0.4981 -0.3137
10503TIP3    H153000   5.732   4.401   0.672 -1.3521  1.3236  0.3675
10503TIP3    H253001   5.809   4.436   0.797 -1.2723  1.2932  0.3270
10504TIP3   OH253002   3.574   2.953   2.796  0.2861 -0.5553  0.2521
10504TIP3    H153003   3.628   3.005   2.736  0.4196 -0.8613  0.1029
10504TIP3    H253004   3.488   2.950   2.754  0.3019 -0.5310  0.2181
10505TIP3   OH253005   0.647   3.145  16.919  0.3239  0.0272 -0.1397
10505TIP3    H153006   0.670   3.188  17.001 -1.1083  1.2258 -0.3166
10505TIP3    H253007   0.619   3.216  16.862 -1.1421 -1.0205 -0.7970
10506TIP3   OH253008   2.264   3.135   3.600  0.7895 -0.1755 -0.4159
10506TIP3    H153009   2.311   3.170   3.525  0.5515  0.2093 -0.3858
10506TIP3    H253010   2.327   3.136   3.672  0.5476  0.9914 -0.1956
10507TIP3   OH253011   3.903   0.865   2.098  0.2682 -0.3079  0.4999
10507TIP3    H153012   3.918   0.855   2.004  1.6146 -0.6529  0.7357
10507TIP3    H253013   3.916   0.777   2.134  1.5967  0.1590  1.2319
10508TIP3   OH253014   0.139   2.850  17.173 -0.0988  1.0705 -0.4339
10508TIP3    H153015   0.079   2.831  17.245 -0.0814  2.4386 -0.0290
10508TIP3    H253016   0.188   2.768  17.159 -1.4425  0.2071 -0.1974
10509TIP3   OH253017   4.173   1.572  12.046 -0.9472 -0.2664  0.4455
10509TIP3    H153018   4.123   1.555  11.966  0.3184 -0.7413 -0.2804
10509TIP3    H253019   4.263   1.549  12.023 -0.8548 -2.4663  2.6759
10510TIP3   OH253020   2.595   5.638  14.675 -0.3590 -0.1969  0.3134
10510TIP3    H153021   2.535   5.691  14.727  0.5051 -0.0779  1.2119
10510TIP3    H253022   2.560   5.549  14.681  0.2717 -0.3634  1.9483
10511TIP3   OH253023   3.497   2.085   3.972 -0.0852 -0.6146 -0.2814
10511TIP3    H153024   3.576   2.037   3.947 -0.2798 -1.6975  1.0613
10511TIP3    H253025   3.502   2.167   3.922  3.1041  0.3949  1.4159
10512TIP3   OH253026   1.736   1.318  11.225 -0.2420  0.0224  0.2228
10512TIP3    H153027   1.666   1.268  11.267 -0.4191  1.6151  1.9104
10512TIP3    H253028   1.815   1.293  11.274 -0.1173  0.4169  0.2227
10513TIP3   OH253029   3.469   4.854   2.890  0.1485 -0.1982  0.0016
10513TIP3    H153030   3.423   4.773   2.908  1.5867 -1.2351 -0.7990
10513TIP3    H253031   3.552   4.847   2.937  0.3818  0.7131 -0.2375
10514TIP3   OH253032   6.122   5.605   2.598 -0.1528  0.7459 -0.0348
10514TIP3    H153033   6.184   5.539   2.566 -1.3675 -1.2486  1.5369
10514TIP3    H253034   6.039   5.582   2.558 -0.7573  0.8588  1.1268
10515TIP3   OH253035   6.490   6.369   3.085  0.1837  0.3547  0.9880
10515TIP3    H153036   6.540   6.298   3.125 -2.3603 -1.3534  1.4574
10515TIP3    H253037   6.436   6.324   3.019 -3.3227  1.3060  2.9611
10516TIP3   OH253038   5.911   3.751  15.881 -0.3149 -0.1049 -0.2371
10516TIP3    H153039   5.965   3.755  15.802 -0.0701 -1.3713 -0.1491
10516TIP3    H253040   5.846   3.684  15.862  0.1709 -0.9153  0.8862
10517TIP3   OH253041   0.580   5.332   5.459 -0.5279  0.2478 -0.3841
10517TIP3    H153042   0.666   5.320   5.419  0.1645  3.0403 -0.0012
10517TIP3    H253043   0.534   5.392   5.400 -1.6172  0.0068  0.1942
10518TIP3   OH253044   1.507   3.554   2.332 -0.0543  0.1186  0.0996
10518TIP3    H153045   1.416   3.582   2.326  0.1731  0.6095 -1.4568
10518TIP3    H253046   1.510   3.497   2.408 -2.0242 -1.2796 -0.8084
10519TIP3   OH253047   4.529   3.444  16.054 -0.2601 -0.5761 -0.7317
10519TIP3    H153048   4.454   3.496  16.024 -1.7261 -0.2426  2.9572
10519TIP3    H253049   4.501   3.353  16.044 -0.7408 -0.4714 -0.3883
10520TIP3   OH253050   4.680   6.374  13.909 -0.2396  0.6876  0.2403
10520TIP3    H153051   4.661   6.281  13.896 -1.7831  0.9774  0.2817
10520TIP3    H253052   4.674   6.412  13.821  2.5586  0.4506 -0.1758
10521TIP3   OH253053   3.181   3.245  15.914 -0.4175 -0.3147  0.2566
10521TIP3    H153054   3.138   3.294  15.983 -0.1350 -0.5118  0.5768
10521TIP3    H253055   3.253   3.301  15.885  0.6093 -0.9862  1.3997
10522TIP3   OH253056   0.139   4.097  15.748 -0.3536 -0.7128  0.2601
10522TIP3    H153057   0.054   4.120  15.709 -0.0603  0.0840  0.0613
10522TIP3    H253058   0.130   4.006  15.774 -1.0514 -0.8289 -0.3602
10523TIP3   OH253059   6.607   4.223  12.185 -0.1664  0.4898 -0.1037
10523TIP3    H153060   6.556   4.141  12.187  0.3786  0.1576  1.0609
10523TIP3    H253061   6.644   4.225  12.097 -0.5820 -0.2758 -0.3135
10524TIP3   OH253062   4.700   3.055   2.456  0.3325  0.5846  0.0389
10524TIP3    H153063   4.693   2.993   2.529  0.9498 -0.3427 -0.6707
10524TIP3    H253064   4.628   3.031   2.398  0.2031  0.9359  0.0535
10525TIP3   OH253065   2.175   3.361  13.948  0.3395  0.2381  0.4440
10525TIP3    H153066   2.189   3.286  14.006  1.3177 -0.0096 -0.0889
10525TIP3    H253067   2.248   3.358  13.886 -0.4233  0.7625 -0.5250
10526TIP3   OH253068   1.804   4.040   6.190 -0.0470  0.0087 -0.0174
10526TIP3    H153069   1.754   4.064   6.112 -0.0111  2.2219  0.5845
10526TIP3    H253070   1.895   4.055   6.165 -0.0571  1.0282  0.5414
10527TIP3   OH253071   2.363   6.451   0.756 -0.4416  0.3547  0.5235
10527TIP3    H153072   2.449   6.409   0.755 -0.7242 -0.3130  1.8617
10527TIP3    H253073   2.322   6.425   0.673  0.3407  0.0405  0.2249
10528TIP3   OH253074   3.198   3.336   4.948 -0.6096 -0.2187  0.0081
10528TIP3    H153075   3.241   3.324   5.032  0.6718  0.9407 -0.4576
10528TIP3    H253076   3.247   3.281   4.887 -0.1164  0.6761 -0.4164
10529TIP3   OH253077   6.449   4.323   2.996 -0.1786  0.0255  0.0843
10529TIP3    H153078   6.521   4.375   3.031 -0.3495  0.7345 -0.5738
10529TIP3    H253079   6.384   4.321   3.066 -1.1128  2.5931 -0.5691
10530TIP3   OH253080   1.853   6.348  17.119  0.4509  0.7489  0.8420
10530TIP3    H153081   1.936   6.366  17.073 -0.6791 -1.5546 -2.5033
10530TIP3    H253082   1.791   6.327  17.049 -2.2257 -0.4273  3.3552
10531TIP3   OH253083   0.251   3.612   5.496  0.8762 -0.8065  0.2785
10531TIP3    H153084   0.267   3.669   5.420 -0.0433 -1.6197 -0.5627
10531TIP3    H253085   0.307   3.647   5.565 -1.3743  2.5834  0.5805
10532TIP3   OH253086   3.118   2.215   3.583 -0.1719  0.3486 -0.1172
10532TIP3    H153087   3.051   2.154   3.551  2.2650 -1.6096 -1.9508
10532TIP3    H253088   3.158   2.170   3.657 -2.4044  2.6718  2.7790
10533TIP3   OH253089   2.585   5.181   1.081  0.6606 -0.0470  0.1750
10533TIP3    H153090   2.570   5.141   0.995  1.1427 -0.3548  0.2288
10533TIP3    H253091   2.552   5.117   1.144 -0.1221  0.3784  0.2142
10534TIP3   OH253092   3.307   3.400  15.136 -0.7558  0.0933  0.0532
10534TIP3    H153093   3.370   3.471  15.148  0.0573 -0.1080 -2.5707
10534TIP3    H253094   3.222   3.444  15.136 -0.3409  0.9187 -0.4149
10535TIP3   OH253095   0.085   5.894   3.055 -0.3514  0.1808 -0.0321
10535TIP3    H153096   0.047   5.852   2.978  1.0299  1.3416 -1.4274
10535TIP3    H253097   0.019   5.883   3.124 -0.8506 -2.4971 -0.8241
10536TIP3   OH253098   3.883   5.850   2.403 -0.0806 -0.0394  0.5154
10536TIP3    H153099   3.922   5.927   2.361 -1.3143  0.0519 -0.5145
10536TIP3    H253100   3.896   5.865   2.496  1.2945  0.5351  0.2613
10537TIP3   OH253101   1.659   4.784   0.776 -0.2192  0.5415 -0.1365
10537TIP3    H153102   1.648   4.712   0.714 -2.6914 -0.4674  1.3642
10537TIP3    H253103   1.690   4.857   0.722  0.2567 -1.0184 -2.0696
10538TIP3   OH253104   2.139   4.808  13.410 -0.3776 -0.3140  0.0131
10538TIP3    H153105   2.087   4.728  13.405 -0.1344 -0.3949 -2.0131
10538TIP3    H253106   2.228   4.778  13.428 -0.0829 -0.6517 -1.7674
10539TIP3   OH253107   3.444   4.884  17.205  0.1225  0.2533 -0.2294
10539TIP3    H153108   3.493   4.827  17.145  1.1967  2.5169 -1.6392
10539TIP3    H253109   3.512   4.928  17.256 -0.6355  0.8768  0.2517
10540TIP3   OH253110   5.828   2.106   2.976  0.2521  0.0390  0.2117
10540TIP3    H153111   5.747   2.129   2.931  1.1340 -0.4969 -1.7528
10540TIP3    H253112   5.800   2.072   3.061 -1.8266 -2.6580 -1.4016
10541TIP3   OH253113   6.612   4.439   4.359 -0.3405 -0.2513 -0.1484
10541TIP3    H153114   6.634   4.531   4.346 -1.0888 -0.3035 -2.0909
10541TIP3    H253115   6.539   4.440   4.421 -1.1848  0.5858 -1.1237
10542TIP3   OH253116   1.290   6.255   5.020  0.4840  0.5463  0.6346
10542TIP3    H153117   1.211   6.275   5.071  0.3549 -0.2195  0.7472
10542TIP3    H253118   1.339   6.338   5.018  0.5382  0.5829  2.0871
10543TIP3   OH253119   1.072   5.862  10.940 -0.2839 -0.2099 -0.6191
10543TIP3    H153120   1.123   5.793  10.982  0.3961  1.0990  0.7969
10543TIP3    H253121   1.061   5.832  10.849  2.5656 -0.7961 -0.8528
10544TIP3   OH253122   0.977   1.058   4.150  0.1352 -0.3564 -0.5546
10544TIP3    H153123   0.959   1.066   4.244  5.0582 -0.4552  0.6984
10544TIP3    H253124   0.940   1.137   4.112 -3.0677 -0.8564  1.1000
10545TIP3   OH253125   2.827   6.280  16.645  0.3158  0.1164  0.0044
10545TIP3    H153126   2.788   6.261  16.730  0.8219 -1.5892 -0.1050
10545TIP3    H253127   2.914   6.315  16.665 -0.6763  2.6789  0.2141
10546TIP3   OH253128   5.119   2.049   2.427 -0.1054 -0.1076  0.2407
10546TIP3    H153129   5.093   2.032   2.517 -1.1877 -2.1296 -0.3968
10546TIP3    H253130   5.046   2.097   2.389  0.7999  1.7131  0.6579
10547TIP3   OH253131   5.452   4.873  10.865 -0.0135  0.2174 -0.4242
10547TIP3    H153132   5.446   4.967  10.850 -1.0771  0.1935 -0.2030
10547TIP3    H253133   5.543   4.859  10.894 -0.2834  1.3984  1.0884
10548TIP3   OH253134   4.924   4.620  13.896 -0.4450 -0.2561  0.5860
10548TIP3    H153135   4.891   4.622  13.806  1.7718 -0.0653 -0.2826
10548TIP3    H253136   5.014   4.652  13.889  0.3662 -1.9024  2.6215
10549TIP3   OH253137   2.610   2.082   5.632 -0.1805  0.0017 -0.0068
10549TIP3    H153138   2.536   2.068   5.573 -0.2770  1.2878 -0.2281
10549TIP3    H253139   2.575   2.137   5.702  0.5028  0.4124  0.0254
10550TIP3   OH253140   0.832   4.025  12.768  0.3450 -0.5773  0.6246
10550TIP3    H153141   0.855   3.949  12.822  0.5099 -0.5891  0.5352
10550TIP3    H253142   0.759   4.066  12.816  1.0297 -0.1147  1.2885
10551TIP3   OH253143   0.816   5.828   3.712  0.5897 -0.5865 -0.7090
10551TIP3    H153144   0.767   5.911   3.703  1.8278  0.2902  0.3044
10551TIP3    H253145   0.749   5.764   3.735 -0.2205  0.4321 -0.0927
10552TIP3   OH253146   6.070   0.853   5.184 -0.0839 -0.3840 -0.2762
10552TIP3    H153147   6.069   0.936   5.137  1.5746 -0.4927 -0.5451
10552TIP3    H253148   6.019   0.793   5.130 -0.7501  0.2801 -0.3948
10553TIP3   OH253149   5.448   0.566  14.990  0.1775  0.8931 -1.1823
10553TIP3    H153150   5.404   0.530  15.068  3.9640 -3.9679 -0.7892
10553TIP3    H253151   5.503   0.637  15.024  0.7898 -0.2908  0.4306
10554TIP3   OH253152   1.496   3.514  10.668  0.5018  0.4846  0.1801
10554TIP3    H153153   1.543   3.594  10.647  1.6117 -0.3896 -0.8495
10554TIP3    H253154   1.506   3.459  10.590 -2.0074  0.1220  0.0142
10555TIP3   OH253155   0.313   0.920  14.771  0.7313  0.4904 -0.2647
10555TIP3    H153156   0.345   0.865  14.843 -1.0305 -0.8158 -0.4215
10555TIP3    H253157   0.385   0.922  14.709  0.3415 -3.1025 -1.0271
10556TIP3   OH253158   4.341   5.147   4.255 -0.6226 -0.8062  0.2257
10556TIP3    H153159   4.428   5.130   4.219 -0.8215 -0.6207 -0.3461
10556TIP3    H253160   4.288   5.171   4.179 -0.9177  0.0888  0.7044
10557TIP3   OH253161   1.556   1.469  11.399  0.3726  0.1762  0.1754
10557TIP3    H153162   1.563   1.564  11.395  2.1475  0.0962  0.4046
10557TIP3    H253163   1.641   1.438  11.368  0.2615 -1.3105  1.2843
10558TIP3   OH253164   5.570   0.598  13.968  0.1378 -0.4753 -0.3447
10558TIP3    H153165   5.582   0.511  13.929 -2.3077 -0.9953 -0.1433
10558TIP3    H253166   5.513   0.581  14.044 -0.2524  1.3029 -0.2136
10559TIP3   OH253167   5.173   0.433   4.819 -0.0481  0.1220 -0.4752
10559TIP3    H153168   5.193   0.524   4.840 -0.6091 -0.0360  0.8316
10559TIP3    H253169   5.211   0.420   4.732  0.2422  1.5287 -0.5880
10560TIP3   OH253170   4.639   3.605   5.267 -0.0105  0.0038 -0.3484
10560TIP3    H153171   4.593   3.643   5.342 -0.2503  0.0705 -0.5294
10560TIP3    H253172   4.664   3.517   5.296 -0.6631 -0.2051 -0.4168
10561TIP3   OH253173   6.822   5.196  15.734 -0.1945 -0.2985  0.1754
10561TIP3    H153174   6.735   5.230  15.754 -0.0154  0.3410 -0.0941
10561TIP3    H253175   6.837   5.127  15.799 -1.4742 -1.4218 -0.6701
10562TIP3   OH253176   6.819   2.679  13.384  0.0825 -0.1378 -0.2338
10562TIP3    H153177   6.881   2.657  13.314 -0.7412  0.6351 -1.2375
10562TIP3    H253178   6.737   2.699  13.337 -1.0741 -1.5736  1.0632
10563TIP3   OH253179   0.251   6.339  10.903  0.1364  0.7298 -0.1404
10563TIP3    H153180   0.168   6.362  10.946  0.7768  1.1432  0.9316
10563TIP3    H253181   0.239   6.249  10.874  0.2509 -0.2485  2.5439
10564TIP3   OH253182   5.065   2.048  15.443  0.2319  0.2450  0.1627
10564TIP3    H153183   4.994   2.017  15.499  1.4690 -1.5102  0.8667
10564TIP3    H253184   5.131   1.978  15.448  1.5392  1.3087 -1.3245
10565TIP3   OH253185   4.528   5.200  16.774  0.6694 -0.5705 -0.1639
10565TIP3    H153186   4.512   5.170  16.685 -0.1005 -0.1346 -0.1842
10565TIP3    H253187   4.442   5.201  16.815  0.6203  1.6044 -0.1878
10566TIP3   OH253188   4.886   0.054   6.311  0.0527 -0.6804 -0.0433
10566TIP3    H153189   4.903  -0.039   6.298  1.0392 -0.7929  1.7687
10566TIP3    H253190   4.931   0.076   6.393 -1.4344  1.0360  0.3874
10567TIP3   OH253191   3.034   4.042  11.480 -0.0905 -0.3268  0.0255
10567TIP3    H153192   3.108   4.047  11.419 -0.1548  0.4948  0.0041
10567TIP3    H253193   3.063   4.092  11.557 -0.9378  0.7302 -0.3282
10568TIP3   OH253194   4.767   2.438   2.171 -0.5036  0.2962  0.4038
10568TIP3    H153195   4.748   2.531   2.156 -0.8295  0.3877  1.3171
10568TIP3    H253196   4.685   2.402   2.204 -0.3699 -0.3175  0.0707
10569TIP3   OH253197   2.558   4.222  16.248  0.0277 -0.7208  0.2253
10569TIP3    H153198   2.561   4.314  16.224  0.1241 -0.4787  1.1375
10569TIP3    H253199   2.494   4.183  16.187  0.8552 -0.3080 -0.9484
10570TIP3   OH253200   4.264   2.612  14.407 -0.8088 -0.1022 -0.5994
10570TIP3    H153201   4.203   2.586  14.476 -1.8216  0.0769 -1.3875
10570TIP3    H253202   4.348   2.624  14.451 -1.3479 -0.3565  0.5244
10571TIP3   OH253203   3.414   4.412   5.508  0.0288 -0.7219  0.5560
10571TIP3    H153204   3.487   4.430   5.567  1.4285  0.0988 -1.3051
10571TIP3    H253205   3.403   4.317   5.512  2.2868 -1.0823 -0.2601
10572TIP3   OH253206   4.764   4.599  15.524 -0.6760  0.2773  0.8835
10572TIP3    H153207   4.842   4.562  15.567  0.6462  1.3916 -0.4601
10572TIP3    H253208   4.759   4.688  15.558  0.5425  1.2640 -1.3544
10573TIP3   OH253209   1.259   4.552  12.836  0.5450  0.4586  0.3854
10573TIP3    H153210   1.197   4.616  12.802  2.3786  1.8762 -0.4647
10573TIP3    H253211   1.278   4.581  12.925 -0.8892 -0.7014  1.1158
10574TIP3   OH253212   0.019   3.389  14.029 -0.0285  0.8700  0.4313
10574TIP3    H153213   0.014   3.465  13.972 -1.0128  0.8615  0.4992
10574TIP3    H253214   0.013   3.314  13.970 -0.0186  0.8476  0.4581
10575TIP3   OH253215   1.110   6.291  15.743  0.3939  0.3558 -0.6523
10575TIP3    H153216   1.033   6.238  15.720  0.1004 -0.1658  1.3924
10575TIP3    H253217   1.150   6.312  15.658 -0.8589 -1.0752 -1.6591
10576TIP3   OH253218   6.403   5.831   3.163 -0.0627  0.2053 -0.1150
10576TIP3    H153219   6.389   5.871   3.249  0.6424  0.1286  0.0341
10576TIP3    H253220   6.378   5.740   3.175 -0.7760  0.3771 -0.2171
10577TIP3   OH253221   6.188   0.435   4.434 -0.3318  0.2264  0.2254
10577TIP3    H153222   6.181   0.394   4.347  0.1210  1.4556 -0.4079
10577TIP3    H253223   6.101   0.422   4.473 -0.8986  0.6191 -0.8515
10578TIP3   OH253224   4.795   1.483   0.576 -0.5526  0.2602 -0.0312
10578TIP3    H153225   4.839   1.556   0.618 -0.5645 -0.9087  2.1567
10578TIP3    H253226   4.825   1.406   0.623 -1.2771 -1.0767 -1.6370
10579TIP3   OH253227   2.699   0.006  14.430 -0.5286 -0.4389 -0.7510
10579TIP3    H153228   2.615   0.047  14.408  0.1653  1.3236 -0.2750
10579TIP3    H253229   2.756   0.027  14.356  0.0523  0.1470 -0.1507
10580TIP3   OH253230   1.965   4.259   4.727 -0.1266  0.6890 -0.7158
10580TIP3    H153231   2.027   4.224   4.663 -0.1596  1.3702 -1.1190
10580TIP3    H253232   1.931   4.181   4.772  1.5723  0.3365  0.0359
10581TIP3   OH253233   1.392   4.663   5.860 -0.0443 -0.9640 -0.3027
10581TIP3    H153234   1.464   4.671   5.798  0.1423  1.1478  0.1180
10581TIP3    H253235   1.327   4.610   5.814  1.2978 -1.9703 -1.1126
10582TIP3   OH253236   0.593   0.514   3.974  0.4755  0.8728  0.2245
10582TIP3    H153237   0.557   0.474   4.053  0.5981  0.4742  0.0817
10582TIP3    H253238   0.612   0.605   3.999 -0.6737  1.1068  0.2910
10583TIP3   OH253239   0.978   4.855  14.730 -0.1983 -0.0207 -0.1280
10583TIP3    H153240   0.967   4.949  14.720  0.2169  0.0283 -0.1189
10583TIP3    H253241   1.056   4.834  14.678 -0.5425 -0.4264 -0.4926
10584TIP3   OH253242   3.428   2.378   0.466  0.0413 -0.0434  0.1758
10584TIP3    H153243   3.481   2.374   0.386 -1.9776 -0.9983 -1.2042
10584TIP3    H253244   3.482   2.338   0.533  1.3834 -0.2410 -0.9774
10585TIP3   OH253245   2.163   5.295   2.637  0.2924 -0.1757  0.2546
10585TIP3    H153246   2.111   5.369   2.606 -1.0115 -1.8593 -1.8616
10585TIP3    H253247   2.104   5.246   2.694  0.5570 -0.5411  0.2135
10586TIP3   OH253248   3.149   5.392   1.743 -0.3302  0.3917 -0.0363
10586TIP3    H153249   3.094   5.402   1.666 -0.5798 -1.7551 -0.1961
10586TIP3    H253250   3.090   5.364   1.812  0.4551 -1.7864 -0.1695
10587TIP3   OH253251   0.990   3.018  15.200 -0.2330  0.3668  0.3952
10587TIP3    H153252   0.929   2.987  15.267 -0.7884 -1.2188 -0.7795
10587TIP3    H253253   0.960   3.107  15.179 -1.0102  0.2900  1.1335
10588TIP3   OH253254   5.258   1.858  11.794 -0.0286  0.7174 -0.4434
10588TIP3    H153255   5.327   1.805  11.754 -1.0425  0.4765 -1.9520
10588TIP3    H253256   5.267   1.842  11.888  0.7409 -0.8212 -0.7508
10589TIP3   OH253257   2.486   5.684   4.280  0.1427  0.6759  0.5089
10589TIP3    H153258   2.535   5.695   4.198  1.1782  1.9814  1.2726
10589TIP3    H253259   2.416   5.622   4.257  1.2611 -0.1062 -0.9847
10590TIP3   OH253260   2.843   0.116  16.839 -0.2171  0.1305  0.2590
10590TIP3    H153261   2.780   0.181  16.806 -0.2516  0.1095  0.2835
10590TIP3    H253262   2.925   0.164  16.845 -0.0868 -0.0014 -0.3571
10591TIP3   OH253263   5.433   6.745   1.014 -0.3084 -0.2212 -0.2765
10591TIP3    H153264   5.371   6.814   0.991 -0.8900 -0.7170 -0.2368
10591TIP3    H253265   5.434   6.744   1.110 -0.3828 -0.3328 -0.2759
10592TIP3   OH253266   0.264   3.474   2.740  0.2455  0.1595 -0.3621
10592TIP3    H153267   0.191   3.430   2.784 -1.0151 -1.1332 -3.3969
10592TIP3    H253268   0.229   3.498   2.654  2.3572  2.9347 -0.6111
10593TIP3   OH253269   6.341   3.002   4.257  0.0042 -0.4155 -0.1027
10593TIP3    H153270   6.399   3.061   4.304  0.7194 -0.5485 -0.7958
10593TIP3    H253271   6.290   2.959   4.326  0.0416  0.4019  0.4564
10594TIP3   OH253272   5.997   3.492   6.282 -0.1338  0.4256 -0.6480
10594TIP3    H153273   6.055   3.530   6.348  1.9774 -2.4184 -0.6882
10594TIP3    H253274   5.917   3.470   6.330  0.8193 -0.2956  0.6764
10595TIP3   OH253275   6.383   1.327  11.512  0.1306  0.1745 -0.3219
10595TIP3    H153276   6.465   1.277  11.515  0.3710  0.1410 -3.8868
10595TIP3    H253277   6.411   1.416  11.491 -0.7097  0.1468 -1.6367
10596TIP3   OH253278   4.351   2.060   0.866  0.6091  0.6127  0.5039
10596TIP3    H153279   4.261   2.034   0.884  0.7203  1.1689  2.0193
10596TIP3    H253280   4.396   1.978   0.846 -0.2351  0.3384 -0.3398
10597TIP3   OH253281   6.082   5.363   3.154 -0.7772  1.1095  0.2065
10597TIP3    H153282   6.108   5.454   3.139 -0.0814  1.0747  1.1459
10597TIP3    H253283   6.164   5.317   3.173 -1.3787  0.8489  2.5101
10598TIP3   OH253284   2.856   5.201   2.943 -0.5298  0.0224 -0.2910
10598TIP3    H153285   2.906   5.178   3.022 -0.5111  0.5811 -0.1379
10598TIP3    H253286   2.842   5.295   2.950  3.8029  1.1920 -3.3398
10599TIP3   OH253287   5.109   5.683   5.069  0.5959  0.2182 -0.0195
10599TIP3    H153288   5.107   5.738   4.990  2.0781 -0.6853 -0.7326
10599TIP3    H253289   5.142   5.598   5.038  1.5792 -0.0388  1.6259
10600TIP3   OH253290   2.037   2.155  14.772 -0.1984 -0.5453  0.1061
10600TIP3    H153291   2.129   2.161  14.798  0.0147 -2.4332 -0.0839
10600TIP3    H253292   2.022   2.062  14.756 -0.9851  0.0813 -4.0152
10601TIP3   OH253293   1.482   3.953   1.795 -0.2090  0.4950  0.9199
10601TIP3    H153294   1.413   3.905   1.841  0.0949 -1.1487 -0.2308
10601TIP3    H253295   1.440   3.984   1.715  0.1853  0.1421  0.5735
10602TIP3   OH253296   1.200   0.225  12.399  0.1142 -0.1613 -0.0665
10602TIP3    H153297   1.229   0.173  12.474 -1.8423  0.5261  1.2443
10602TIP3    H253298   1.184   0.312  12.434  1.0393  0.7298 -1.7364
10603TIP3   OH253299   3.854   0.393  10.858  0.0664 -0.2993  0.5122
10603TIP3    H153300   3.861   0.379  10.764 -0.3806 -0.8023  0.5518
10603TIP3    H253301   3.934   0.441  10.881 -1.0562  2.2781 -0.5535
10604TIP3   OH253302   4.110   0.606   0.974 -0.3495  0.0708  0.4645
10604TIP3    H153303   4.049   0.680   0.980 -1.4140 -0.5690 -1.5942
10604TIP3    H253304   4.089   0.551   1.049 -2.6618 -0.3564 -0.4274
10605TIP3   OH253305   4.341   4.252   0.446  0.6197 -0.2935 -0.2790
10605TIP3    H153306   4.300   4.266   0.532  1.0608 -1.1396  0.0824
10605TIP3    H253307   4.405   4.323   0.438 -1.0868  1.2579 -0.9949
10606TIP3   OH253308   4.066   4.287  15.755 -0.1071  0.0173 -0.1269
10606TIP3    H153309   3.971   4.296  15.747  0.0272  0.1151 -2.0872
10606TIP3    H253310   4.094   4.245  15.674  1.2906 -2.3128  1.4340
10607TIP3   OH253311   2.404   6.415   5.975 -0.0861 -0.5438 -0.0241
10607TIP3    H153312   2.320   6.380   6.004  0.0308  0.1150  1.1756
10607TIP3    H253313   2.382   6.479   5.908 -0.6328  0.3217  0.9533
10608TIP3   OH253314   4.652   3.065   3.933  0.3037 -0.1443  0.1879
10608TIP3    H153315   4.604   3.111   4.002 -0.1252 -1.8620  1.1021
10608TIP3    H253316   4.690   2.989   3.977  0.6622 -0.8830 -1.3243
10609TIP3   OH253317   6.825   4.914   1.859  0.3365  0.0653 -0.1805
10609TIP3    H153318   6.882   4.967   1.914  0.7184 -0.0895 -0.4269
10609TIP3    H253319   6.747   4.900   1.912  0.9511 -0.6002  0.5532
10610TIP3   OH253320   2.140   3.636  13.840 -0.1799  0.2213 -0.1313
10610TIP3    H153321   2.133   3.544  13.864  1.0127 -0.8179 -3.2472
10610TIP3    H253322   2.075   3.648  13.771 -0.1552  1.6652  0.0585
10611TIP3   OH253323   4.730   2.517   5.610  0.6076  0.1802  0.4628
10611TIP3    H153324   4.772   2.577   5.548  0.8735 -2.3655 -2.0289
10611TIP3    H253325   4.785   2.439   5.610 -1.2570 -1.2191  1.2200
10612TIP3   OH253326   2.586   5.878  15.539 -0.2654 -0.5193  0.2822
10612TIP3    H153327   2.585   5.827  15.458  0.0506 -0.7151  0.3998
10612TIP3    H253328   2.511   5.845  15.588 -0.5293 -0.3167  0.0194
10613TIP3   OH253329   5.619   2.911  14.668  0.4654  0.2477 -0.2581
10613TIP3    H153330   5.639   2.863  14.588  0.3560  1.5702 -1.1263
10613TIP3    H253331   5.648   2.854  14.739  0.9365 -0.7855 -1.2511
10614TIP3   OH253332   3.521   6.437  11.728 -0.9076 -0.0740 -0.2768
10614TIP3    H153333   3.432   6.440  11.693 -0.7163 -1.3023 -0.9235
10614TIP3    H253334   3.564   6.515  11.692 -1.5259  0.1854 -0.4646
10615TIP3   OH253335   0.943   0.510   4.214 -0.1474  0.0172  0.8331
10615TIP3    H153336   0.900   0.595   4.203  0.6835  0.1769 -1.7258
10615TIP3    H253337   0.874   0.446   4.197 -0.2754  0.2064  0.6418
10616TIP3   OH253338   0.421   3.190  14.040  0.2564  0.3645 -0.0833
10616TIP3    H153339   0.384   3.278  14.033  1.3098  1.0227  1.9263
10616TIP3    H253340   0.347   3.135  14.066 -0.6048  0.4232 -2.2014
10617TIP3   OH253341   2.471   5.733  12.855  0.1239  0.4089  0.3604
10617TIP3    H153342   2.553   5.707  12.814 -1.1598  0.7225 -2.6325
10617TIP3    H253343   2.496   5.757  12.945  3.4015  1.2315 -0.6447
10618TIP3   OH253344   3.085   3.145  16.221 -0.1342 -0.0443  0.8199
10618TIP3    H153345   3.058   3.218  16.166 -0.5615 -0.8717 -0.0887
10618TIP3    H253346   3.004   3.099  16.243  0.0350  0.2113  2.0845
10619TIP3   OH253347   2.022   1.640   2.002 -0.2098 -0.1133 -0.1014
10619TIP3    H153348   1.989   1.728   2.023  0.8610  0.4891 -0.8924
10619TIP3    H253349   2.094   1.655   1.942 -0.5490 -1.5970 -0.9172
10620TIP3   OH253350   5.072   0.756  16.587  0.1783  0.2321 -0.3100
10620TIP3    H153351   5.106   0.753  16.498 -0.3288 -0.4739 -0.4877
10620TIP3    H253352   4.996   0.814  16.582 -1.7312 -2.1970 -1.0299
10621TIP3   OH253353   3.583   0.191  11.805 -0.4440 -0.2394  0.2548
10621TIP3    H153354   3.553   0.160  11.720 -0.9603 -0.0508  0.3693
10621TIP3    H253355   3.575   0.286  11.801  1.3823 -0.0554 -0.1868
10622TIP3   OH253356   2.697   4.094   4.186 -0.3474  0.1235 -0.2689
10622TIP3    H153357   2.737   4.177   4.160  0.4363 -0.4454 -0.9327
10622TIP3    H253358   2.629   4.079   4.120  1.4963 -1.2119 -1.9899
10623TIP3   OH253359   1.917   0.906   0.447  0.3622  0.1361  0.0734
10623TIP3    H153360   1.983   0.941   0.507 -2.4092  1.2803  2.7304
10623TIP3    H253361   1.905   0.975   0.382  0.9696  0.4313  0.2721
10624TIP3   OH253362   4.788   1.529  11.457  0.5671  0.4508  0.4130
10624TIP3    H153363   4.715   1.577  11.419  0.4057 -0.2746 -0.2135
10624TIP3    H253364   4.863   1.552  11.402  0.3117 -0.6828 -0.4546
10625TIP3   OH253365   6.643   5.127   1.029 -0.0314  0.0452 -0.5186
10625TIP3    H153366   6.639   5.050   1.086 -0.9572  0.8272  0.5238
10625TIP3    H253367   6.698   5.100   0.956 -0.9258 -1.8471 -0.5468
10626TIP3   OH253368   3.373   0.684  11.637 -0.4053 -0.2005 -0.3187
10626TIP3    H153369   3.407   0.641  11.558  0.2979 -1.0253  0.4120
10626TIP3    H253370   3.442   0.744  11.664 -1.1124  0.9374 -0.9533
10627TIP3   OH253371   5.231   6.379  14.186 -0.6890 -0.5208  0.1424
10627TIP3    H153372   5.198   6.451  14.239  0.6087 -0.8171  1.3852
10627TIP3    H253373   5.188   6.301  14.221 -1.2161 -0.5170 -0.4601
10628TIP3   OH253374   1.462   5.814  16.987  0.2627  0.3703 -0.4181
10628TIP3    H153375   1.459   5.748  17.057 -2.5586 -0.8678 -1.5387
10628TIP3    H253376   1.504   5.768  16.914 -2.7174 -0.7864 -1.5789
10629TIP3   OH253377   2.926   6.528  15.844  0.2345 -0.5482  0.2044
10629TIP3    H153378   2.904   6.586  15.771  0.0843 -0.1249  0.5812
10629TIP3    H253379   2.852   6.536  15.904 -0.6470 -2.4802 -0.5303
10630TIP3   OH253380   6.361   2.105  14.412  0.0465 -0.1806  0.8880
10630TIP3    H153381   6.456   2.107  14.423 -0.0485  0.7109  1.7606
10630TIP3    H253382   6.345   2.150  14.329  0.4320 -1.2305  0.2349
10631TIP3   OH253383   0.042   4.159  16.910  0.0198 -0.1316 -0.2624
10631TIP3    H153384  -0.044   4.118  16.921 -0.9417  1.4753 -1.3410
10631TIP3    H253385   0.032   4.245  16.950  1.5764 -0.3875  0.7694
10632TIP3   OH253386   3.840   3.861  12.495  0.1628  0.2739  0.0802
10632TIP3    H153387   3.869   3.773  12.521  0.0114 -0.2552 -1.4768
10632TIP3    H253388   3.916   3.901  12.454 -0.4063  0.0073 -1.2738
10633TIP3   OH253389   1.759   1.067  15.713  0.3586  0.4354 -0.4649
10633TIP3    H153390   1.686   1.006  15.723 -0.1670  1.1611  0.2024
10633TIP3    H253391   1.718   1.153  15.704  1.1019  0.7389 -1.0930
10634TIP3   OH253392   5.022   3.589   6.017  0.4909  0.2753  0.3606
10634TIP3    H153393   4.994   3.645   6.090 -1.5496 -0.9354  0.5878
10634TIP3    H253394   4.967   3.615   5.944 -0.3914 -1.2402  0.4269
10635TIP3   OH253395   0.496   0.076   3.944 -0.5168  0.2866 -0.0584
10635TIP3    H153396   0.507   0.123   3.861 -3.5849 -1.1236 -1.4368
10635TIP3    H253397   0.537  -0.009   3.929 -1.3112 -0.0702 -0.2912
10636TIP3   OH253398   1.508   6.508  13.954 -0.0354 -0.5228 -0.0128
10636TIP3    H153399   1.446   6.437  13.941  1.0777 -1.4490 -0.5125
10636TIP3    H253400   1.541   6.528  13.866  0.8395 -0.5013  0.3080
10637TIP3   OH253401   4.849   3.455  15.770 -0.3460 -0.8163  0.1306
10637TIP3    H153402   4.838   3.429  15.861 -2.1937 -0.7659 -0.0378
10637TIP3    H253403   4.789   3.398  15.722  1.3453 -1.5614 -1.2200
10638TIP3   OH253404   2.241   0.135   1.952  0.3238 -0.1693 -0.2125
10638TIP3    H153405   2.235   0.182   2.035  0.8338 -0.9837  0.2964
10638TIP3    H253406   2.171   0.171   1.898  1.7842  2.5216 -0.5188
10639TIP3   OH253407   2.709   1.880  11.819  0.2891 -0.7997 -0.1403
10639TIP3    H153408   2.781   1.834  11.864  0.4191 -1.9588 -1.4470
10639TIP3    H253409   2.642   1.813  11.808 -0.4297 -0.0836 -0.1507
10640TIP3   OH253410   1.419   4.455   0.483  0.2454  0.1194 -0.3646
10640TIP3    H153411   1.338   4.458   0.535 -0.1744  0.7922 -1.0283
10640TIP3    H253412   1.406   4.522   0.416  1.7069  0.7889  0.0053
10641TIP3   OH253413   5.605   5.389   0.329 -0.4299 -0.1942  0.0307
10641TIP3    H153414   5.549   5.357   0.258 -0.4230 -2.1411  0.8320
10641TIP3    H253415   5.550   5.380   0.407  0.7482 -1.6072  0.7506
10642TIP3   OH253416   4.972   0.852   5.131  0.2633  0.1882  0.3078
10642TIP3    H153417   5.045   0.911   5.111  2.7963 -2.6774  0.3882
10642TIP3    H253418   4.966   0.854   5.227  1.6231 -0.9887  0.4527
10643TIP3   OH253419   5.949   0.990  14.973 -0.3572  0.4657 -0.5712
10643TIP3    H153420   6.012   0.970  14.904  0.5851  0.1692  0.3579
10643TIP3    H253421   5.906   1.071  14.943  0.0617  0.3652 -1.4777
10644TIP3   OH253422   1.351   1.950  16.997  0.4003  0.1083 -0.4289
10644TIP3    H153423   1.311   2.031  17.028  0.6048 -0.7526  2.3766
10644TIP3    H253424   1.362   1.963  16.903 -1.8897  2.2956 -0.4935
10645TIP3   OH253425   5.300   3.054   2.417  0.3057 -0.0496 -0.2607
10645TIP3    H153426   5.208   3.081   2.427  0.6413  0.5534  1.5698
10645TIP3    H253427   5.317   2.997   2.491  1.1322 -1.0358 -1.1830
10646TIP3   OH253428   5.401   0.545  12.402  0.0471 -0.6166  0.1074
10646TIP3    H153429   5.468   0.582  12.460  1.0889 -2.3474  0.0984
10646TIP3    H253430   5.433   0.457  12.383 -1.9964 -1.3120 -0.3350
10647TIP3   OH253431   4.210   1.426   0.054  0.0918 -0.6601  0.0582
10647TIP3    H153432   4.170   1.386   0.131 -1.2993  0.5782  0.0267
10647TIP3    H253433   4.254   1.353   0.010 -1.4186 -1.9527  0.5728
10648TIP3   OH253434   3.106   1.268  17.100 -0.5488  0.0326  0.2278
10648TIP3    H153435   3.182   1.254  17.043 -1.6482  0.8802 -1.5407
10648TIP3    H253436   3.034   1.285  17.039 -1.8834  0.5844  1.8980
10649TIP3   OH253437   3.073   0.274   3.254  0.2214 -0.3015  0.6121
10649TIP3    H153438   2.994   0.223   3.273 -0.3552  0.3872  0.1184
10649TIP3    H253439   3.112   0.292   3.339 -0.9848  0.6533  0.9783
10650TIP3   OH253440   4.266   1.957   4.878  0.1668  0.6240  0.4168
10650TIP3    H153441   4.201   1.990   4.940 -1.7082 -1.6055 -0.2349
10650TIP3    H253442   4.247   1.863   4.871  2.5529  0.1730 -0.9308
10651TIP3   OH253443   3.996   3.412   0.767 -0.1208  0.0322  0.2528
10651TIP3    H153444   3.967   3.503   0.762 -2.6413 -0.7386 -1.4911
10651TIP3    H253445   3.927   3.368   0.817 -0.5574 -1.3987 -1.4927
10652TIP3   OH253446   1.958   3.615  14.659 -0.2254  0.4183 -0.1942
10652TIP3    H153447   2.002   3.577  14.735  0.9895  1.3982 -0.3797
10652TIP3    H253448   1.907   3.543  14.622  0.6341 -0.5563  0.4776
10653TIP3   OH253449   0.405   4.232  15.430  0.7215  0.0608  0.6996
10653TIP3    H153450   0.471   4.225  15.360  2.0214  1.6349  1.7008
10653TIP3    H253451   0.337   4.170  15.405  1.1189  0.6020 -1.9842
10654TIP3   OH253452   5.705   4.839  16.313  0.1498  0.1930  0.4750
10654TIP3    H153453   5.696   4.868  16.404 -2.2533 -1.0259  0.7045
10654TIP3    H253454   5.770   4.769  16.317  0.5093  0.5572  1.1640
10655TIP3   OH253455   3.544   1.419   2.005  0.4613  0.7579  0.0190
10655TIP3    H153456   3.630   1.381   2.019  0.2591  0.5897  0.8479
10655TIP3    H253457   3.559   1.491   1.945  1.1271  0.5161 -0.1086
10656TIP3   OH253458   0.023   3.243   0.512 -0.0708  0.6550  0.2000
10656TIP3    H153459   0.050   3.187   0.439 -1.0546  0.9118 -0.3854
10656TIP3    H253460   0.058   3.329   0.490 -1.2854  0.9905 -0.5649
10657TIP3   OH253461   0.805   2.851  12.806  0.5004  0.2793  0.2110
10657TIP3    H153462   0.797   2.912  12.732  1.1160 -0.0153 -0.1032
10657TIP3    H253463   0.717   2.845  12.842 -0.4653 -1.7035 -2.2025
10658TIP3   OH253464   2.043   2.372  10.873 -0.1487  0.5657  0.0156
10658TIP3    H153465   2.124   2.379  10.923  0.3075 -0.5381 -0.5376
10658TIP3    H253466   2.043   2.282  10.840 -1.3222  0.7265 -0.4614
10659TIP3   OH253467   6.460   4.837   4.017 -0.0589 -0.1956 -0.5211
10659TIP3    H153468   6.482   4.744   4.014 -0.8897 -0.4793  1.2271
10659TIP3    H253469   6.368   4.840   4.044  0.4263  1.1199  1.1978
10660TIP3   OH253470   6.478   0.485  11.478  0.2783 -0.0092  0.1695
10660TIP3    H153471   6.385   0.477  11.459  0.0864 -0.8732  1.3292
10660TIP3    H253472   6.520   0.425  11.416 -0.2417 -2.0147  1.6501
10661TIP3   OH253473   3.515   6.605   4.758  0.3083 -0.6365  0.3808
10661TIP3    H153474   3.549   6.520   4.786  0.5403 -1.0592 -1.1185
10661TIP3    H253475   3.591   6.663   4.762  0.6887 -1.0372 -0.7320
10662TIP3   OH253476   4.491   2.494  17.218 -0.2084  0.1385 -0.5509
10662TIP3    H153477   4.547   2.466  17.290  0.5849 -1.6211 -1.7637
10662TIP3    H253478   4.439   2.566  17.254  0.2079 -0.6169  1.7320
10663TIP3   OH253479   4.414   0.684  13.473  0.0103 -0.3813  0.0498
10663TIP3    H153480   4.506   0.711  13.478  0.0601 -0.2308 -1.2773
10663TIP3    H253481   4.384   0.717  13.389 -1.7109  0.8617  1.1032
10664TIP3   OH253482   0.265   3.413  10.576 -0.1785 -0.5815 -0.8431
10664TIP3    H153483   0.336   3.477  10.573 -1.0599  0.4176 -1.0499
10664TIP3    H253484   0.308   3.330  10.599  1.1301 -0.1369 -1.5863
10665TIP3   OH253485   6.825   2.680  11.656 -0.1218  0.1738  0.4921
10665TIP3    H153486   6.910   2.723  11.648  1.2757 -2.5756 -1.2607
10665TIP3    H253487   6.762   2.751  11.662  2.2595  2.3336  1.9472
10666TIP3   OH253488   0.751   1.661   0.505  0.2693  0.4347 -0.2699
10666TIP3    H153489   0.680   1.718   0.534  1.0773  1.0435  0.5520
10666TIP3    H253490   0.713   1.573   0.507 -0.3000  0.6951  0.6781
10667TIP3   OH253491   0.883   1.667   4.830 -0.2559 -0.0911  0.2592
10667TIP3    H153492   0.900   1.612   4.754 -0.4639  0.9634 -0.5592
10667TIP3    H253493   0.968   1.708   4.850 -0.2452 -0.2214  0.4958
10668TIP3   OH253494   2.705   3.722   0.377  0.0513 -0.1203 -0.4445
10668TIP3    H153495   2.700   3.726   0.281 -1.5827 -0.9560 -0.4273
10668TIP3    H253496   2.796   3.698   0.395  1.0859  2.4946 -1.6522
10669TIP3   OH253497   0.531   6.324   5.754  0.1379 -0.3278  0.1150
10669TIP3    H153498   0.564   6.356   5.838 -0.7350 -1.0622  0.7636
10669TIP3    H253499   0.606   6.329   5.695  1.0618 -0.7617  1.2114
10670TIP3   OH253500   5.394   3.775  11.091  0.4769  0.0650  0.2412
10670TIP3    H153501   5.332   3.702  11.095 -1.2283  1.4426  0.6670
10670TIP3    H253502   5.421   3.779  10.999 -0.2869 -0.4164 -0.0167
10671TIP3   OH253503   2.738   3.018  12.527  0.5346  0.4061  0.2157
10671TIP3    H153504   2.789   2.941  12.552  3.5492  2.7991  2.2007
10671TIP3    H253505   2.760   3.033  12.435  2.0333  0.3239  0.5335
10672TIP3   OH253506   0.564   3.552  13.321 -0.1986 -0.7901 -0.1461
10672TIP3    H153507   0.565   3.459  13.343 -1.1496 -0.0909  3.6298
10672TIP3    H253508   0.643   3.588  13.361  0.0142  0.1210 -1.3042
10673TIP3   OH253509   3.911   4.053  17.075 -0.7303 -0.5469 -0.1610
10673TIP3    H153510   3.822   4.036  17.042 -0.5207  1.3466 -1.8547
10673TIP3    H253511   3.905   4.139  17.116  0.1603 -0.7700  0.4508
10674TIP3   OH253512   3.643   4.139   4.865  0.3868 -0.1823  0.2856
10674TIP3    H153513   3.654   4.078   4.792  1.0237  0.9132 -0.5571
10674TIP3    H253514   3.571   4.102   4.917  1.7147 -2.4441  0.6322
10675TIP3   OH253515   3.204   2.621  11.317  0.7202  0.4396  0.1126
10675TIP3    H153516   3.151   2.650  11.391  0.8568  0.6075  0.1442
10675TIP3    H253517   3.144   2.623  11.242  0.4106 -0.3387  0.3307
10676TIP3   OH253518   3.146   0.702  12.034  0.6599  0.5600 -0.0680
10676TIP3    H153519   3.216   0.759  12.066  0.8736  0.5015 -0.4166
10676TIP3    H253520   3.165   0.616  12.072  0.8464  0.5170 -0.2554
10677TIP3   OH253521   2.427   3.406   1.966 -0.3681  0.6044 -0.3151
10677TIP3    H153522   2.477   3.454   1.901 -0.1481  1.1984  0.2751
10677TIP3    H253523   2.338   3.405   1.932 -0.1633  0.4748 -0.8559
10678TIP3   OH253524   3.490   3.917  13.737 -0.1485 -0.4205 -0.1611
10678TIP3    H153525   3.490   3.987  13.672 -0.3644 -0.7997 -0.5731
10678TIP3    H253526   3.400   3.885  13.738  0.1238 -1.2209 -0.5558
10679TIP3   OH253527   6.823   5.307   3.042 -0.1274 -0.9210  0.3515
10679TIP3    H153528   6.918   5.309   3.034 -0.0189 -2.3804  0.8747
10679TIP3    H253529   6.806   5.337   3.131 -0.2609  0.4510 -0.1122
10680TIP3   OH253530   2.651   4.034   0.281 -0.0543 -0.3233 -0.0464
10680TIP3    H153531   2.577   4.013   0.338  0.8051 -1.6106  0.6342
10680TIP3    H253532   2.642   3.974   0.207  1.7366 -2.4103  1.3184
10681TIP3   OH253533   6.236   1.830   0.023 -0.5282  0.0575  0.3479
10681TIP3    H153534   6.221   1.757   0.082 -0.7744  0.0816  0.3164
10681TIP3    H253535   6.325   1.816  -0.010 -0.5294 -0.1604  0.4340
10682TIP3   OH253536   2.321   5.524   1.128  0.1282 -0.0781  0.4264
10682TIP3    H153537   2.411   5.515   1.097 -0.3963  2.0691 -2.1324
10682TIP3    H253538   2.328   5.570   1.211  1.3905  0.7208 -0.0941
10683TIP3   OH253539   1.528   3.491  11.306  0.2318  0.1690 -0.0307
10683TIP3    H153540   1.598   3.522  11.364 -0.5268  1.6819  0.1361
10683TIP3    H253541   1.541   3.541  11.226 -0.0958 -0.2414 -0.3386
10684TIP3   OH253542   4.283   6.230  12.154  0.2002  0.4110 -0.0072
10684TIP3    H153543   4.268   6.236  12.060 -0.2042 -0.6913 -0.0356
10684TIP3    H253544   4.197   6.207  12.191  0.5718 -0.2030  0.5016
10685TIP3   OH253545   0.074   1.272   3.267 -0.0675  0.3674 -0.2621
10685TIP3    H153546   0.148   1.274   3.207 -0.8279  1.4960 -1.2268
10685TIP3    H253547   0.002   1.235   3.216 -1.0475  2.4487 -0.5138
10686TIP3   OH253548   3.108   2.900   3.458  0.0155  0.0558 -0.5549
10686TIP3    H153549   3.180   2.948   3.498 -1.0022  1.0760  0.1051
10686TIP3    H253550   3.144   2.867   3.376  2.3485 -2.6095  1.3756
10687TIP3   OH253551   5.370   1.969   2.057 -0.0166  0.1312  0.0915
10687TIP3    H153552   5.407   2.031   2.119 -0.5400  0.7888 -0.2453
10687TIP3    H253553   5.445   1.935   2.009  0.4594 -0.8202  1.4603
10688TIP3   OH253554   3.718   4.166   0.638 -0.4185 -0.0803 -0.2163
10688TIP3    H153555   3.751   4.122   0.560  0.6106  1.4796 -0.7241
10688TIP3    H253556   3.627   4.138   0.645 -0.1356 -1.3221 -1.1696
10689TIP3   OH253557   4.877   0.512  13.025 -0.3506 -0.3276 -0.2635
10689TIP3    H153558   4.866   0.417  13.033 -0.0555 -0.3351  0.1395
10689TIP3    H253559   4.818   0.548  13.091 -0.9274 -0.2060 -0.8514
10690TIP3   OH253560   4.362   5.945   2.410 -0.2737 -0.1999  0.0021
10690TIP3    H153561   4.362   6.041   2.410 -2.7567 -0.1356 -0.0053
10690TIP3    H253562   4.277   5.921   2.375  1.2931 -2.4882 -2.6919
10691TIP3   OH253563   4.520   3.511   6.603  0.8824 -0.2568  0.0611
10691TIP3    H153564   4.538   3.591   6.554  0.1845 -0.0922  0.0632
10691TIP3    H253565   4.435   3.526   6.644  0.6647 -1.0579 -0.0683
10692TIP3   OH253566   6.655   6.597   4.165 -0.3014  0.4369  0.4595
10692TIP3    H153567   6.574   6.639   4.135 -0.2352 -0.7332 -1.5637
10692TIP3    H253568   6.723   6.634   4.109  0.3110  0.2279  1.0556
10693TIP3   OH253569   5.353   3.174  16.616  0.2433 -0.3342 -0.2353
10693TIP3    H153570   5.448   3.171  16.605  0.5797 -0.0818  2.0111
10693TIP3    H253571   5.328   3.263  16.592  0.8144  0.0547  0.5828
10694TIP3   OH253572   2.195   5.019   2.289  0.2785 -0.4369  0.0012
10694TIP3    H153573   2.167   5.029   2.198  0.3598 -0.5204 -0.0334
10694TIP3    H253574   2.115   4.996   2.336  0.2461 -0.4452 -0.0577
10695TIP3   OH253575   4.690   0.684  11.471  0.0832  0.2523 -0.0386
10695TIP3    H153576   4.655   0.751  11.531  1.1447  0.0500  0.8421
10695TIP3    H253577   4.680   0.723  11.384  0.3639  1.4243  0.4298
10696TIP3   OH253578   5.930   1.593   1.077  0.3612 -0.2737  0.3610
10696TIP3    H153579   6.012   1.545   1.091 -0.1712 -1.0592  0.8493
10696TIP3    H253580   5.943   1.677   1.121 -0.1104 -1.4668  2.9926
10697TIP3   OH253581   2.634   4.323   3.281 -0.1218  0.0450 -0.0180
10697TIP3    H153582   2.581   4.352   3.355  1.0538 -3.1733  2.3670
10697TIP3    H253583   2.614   4.230   3.273  1.3322 -0.1260 -2.4519
10698TIP3   OH253584   3.750   0.018   2.229  0.0173 -0.0720 -0.3947
10698TIP3    H153585   3.827   0.073   2.244 -0.8966  0.4042  3.6942
10698TIP3    H253586   3.772  -0.066   2.269 -1.8700  0.4717  2.0570
10699TIP3   OH253587   6.509   5.925  11.775  0.0371  0.7657  0.1272
10699TIP3    H153588   6.419   5.893  11.777 -0.3958  1.9197 -0.1610
10699TIP3    H253589   6.502   6.019  11.791  1.2910  0.7153  1.1462
10700TIP3   OH253590   2.070   2.216  11.583 -0.0609  0.1506 -0.1932
10700TIP3    H153591   1.991   2.231  11.531  0.2155  1.1470 -0.3302
10700TIP3    H253592   2.116   2.147  11.535 -0.6171 -0.1163 -0.3586
10701TIP3   OH253593   0.444   5.690   6.485 -0.4741 -0.5401 -0.1757
10701TIP3    H153594   0.533   5.675   6.453 -0.2263 -3.5109  1.5225
10701TIP3    H253595   0.400   5.739   6.415  2.2120  0.2914 -1.4002
10702TIP3   OH253596   6.635   2.882   5.195  0.2874 -0.1416  0.2145
10702TIP3    H153597   6.730   2.886   5.184  0.5886  1.5052  2.6131
10702TIP3    H253598   6.622   2.829   5.273 -0.8146 -0.5937 -0.2530
10703TIP3   OH253599   0.934   4.724  15.726 -0.3671  0.1017 -0.1890
10703TIP3    H153600   0.944   4.777  15.805  0.7815 -1.2887  0.6433
10703TIP3    H253601   0.976   4.776  15.657  1.1910  0.1002  0.7053
10704TIP3   OH253602   3.702   6.141   4.697 -0.6836  0.3521 -0.1748
10704TIP3    H153603   3.734   6.086   4.769 -2.8227 -0.2592  0.4019
10704TIP3    H253604   3.671   6.078   4.632  0.2012  0.9072 -1.1550
10705TIP3   OH253605   0.382   0.294   2.331  0.9427  1.0589  0.5890
10705TIP3    H153606   0.349   0.212   2.367  0.5795  0.8058 -0.2877
10705TIP3    H253607   0.476   0.292   2.347  1.2148 -0.3254 -0.8867
10706TIP3   OH253608   1.939   4.817  13.147 -0.3432  0.0236 -0.0029
10706TIP3    H153609   1.896   4.902  13.137  1.1859  1.0204  1.1679
10706TIP3    H253610   2.033   4.839  13.148  0.0784 -1.6804  0.3554
10707TIP3   OH253611   3.504   4.869   4.178 -0.3921  0.1036  0.2365
10707TIP3    H153612   3.523   4.878   4.271 -0.2630  0.3040  0.1918
10707TIP3    H253613   3.567   4.803   4.147 -1.1870 -0.8003  0.5181
10708TIP3   OH253614   4.450   2.215  14.710  0.3876  0.4854  0.1528
10708TIP3    H153615   4.423   2.123  14.705  1.6853  0.1400 -0.8985
10708TIP3    H253616   4.458   2.242  14.619  3.2061  0.6547  0.3867
10709TIP3   OH253617   3.179   6.391   4.558 -0.0425  0.1589  0.1166
10709TIP3    H153618   3.123   6.321   4.525  0.3206  0.8244 -2.0937
10709TIP3    H253619   3.228   6.421   4.481  0.9966  1.7429  1.3250
10710TIP3   OH253620   2.588   6.478  15.497 -0.0991  0.5267 -0.2623
10710TIP3    H153621   2.617   6.506  15.410 -0.6785  0.8770 -0.3427
10710TIP3    H253622   2.493   6.471  15.490 -0.0288 -0.9357 -0.0889
10711TIP3   OH253623   4.458   2.023   2.378  0.1259  0.2273 -0.4834
10711TIP3    H153624   4.534   2.059   2.423 -0.4523  2.4333 -1.1743
10711TIP3    H253625   4.483   2.021   2.286 -0.9263  1.9050 -0.8501
10712TIP3   OH253626   1.571   0.756  16.931 -0.0965  0.2486  0.2562
10712TIP3    H153627   1.489   0.708  16.920  0.0532 -0.0942  0.5974
10712TIP3    H253628   1.544   0.846  16.951 -0.3869  0.1495  0.3118
10713TIP3   OH253629   6.593   2.250  10.790  0.6700 -0.2778  0.5833
10713TIP3    H153630   6.534   2.178  10.768 -1.4397  1.4076  0.3359
10713TIP3    H253631   6.552   2.327  10.749  3.3568  0.9192 -0.0575
10714TIP3   OH253632   4.642   5.711  10.768 -0.1237 -0.4532 -0.6838
10714TIP3    H153633   4.674   5.667  10.846 -0.6532  0.6895  0.2221
10714TIP3    H253634   4.546   5.709  10.777 -0.2298  3.4145  1.0036
10715TIP3   OH253635   5.056   1.202   1.010  0.1411  0.3660 -0.2318
10715TIP3    H153636   5.098   1.124   0.972  0.2048  0.5849 -0.6115
10715TIP3    H253637   5.127   1.267   1.014  0.0257  0.4865 -0.1548
10716TIP3   OH253638   1.698   3.708   0.816  0.2231 -0.2699  0.5521
10716TIP3    H153639   1.625   3.646   0.813  2.0415 -2.6682  2.3053
10716TIP3    H253640   1.698   3.748   0.729 -1.6647 -1.9692 -0.3315
10717TIP3   OH253641   4.375   1.829   1.209  0.2682  0.3141 -0.4889
10717TIP3    H153642   4.377   1.923   1.227  1.1481  0.2976 -0.4756
10717TIP3    H253643   4.309   1.819   1.140 -0.9243  0.7481  0.5439
10718TIP3   OH253644   4.725   3.759   5.513  0.3391  0.1488  0.6083
10718TIP3    H153645   4.665   3.804   5.571  0.7048 -0.6346  1.6197
10718TIP3    H253646   4.733   3.671   5.550  1.3641 -0.0551 -0.0564
10719TIP3   OH253647   2.703   1.905  15.976 -0.2874  0.6194  0.6102
10719TIP3    H153648   2.799   1.900  15.977 -0.2846  0.2182 -0.4386
10719TIP3    H253649   2.684   1.987  16.022  0.6465  1.5667 -0.6015
10720TIP3   OH253650   4.146   1.283   4.412  0.1086 -0.1018  0.4910
10720TIP3    H153651   4.198   1.228   4.354 -1.0108  0.9980 -1.6669
10720TIP3    H253652   4.075   1.317   4.357 -1.9741 -0.2135  2.8783
10721TIP3   OH253653   0.744   5.920  12.113 -0.2601  0.1399 -0.3573
10721TIP3    H153654   0.676   5.984  12.092  0.8496  1.1911 -0.9124
10721TIP3    H253655   0.704   5.863  12.179 -1.6469  0.7444 -0.6371
10722TIP3   OH253656   0.707   2.663   3.642  0.2035 -0.3595  0.2936
10722TIP3    H153657   0.711   2.688   3.734  1.4980 -1.8529  0.6904
10722TIP3    H253658   0.661   2.578   3.643  2.1805 -1.4981 -0.1187
10723TIP3   OH253659   3.255   4.785   0.807  0.3093  0.2518 -0.2759
10723TIP3    H153660   3.246   4.709   0.864 -2.7268 -1.2306 -2.4679
10723TIP3    H253661   3.326   4.762   0.747 -0.5957 -0.9494 -0.9327
10724TIP3   OH253662   6.217   0.510  12.007  0.1470 -0.2466 -0.0127
10724TIP3    H153663   6.203   0.516  11.912  0.5024 -0.0151 -0.0527
10724TIP3    H253664   6.215   0.601  12.037 -2.8054 -0.4129  0.6410
10725TIP3   OH253665   5.562   3.324  14.069 -0.0035 -0.5767 -0.0849
10725TIP3    H153666   5.491   3.381  14.100  0.8492  0.0886  0.7323
10725TIP3    H253667   5.524   3.274  13.997 -1.1280  0.1811 -0.0396
10726TIP3   OH253668   4.535   5.945   5.011  0.2839 -0.1516 -0.1590
10726TIP3    H153669   4.537   6.025   5.062 -0.0213 -0.4035  0.2496
10726TIP3    H253670   4.582   5.881   5.065 -1.6365 -0.9174  0.6747
10727TIP3   OH253671   1.327   2.063  12.964 -0.2746  0.0804 -0.1974
10727TIP3    H153672   1.247   2.019  12.935 -2.7405  2.2613  2.5592
10727TIP3    H253673   1.357   2.011  13.038 -0.6129  0.5520  0.2842
10728TIP3   OH253674   1.582   4.007  10.764  0.9207 -0.0719  0.2025
10728TIP3    H153675   1.658   4.057  10.735  2.0124 -1.4162  0.6100
10728TIP3    H253676   1.551   4.054  10.842  0.7612  0.9820 -0.4728
10729TIP3   OH253677   2.671   5.638   4.067  0.2600 -0.4977 -0.0857
10729TIP3    H153678   2.692   5.581   4.140 -3.5896  2.0732  3.5380
10729TIP3    H253679   2.601   5.592   4.020 -0.1948 -0.3856  0.4771
10730TIP3   OH253680   6.330   1.433  13.796 -0.2237  0.0044  0.3965
10730TIP3    H153681   6.254   1.481  13.763  0.0053 -1.2744 -2.2956
10730TIP3    H253682   6.342   1.464  13.885 -2.8036  1.5534  0.2897
10731TIP3   OH253683   1.125   0.785   6.354 -0.0797  0.3292  0.1600
10731TIP3    H153684   1.197   0.722   6.355  0.1414  0.5773 -0.1026
10731TIP3    H253685   1.137   0.837   6.433  1.7216  2.2631 -1.2916
10732TIP3   OH253686   6.659   5.928   0.226  0.0568  0.2643 -0.6483
10732TIP3    H153687   6.703   5.853   0.266  1.5938  1.9736  1.0982
10732TIP3    H253688   6.573   5.932   0.268  1.2433  1.3858  1.8414
10733TIP3   OH253689   0.897   4.441   5.425  0.1346 -0.9272  0.0882
10733TIP3    H153690   0.954   4.485   5.487  1.7961 -0.8067 -1.4337
10733TIP3    H253691   0.818   4.493   5.423  0.3422 -0.5318  1.5434
10734TIP3   OH253692   2.048   6.196   5.483 -0.0867  0.2584 -0.6959
10734TIP3    H153693   1.984   6.131   5.514 -0.7226  1.5039  0.7600
10734TIP3    H253694   1.994   6.266   5.445  0.5414  0.2944 -1.5350
10735TIP3   OH253695   2.200   5.455   0.157 -0.1057  0.0370  0.3092
10735TIP3    H153696   2.235   5.516   0.092  0.4499 -2.1503 -1.5267
10735TIP3    H253697   2.105   5.471   0.155  0.0245  0.8483 -0.0918
10736TIP3   OH253698   3.436   6.049   1.172 -0.4956  0.0584 -0.2473
10736TIP3    H153699   3.441   6.143   1.186 -1.7542  0.0923  0.0980
10736TIP3    H253700   3.502   6.031   1.105 -0.6865  1.2760 -0.7874
10737TIP3   OH253701   3.175   0.432  16.580 -0.3187 -0.4273  0.0423
10737TIP3    H153702   3.117   0.356  16.574 -2.5702  1.2029 -0.5276
10737TIP3    H253703   3.239   0.419  16.510 -2.7554 -0.2526 -2.4049
10738TIP3   OH253704   5.770   2.794  17.092 -0.1923  0.7328 -0.3601
10738TIP3    H153705   5.745   2.867  17.034 -0.0846  0.2637 -1.0107
10738TIP3    H253706   5.861   2.812  17.115 -0.2109  0.8791 -0.3974
10739TIP3   OH253707   6.446   3.405   2.917 -0.1581  0.2323  0.0960
10739TIP3    H153708   6.357   3.401   2.951  0.3170  1.6339  1.6573
10739TIP3    H253709   6.438   3.382   2.824 -1.8934 -1.2024  0.5556
10740TIP3   OH253710   3.803   5.881  14.054  0.3300 -0.8619 -0.3344
10740TIP3    H153711   3.779   5.962  14.008  0.8937 -0.6828 -0.3198
10740TIP3    H253712   3.734   5.819  14.031 -0.5359 -0.1520  0.2762
10741TIP3   OH253713   4.469   2.058  11.914 -0.4340  0.5673  0.1281
10741TIP3    H153714   4.549   2.040  11.863 -0.7360  3.5469 -1.6358
10741TIP3    H253715   4.436   1.972  11.938  0.8106 -0.9806 -3.1407
10742TIP3   OH253716   0.916   2.267  16.804  0.9284 -0.0324 -0.6295
10742TIP3    H153717   1.005   2.300  16.817  0.7637  0.0124  0.4255
10742TIP3    H253718   0.904   2.271  16.709  1.5936  1.1603 -0.6957
10743TIP3   OH253719   3.865   4.257   3.470 -0.3695  0.1136  0.5575
10743TIP3    H153720   3.933   4.217   3.416 -0.4420  0.8791 -0.1087
10743TIP3    H253721   3.803   4.185   3.486 -1.3149  0.2655 -1.9414
10744TIP3   OH253722   6.247   6.692  14.292 -0.1553 -0.5565  0.3947
10744TIP3    H153723   6.203   6.773  14.317  1.2456  0.9760 -1.6924
10744TIP3    H253724   6.202   6.663  14.212  0.3449 -0.9302  0.2385
10745TIP3   OH253725   4.433   4.755   3.388 -0.8242 -0.0266 -0.5274
10745TIP3    H153726   4.387   4.672   3.393  0.1408 -0.5175  0.8971
10745TIP3    H253727   4.364   4.821   3.382 -1.6725 -0.8098  0.3180
10746TIP3   OH253728   2.776   6.548   4.155 -0.0119  0.0464  0.2975
10746TIP3    H153729   2.708   6.485   4.175 -0.8300  0.6947 -0.4042
10746TIP3    H253730   2.755   6.580   4.068  1.5353 -0.1788 -0.1941
10747TIP3   OH253731   3.565   4.727  16.514 -0.2950 -0.1330 -0.6226
10747TIP3    H153732   3.614   4.653  16.478  0.5065  0.5322 -0.9156
10747TIP3    H253733   3.597   4.803  16.466  0.3042  0.6810  0.9990
10748TIP3   OH253734   6.776   4.097  14.034  0.0879 -0.1703  0.2734
10748TIP3    H153735   6.683   4.078  14.049 -0.4135  1.8590  0.0818
10748TIP3    H253736   6.823   4.038  14.093 -1.2397 -2.2320 -0.6318
10749TIP3   OH253737   0.906   1.311   0.640 -0.2886 -0.0979 -0.4553
10749TIP3    H153738   0.891   1.218   0.654 -2.2830  0.1797 -0.3564
10749TIP3    H253739   0.840   1.354   0.695  1.7315  1.4553  0.9030
10750TIP3   OH253740   0.449   4.395   0.170  0.0418 -0.2552 -0.3193
10750TIP3    H153741   0.448   4.400   0.265  0.3806 -0.3363 -0.3088
10750TIP3    H253742   0.358   4.383   0.145 -0.3923  2.1164 -0.1335
10751TIP3   OH253743   4.824   5.965   2.538 -0.7958  0.8821 -0.8334
10751TIP3    H153744   4.758   6.016   2.491 -1.5969  1.1821  0.5466
10751TIP3    H253745   4.889   6.030   2.566 -1.0468  0.9348 -0.3530
10752TIP3   OH253746   3.046   4.526   0.773  0.7599 -0.1093  0.1114
10752TIP3    H153747   2.978   4.518   0.706  0.5300 -0.2586  0.3588
10752TIP3    H253748   3.116   4.577   0.731  1.2290 -1.3864 -0.6949
10753TIP3   OH253749   3.034   4.156   0.002 -0.5286 -0.8578 -0.4960
10753TIP3    H153750   3.127   4.139   0.019  0.0231  1.5554 -0.7370
10753TIP3    H253751   2.988   4.097   0.062  1.1894 -0.9487  0.8159
10754TIP3   OH253752   5.589   1.101   4.785 -0.3509  0.3459 -0.1267
10754TIP3    H153753   5.654   1.167   4.761  1.4374 -1.3921 -0.3133
10754TIP3    H253754   5.593   1.036   4.715 -1.6463 -0.2701  0.3386
10755TIP3   OH253755   5.436   5.650   4.802  0.2078  0.1986  0.0922
10755TIP3    H153756   5.467   5.733   4.838  0.3875  0.5181 -0.7775
10755TIP3    H253757   5.516   5.607   4.771  0.0178  0.0620 -0.2021
10756TIP3   OH253758   6.101   3.274   1.017 -0.2931 -0.3639  0.5461
10756TIP3    H153759   6.108   3.181   0.997  0.9992 -0.4703  1.3961
10756TIP3    H253760   6.145   3.284   1.101  1.0689  1.2759 -0.3061
10757TIP3   OH253761   5.446   2.320   5.659  0.1734  0.4593  0.2574
10757TIP3    H153762   5.357   2.295   5.634 -0.3700  2.6887 -0.2977
10757TIP3    H253763   5.435   2.380   5.733  1.3582 -0.5907  1.3384
10758TIP3   OH253764   1.128   3.236   4.041 -0.6109  0.2864 -1.0631
10758TIP3    H153765   1.032   3.242   4.036 -0.5773  0.6490 -1.3730
10758TIP3    H253766   1.149   3.155   3.996 -0.9242 -1.0687  1.0943
10759TIP3   OH253767   4.352   5.324   1.530 -0.2725 -0.5951 -0.3525
10759TIP3    H153768   4.381   5.356   1.615 -3.3523 -1.4134  1.1572
10759TIP3    H253769   4.298   5.394   1.494 -1.2755 -1.3261 -0.3062
10760TIP3   OH253770   1.862   4.056   3.170 -0.3193 -0.7042 -0.3623
10760TIP3    H153771   1.950   4.081   3.142 -0.1372  1.5129  1.8447
10760TIP3    H253772   1.855   4.090   3.259 -2.1276 -4.0946  0.9480
10761TIP3   OH253773   5.388   6.066  12.822  0.3443  0.1186 -0.0997
10761TIP3    H153774   5.404   5.979  12.858 -0.2318 -0.0531 -0.2361
10761TIP3    H253775   5.466   6.086  12.770  0.9767  0.1769  0.8594
10762TIP3   OH253776   5.629   1.754  12.093  0.4664  0.3723 -0.4000
10762TIP3    H153777   5.636   1.708  12.010  1.2955 -0.3481  0.0454
10762TIP3    H253778   5.552   1.809  12.084 -2.0088 -2.7721 -0.1719
10763TIP3   OH253779   6.391   5.446  16.772 -0.5688 -0.4112  0.3919
10763TIP3    H153780   6.306   5.454  16.815 -1.0606 -2.1089 -0.1794
10763TIP3    H253781   6.382   5.497  16.692 -0.9230 -0.2874  0.5080
10764TIP3   OH253782   3.927   1.940   3.461  0.2385 -0.4222 -0.2025
10764TIP3    H153783   3.871   1.932   3.384 -0.4582  0.1085  0.2331
10764TIP3    H253784   4.016   1.936   3.427 -0.0598 -0.1629 -1.0335
10765TIP3   OH253785   6.514   3.809  10.311 -0.2002  0.5443 -0.0378
10765TIP3    H153786   6.515   3.895  10.269 -0.7495  1.6815  2.1011
10765TIP3    H253787   6.584   3.814  10.376  0.0524 -0.8173 -0.1811
10766TIP3   OH253788   0.336   4.584  12.564 -0.4521 -0.1320 -0.6659
10766TIP3    H153789   0.363   4.557  12.476  0.6854 -0.3033 -0.2925
10766TIP3    H253790   0.309   4.675  12.553  1.3053  0.4090 -0.9302
10767TIP3   OH253791   4.920   3.639   1.196  0.1421 -0.3308  0.5649
10767TIP3    H153792   4.976   3.580   1.144  2.1063  1.0265  1.0234
10767TIP3    H253793   4.921   3.722   1.148 -1.3985 -0.2116  0.6806
10768TIP3   OH253794   1.051   6.596  15.747  0.1845 -0.2884 -0.1462
10768TIP3    H153795   1.037   6.653  15.823 -2.3189  1.0282 -1.4827
10768TIP3    H253796   1.062   6.509  15.784  1.3461  0.6220  1.8203
10769TIP3   OH253797   4.625   5.802   4.529 -0.3607  0.4656 -0.4946
10769TIP3    H153798   4.719   5.810   4.546 -0.5226 -0.6573  1.1964
10769TIP3    H253799   4.604   5.712   4.555 -2.1088  1.0514  0.2805
10770TIP3   OH253800   4.661   0.958  13.692 -0.3693  0.0484  0.1450
10770TIP3    H153801   4.731   0.940  13.754 -0.0487  0.4535 -0.0951
10770TIP3    H253802   4.617   0.874  13.679 -1.3990  0.2207  2.0827
10771TIP3   OH253803   4.943   1.583   3.201 -0.5661  0.0153 -0.3224
10771TIP3    H153804   4.988   1.661   3.168 -1.5491 -0.3189 -2.6702
10771TIP3    H253805   4.850   1.608   3.201 -0.8377 -0.9488 -0.5849
10772TIP3   OH253806   4.115   0.164  15.288 -0.6454 -0.9159  0.0364
10772TIP3    H153807   4.164   0.184  15.368 -1.9984 -1.5539  1.0700
10772TIP3    H253808   4.110   0.248  15.242  0.8442 -0.7160  0.2101
10773TIP3   OH253809   6.313   4.809   1.351  0.1782  0.0868 -0.2051
10773TIP3    H153810   6.221   4.829   1.365 -0.2587  0.0199 -2.5845
10773TIP3    H253811   6.331   4.836   1.261  1.7409 -2.4434 -0.7628
10774TIP3   OH253812   2.641   0.294  13.400  0.3109 -0.7797 -0.5588
10774TIP3    H153813   2.631   0.285  13.305  1.5951 -1.5414 -0.6379
10774TIP3    H253814   2.594   0.375  13.421  0.0564 -0.5714 -1.8497
10775TIP3   OH253815   1.755   3.316   3.148 -0.5406 -0.1384 -0.2720
10775TIP3    H153816   1.694   3.307   3.221  0.5172 -1.4518  0.4904
10775TIP3    H253817   1.709   3.371   3.085 -1.8083  0.3406  1.0222
10776TIP3   OH253818   2.393   1.683   2.044  0.3017  0.6073  0.0774
10776TIP3    H153819   2.473   1.724   2.012  0.3107  0.9504  0.5250
10776TIP3    H253820   2.372   1.617   1.979  0.6157  0.9255 -0.3494
10777TIP3   OH253821   4.422   1.832   4.314  0.2358  0.0430  0.1382
10777TIP3    H153822   4.418   1.787   4.398  0.5563 -3.1276 -1.4212
10777TIP3    H253823   4.508   1.874   4.312  0.5752 -0.6039  1.0212
10778TIP3   OH253824   5.945   5.580  11.032  0.1026  0.5080  0.2354
10778TIP3    H153825   5.926   5.648  11.097  0.1498 -0.5541  1.3764
10778TIP3    H253826   5.900   5.502  11.065 -1.4448  0.3748 -1.9482
10779TIP3   OH253827   5.523   2.517   0.972  0.3603 -0.5726 -0.4048
10779TIP3    H153828   5.506   2.608   0.946 -0.0055 -1.3693 -3.3828
10779TIP3    H253829   5.616   2.514   0.992  0.1952  0.6231  0.6343
10780TIP3   OH253830   0.183   4.559  13.767 -0.0298 -0.6909  0.0013
10780TIP3    H153831   0.219   4.642  13.738  0.7807 -1.2492 -0.6346
10780TIP3    H253832   0.232   4.493  13.719 -0.6366 -1.5461  0.5153
10781TIP3   OH253833   2.840   0.068  12.898 -0.5588  0.2271  0.0930
10781TIP3    H153834   2.907  -0.000  12.900 -0.2224  0.5761  1.4208
10781TIP3    H253835   2.771   0.036  12.956  0.2488  1.6124  1.9159
10782TIP3   OH253836   6.238   2.833   0.768  0.0538 -0.5307  0.3903
10782TIP3    H153837   6.168   2.781   0.727  0.7610  0.8461 -2.8910
10782TIP3    H253838   6.317   2.781   0.756  0.2934 -0.0426 -0.2365
10783TIP3   OH253839   2.506   5.852   5.048 -0.1794  0.0563 -0.0966
10783TIP3    H153840   2.531   5.879   4.960  3.6931 -1.4196  0.3352
10783TIP3    H253841   2.499   5.933   5.098  2.2314  0.7800 -0.8138
10784TIP3   OH253842   2.381   6.004  11.947  0.1945  0.0651  0.0548
10784TIP3    H153843   2.411   6.071  12.009  1.4064  0.7086 -1.1618
10784TIP3    H253844   2.405   6.039  11.861 -1.4192 -0.8105 -0.7951
10785TIP3   OH253845   2.709   5.653   5.770  0.2059  0.6086 -0.6206
10785TIP3    H153846   2.691   5.747   5.764  3.3975  1.4037 -0.0569
10785TIP3    H253847   2.668   5.625   5.852 -0.3411  1.6431 -0.5325
10786TIP3   OH253848   2.608   2.476  12.915 -0.2777  0.0359 -0.2012
10786TIP3    H153849   2.574   2.565  12.904  3.3576  1.4620 -1.3589
10786TIP3    H253850   2.574   2.428  12.839 -1.4615  0.6705 -0.0977
10787TIP3   OH253851   4.910   5.365  13.332  0.0693  0.1300  0.0517
10787TIP3    H153852   4.824   5.386  13.365  0.0184 -0.2274  0.1501
10787TIP3    H253853   4.945   5.301  13.393 -0.3339 -1.1242 -0.9790
10788TIP3   OH253854   6.076   1.610  13.042 -0.5268 -0.0247 -0.1298
10788TIP3    H153855   6.059   1.542  13.108 -1.3814  0.3940  0.0956
10788TIP3    H253856   6.168   1.633  13.055 -0.0443 -1.5441 -0.6017
10789TIP3   OH253857   2.027   1.483   3.505 -0.2384 -0.0471 -0.6487
10789TIP3    H153858   1.955   1.443   3.456 -0.5361  0.0396 -0.2833
10789TIP3    H253859   2.097   1.418   3.501  0.1924  0.4688 -2.2522
10790TIP3   OH253860   2.739   6.201   3.017 -0.3017  0.2463  0.8685
10790TIP3    H153861   2.729   6.295   3.028  0.1054  0.1905  1.7806
10790TIP3    H253862   2.681   6.179   2.944 -0.1101  1.2562  0.3993
10791TIP3   OH253863   0.272   2.946  10.784  0.5061  0.1185  0.0111
10791TIP3    H153864   0.265   2.893  10.704 -1.4182  2.6868 -1.7103
10791TIP3    H253865   0.365   2.970  10.788  1.1267 -2.0328  0.0195
10792TIP3   OH253866   2.050   5.848  16.810  0.0144 -0.3293 -0.0025
10792TIP3    H153867   2.049   5.808  16.723 -0.8096 -0.0658 -0.1218
10792TIP3    H253868   2.083   5.937  16.794  1.4976 -0.8048  0.2120
10793TIP3   OH253869   3.892   2.503  12.740  0.1205 -0.2259  0.5080
10793TIP3    H153870   3.814   2.518  12.794 -0.2757 -3.5849  1.0898
10793TIP3    H253871   3.960   2.480  12.803  0.9621  0.3614 -0.1680
10794TIP3   OH253872   2.250   5.734   5.019 -0.5745  0.0786  0.3602
10794TIP3    H153873   2.203   5.794   5.077 -0.1893 -2.1262  3.2021
10794TIP3    H253874   2.342   5.749   5.037 -0.4743 -1.5658  1.4945
10795TIP3   OH253875   0.022   6.795   2.855  0.4342 -0.0620 -0.0126
10795TIP3    H153876   0.020   6.879   2.900  0.4615  0.4349 -0.9026
10795TIP3    H253877  -0.055   6.748   2.887 -0.2292  0.7643 -0.3478
10796TIP3   OH253878   4.769   0.350  13.466 -0.6287 -0.1495 -0.5834
10796TIP3    H153879   4.772   0.308  13.552 -0.3503  1.5924  0.2912
10796TIP3    H253880   4.676   0.356  13.446 -0.7203 -0.0879 -0.1547
10797TIP3   OH253881   5.682   4.465   2.824 -0.0700 -0.1493  0.0731
10797TIP3    H153882   5.757   4.471   2.765  0.3852  0.2245  0.6813
10797TIP3    H253883   5.647   4.554   2.828 -2.6070 -0.8665 -2.7999
10798TIP3   OH253884   0.652   4.488  11.345  0.3191 -0.5331 -0.0020
10798TIP3    H153885   0.699   4.435  11.408  0.2182  0.3288  0.8295
10798TIP3    H253886   0.713   4.502  11.273  0.5590 -1.2294  0.0670
10799TIP3   OH253887   4.785   0.197   5.129 -0.1952  0.1938  0.0367
10799TIP3    H153888   4.814   0.107   5.117 -0.4530  0.3793 -2.3158
10799TIP3    H253889   4.825   0.246   5.057 -0.3213  1.9211  1.0667
10800TIP3   OH253890   3.065   1.927  15.588 -0.7422 -0.7096  0.0201
10800TIP3    H153891   3.058   1.841  15.628  1.8110 -1.2482 -0.5632
10800TIP3    H253892   3.103   1.911  15.502  2.9786  1.1461  1.1062
10801TIP3   OH253893   1.017   3.926  13.493  0.3614  0.2640  0.1334
10801TIP3    H153894   1.105   3.914  13.528 -0.4265 -1.2910  1.7790
10801TIP3    H253895   1.018   4.014  13.455  1.7140  1.6390  3.0110
10802TIP3   OH253896   3.293   1.902  16.408 -0.1047 -0.6320  0.4875
10802TIP3    H153897   3.315   1.870  16.321 -0.6235  1.2773 -0.4018
10802TIP3    H253898   3.219   1.848  16.435  0.0885 -1.2746 -0.2425
10803TIP3   OH253899   3.644   0.671   5.068  0.6120 -0.3383  0.2528
10803TIP3    H153900   3.650   0.747   5.126 -0.3323 -0.0468 -0.0229
10803TIP3    H253901   3.625   0.597   5.126 -2.2135  0.2390  0.1966
10804TIP3   OH253902   4.555   0.392   4.815 -0.0164  0.5300  0.8349
10804TIP3    H153903   4.526   0.481   4.836 -0.5339  0.5493  0.0822
10804TIP3    H253904   4.650   0.400   4.806 -0.1892  1.3451 -0.7051
10805TIP3   OH253905   5.498   0.403   1.046 -0.0347  0.1557 -0.4582
10805TIP3    H153906   5.586   0.379   1.017 -0.1688  0.9149 -1.5781
10805TIP3    H253907   5.453   0.427   0.966 -1.5072 -0.9098  0.0102
10806TIP3   OH253908   4.049   1.018  15.491 -0.2640  0.0763  0.3920
10806TIP3    H153909   4.105   0.965  15.434  1.6107  0.3737  1.8900
10806TIP3    H253910   4.068   1.108  15.466  2.0927  0.3334  2.6775
10807TIP3   OH253911   3.145   0.778   0.098 -0.1369  0.1829  0.2330
10807TIP3    H153912   3.058   0.744   0.119 -1.3583  1.8982 -1.7778
10807TIP3    H253913   3.129   0.857   0.048  2.6158  0.6870  0.0005
10808TIP3   OH253914   3.876   4.914  12.746  0.1920  0.7935 -0.4559
10808TIP3    H153915   3.839   4.918  12.658  2.1382 -1.0211 -1.4374
10808TIP3    H253916   3.920   4.998  12.757 -0.3346  1.1657 -1.0732
10809TIP3   OH253917   3.062   0.960   3.711  0.5055  0.0836 -0.3000
10809TIP3    H153918   3.157   0.958   3.718  0.6189  0.2345 -1.5711
10809TIP3    H253919   3.040   0.889   3.651  0.0305  1.4930 -1.8525
10810TIP3   OH253920   1.269   5.027  13.978 -0.3509 -0.0090  0.5117
10810TIP3    H153921   1.342   5.070  14.022 -0.3394  1.2428 -0.6444
10810TIP3    H253922   1.198   5.091  13.982 -0.6139 -0.2197 -0.4741
10811TIP3   OH253923   0.027   1.872  11.351 -0.6739  0.0296 -0.0006
10811TIP3    H153924  -0.044   1.808  11.342  0.5755 -1.2780 -1.1249
10811TIP3    H253925   0.038   1.907  11.263 -0.3170  0.6542  0.2942
10812TIP3   OH253926   0.195   0.771   4.278  0.0776  0.4193 -0.2943
10812TIP3    H153927   0.119   0.825   4.303  0.0312  0.9215 -1.4853
10812TIP3    H253928   0.213   0.719   4.357 -0.9147  0.9673  0.3260
10813TIP3   OH253929   1.692   3.614   0.122 -0.1882  0.3301  0.1322
10813TIP3    H153930   1.666   3.522   0.114  1.0922 -0.0644  0.3190
10813TIP3    H253931   1.704   3.643   0.031  1.5130 -0.3409  0.1035
10814TIP3   OH253932   0.743   1.876  16.232 -0.1792 -0.0140 -0.7329
10814TIP3    H153933   0.734   1.847  16.141 -0.4354  0.4232 -0.8506
10814TIP3    H253934   0.712   1.802  16.284 -0.1542 -0.2183 -1.0046
10815TIP3   OH253935   2.252   5.160  14.646  0.5971 -0.9023  0.1254
10815TIP3    H153936   2.316   5.162  14.717  0.5116  0.3287  0.1809
10815TIP3    H253937   2.171   5.191  14.686  0.4762 -0.4713 -0.4366
10816TIP3   OH253938   4.985   2.086   6.609  0.3919 -0.0791 -0.4200
10816TIP3    H153939   5.055   2.041   6.562 -0.4010 -1.2283 -0.5442
10816TIP3    H253940   5.023   2.107   6.694  1.1370  0.0326 -0.7740
10817TIP3   OH253941   2.935   1.138   2.889 -0.3459  0.0284 -0.6569
10817TIP3    H153942   2.875   1.064   2.900 -0.6417  0.3300 -0.2188
10817TIP3    H253943   2.976   1.149   2.974 -2.5534  2.2998  0.2320
10818TIP3   OH253944   4.042   2.979   3.815  0.0023  0.4024  0.3199
10818TIP3    H153945   4.121   2.937   3.848  0.2732  0.7849  0.1633
10818TIP3    H253946   4.010   2.919   3.747 -0.8707 -0.6710  1.6240
10819TIP3   OH253947   0.504   6.770  16.577 -0.2773  0.1008 -0.0235
10819TIP3    H153948   0.572   6.740  16.637  1.5538  0.7143 -1.6669
10819TIP3    H253949   0.462   6.690  16.546  0.1738 -0.3466  0.4967
10820TIP3   OH253950   1.962   3.377   3.330 -0.0032  0.2017 -0.1510
10820TIP3    H153951   1.992   3.290   3.358  1.5170  0.0755 -2.0099
10820TIP3    H253952   1.895   3.359   3.265 -1.1193  0.4789  0.8797
10821TIP3   OH253953   2.213   6.012   2.874  0.1897  0.4677  0.6237
10821TIP3    H153954   2.186   5.946   2.937 -1.7679  1.0047  0.3980
10821TIP3    H253955   2.212   5.967   2.790  0.0769  0.4680  0.6252
10822TIP3   OH253956   5.682   3.223   5.862 -0.2051  0.0415 -0.1049
10822TIP3    H153957   5.615   3.255   5.922  0.2007 -1.6685  1.3604
10822TIP3    H253958   5.760   3.212   5.917  0.9764  0.9118 -1.5262
10823TIP3   OH253959   2.671   5.193  10.909  0.2344 -0.2398 -0.2958
10823TIP3    H153960   2.642   5.134  10.839 -0.6390 -0.1513 -0.0208
10823TIP3    H253961   2.679   5.136  10.986  0.6050 -0.2272 -0.3266
10824TIP3   OH253962   5.200   6.470   5.533  0.2658 -0.0251  0.2312
10824TIP3    H153963   5.256   6.433   5.602  2.3386  1.7579 -0.3623
10824TIP3    H253964   5.113   6.474   5.572  0.3549 -3.3995  1.0407
10825TIP3   OH253965   3.239   3.416   2.099 -0.4793 -0.0300 -0.0276
10825TIP3    H153966   3.313   3.461   2.141 -1.4077  1.7496 -0.1950
10825TIP3    H253967   3.188   3.486   2.058 -1.2561 -1.4048 -1.5364
10826TIP3   OH253968   4.576   6.781   6.262  0.4638 -0.5613  0.7851
10826TIP3    H153969   4.638   6.794   6.190  0.0831  0.7270  0.6726
10826TIP3    H253970   4.613   6.831   6.335  1.0587 -2.1774  1.6623
10827TIP3   OH253971   5.514   1.518  13.263  0.6225 -0.5318  0.0129
10827TIP3    H153972   5.591   1.554  13.219 -0.6905  0.8534 -1.2698
10827TIP3    H253973   5.517   1.555  13.351  0.0834  1.6665 -0.8348
10828TIP3   OH253974   4.768   1.191   6.827  0.5400 -0.1672  0.3749
10828TIP3    H153975   4.711   1.143   6.767 -0.2825 -1.4302  2.0725
10828TIP3    H253976   4.717   1.199   6.907  0.7124  3.4622  0.2877
10829TIP3   OH253977   1.548   1.683   2.087 -0.0592 -0.5435 -0.3186
10829TIP3    H153978   1.494   1.610   2.119 -0.5536  0.3138  0.8954
10829TIP3    H253979   1.629   1.676   2.137 -0.0045 -0.4198 -0.3919
10830TIP3   OH253980   2.835   2.161   2.322 -0.1237  0.0883  0.3667
10830TIP3    H153981   2.757   2.203   2.359  1.5801  2.6401  1.3564
10830TIP3    H253982   2.852   2.209   2.241  0.5249 -0.3005  0.2638
10831TIP3   OH253983   6.021   5.771  13.288 -0.2366 -0.0519 -0.3391
10831TIP3    H153984   5.939   5.790  13.243 -1.2456 -0.5162  1.2041
10831TIP3    H253985   6.014   5.679  13.314 -0.6771  0.6575  2.4849
10832TIP3   OH253986   3.210   0.039   2.994 -0.0993 -0.4702 -0.2005
10832TIP3    H153987   3.147   0.051   3.065 -1.2534  0.5809 -1.3298
10832TIP3    H253988   3.172  -0.030   2.940  0.9987 -1.5817  0.4137
10833TIP3   OH253989   3.188   4.786  13.063  0.1084 -0.7813  0.3301
10833TIP3    H153990   3.098   4.773  13.033  0.4470 -0.3664 -0.9129
10833TIP3    H253991   3.237   4.810  12.984  0.8670  1.1646  1.3268
10834TIP3   OH253992   0.730   0.445  16.667 -0.1171  0.5054 -0.6746
10834TIP3    H153993   0.809   0.481  16.627  0.7316 -0.6534 -0.1032
10834TIP3    H253994   0.745   0.452  16.761  0.0167 -1.1568 -0.5439
10835TIP3   OH253995   6.168   5.907  16.052  0.6040 -0.1419  0.2202
10835TIP3    H153996   6.213   5.870  16.127  1.0485  0.3442  0.1983
10835TIP3    H253997   6.083   5.934  16.085  0.4434 -0.7728  0.3348
10836TIP3   OH253998   1.368   4.713  13.021 -0.0712 -0.8286  0.3001
10836TIP3    H153999   1.357   4.807  13.037 -0.6429 -1.0413  1.3233
10836TIP3    H254000   1.385   4.676  13.108  2.1565 -1.4415 -0.3309
10837TIP3   OH254001   4.015   5.224  13.960 -0.2948  0.0274 -0.1794
10837TIP3    H154002   3.956   5.250  13.890  0.7372  0.7372 -0.8223
10837TIP3    H254003   4.016   5.299  14.020 -0.2800 -0.1032 -0.0158
10838TIP3   OH254004   2.825   3.565  13.190  0.7665  0.2108 -0.5858
10838TIP3    H154005   2.813   3.648  13.237 -1.2994 -0.5518  0.3159
10838TIP3    H254006   2.817   3.589  13.097 -2.4229  0.7503 -0.2938
10839TIP3   OH254007   6.629   5.731  12.577 -0.0496 -0.3341 -0.0854
10839TIP3    H154008   6.548   5.685  12.594  1.3017 -1.5846  3.9924
10839TIP3    H254009   6.620   5.815  12.622  1.4321 -1.1605  1.8581
10840TIP3   OH254010   4.529   0.259  15.108  0.0452 -0.6667  0.4098
10840TIP3    H154011   4.524   0.287  15.016 -0.9812  0.7067  0.8470
10840TIP3    H254012   4.612   0.297  15.139 -0.1410 -0.1958  0.3411
10841TIP3   OH254013   6.397   5.149   2.413 -0.0301 -0.6876  0.0374
10841TIP3    H154014   6.389   5.056   2.436  1.7107 -1.1246 -0.9314
10841TIP3    H254015   6.482   5.155   2.370 -0.2589  1.3168 -0.1968
10842TIP3   OH254016   1.714   5.215   0.317  0.1544 -0.0957 -0.3118
10842TIP3    H154017   1.635   5.242   0.271 -0.2604 -0.2211  0.3238
10842TIP3    H254018   1.768   5.294   0.321  0.1414 -0.0533 -0.9009
10843TIP3   OH254019   5.265   1.171  15.083  0.0773 -0.3365  0.5291
10843TIP3    H154020   5.283   1.090  15.036  0.6902  0.6559 -1.0332
10843TIP3    H254021   5.212   1.223  15.022 -2.8708 -0.6625  2.5973
10844TIP3   OH254022   0.084   1.204   4.176 -0.1069  0.6653  0.2276
10844TIP3    H154023   0.036   1.123   4.158  0.6396 -0.6974  3.5721
10844TIP3    H254024   0.016   1.268   4.198 -0.6768  0.9399 -2.0295
10845TIP3   OH254025   5.549   2.409   0.177 -0.6610 -0.2932  0.1092
10845TIP3    H154026   5.576   2.445   0.093  0.0489 -1.1084 -0.0174
10845TIP3    H254027   5.566   2.480   0.240  1.3809 -0.6066 -0.0277
10846TIP3   OH254028   0.480   0.315  16.977 -0.1454 -0.0414 -0.5991
10846TIP3    H154029   0.494   0.297  17.070 -0.1573 -1.9196 -0.9351
10846TIP3    H254030   0.426   0.242  16.946 -2.5745  1.9790 -1.4911
10847TIP3   OH254031   6.443   2.750  14.873 -0.0434  0.3319  0.2946
10847TIP3    H154032   6.446   2.746  14.968  0.1882 -1.1698  0.2430
10847TIP3    H254033   6.353   2.774  14.852 -0.6284 -1.2798  0.8566
10848TIP3   OH254034   3.321   1.913   0.096  0.1439 -0.4741 -0.1962
10848TIP3    H154035   3.334   1.859   0.018 -0.2030  0.6892 -1.0829
10848TIP3    H254036   3.380   1.987   0.084  0.1937 -0.3555  0.7268
10849TIP3   OH254037   2.760   4.599   0.134 -0.5193 -0.0966  0.4811
10849TIP3    H154038   2.730   4.509   0.127  2.1116 -0.9426 -1.4325
10849TIP3    H254039   2.824   4.599   0.205 -0.0502  0.1101  0.0645
10850TIP3   OH254040   4.682   4.355   0.538 -0.2983  0.6262 -0.2854
10850TIP3    H154041   4.626   4.421   0.496  0.9520 -0.4467 -4.0183
10850TIP3    H254042   4.629   4.275   0.538 -0.2895  0.6193  0.2158
10851TIP3   OH254043   6.570   3.546   0.753 -0.1718  0.0821 -0.0838
10851TIP3    H154044   6.567   3.466   0.700 -2.3458  0.1208 -0.1442
10851TIP3    H254045   6.655   3.543   0.797  0.9588 -0.8515 -2.1758
10852TIP3   OH254046   3.086   2.751   3.934  0.3165  0.3157  0.3110
10852TIP3    H154047   3.003   2.759   3.981 -0.1746 -1.6549 -0.1281
10852TIP3    H254048   3.062   2.746   3.842  1.0361  1.0453  0.0744
10853TIP3   OH254049   0.658   2.966   2.248  0.0721 -0.1603 -0.0845
10853TIP3    H154050   0.740   3.007   2.220 -0.3957 -0.0043 -1.3084
10853TIP3    H254051   0.598   3.039   2.263  0.4427 -0.2136  1.8900
10854TIP3   OH254052   0.476   1.346   2.123  0.6019 -0.6051  0.3694
10854TIP3    H154053   0.505   1.270   2.173  1.8524 -0.5959 -0.2852
10854TIP3    H254054   0.550   1.407   2.128  0.2725 -0.1210 -0.4798
10855TIP3   OH254055   1.836   1.713  17.066 -0.4235 -0.1626  0.3185
10855TIP3    H154056   1.893   1.661  17.123 -0.0013 -0.2936 -0.2169
10855TIP3    H254057   1.805   1.784  17.121  1.3399  0.6989  0.2671
10856TIP3   OH254058   2.122   6.388  11.605 -0.7578  0.0972 -0.4566
10856TIP3    H154059   2.059   6.327  11.645 -1.4900 -0.8303 -2.8374
10856TIP3    H254060   2.068   6.450  11.556  0.0426  2.1159  1.0674
10857TIP3   OH254061   5.430   0.869   0.565  0.1294  0.0839  0.4555
10857TIP3    H154062   5.350   0.919   0.583  0.4228  0.1765  1.5790
10857TIP3    H254063   5.498   0.914   0.614  0.5168 -1.0630  0.9951
10858TIP3   OH254064   5.572   3.130   0.497  0.1986  0.3614 -0.1960
10858TIP3    H154065   5.489   3.110   0.454  0.7093 -0.4632 -0.8328
10858TIP3    H254066   5.548   3.141   0.589 -0.6687  0.5065 -0.4274
10859TIP3   OH254067   0.204   5.111   0.933 -0.0768 -0.3507 -0.0019
10859TIP3    H154068   0.210   5.133   1.026  0.5440 -1.2095  0.1784
10859TIP3    H254069   0.122   5.062   0.925  0.6746 -1.7397  0.4353
10860TIP3   OH254070   2.150   0.128   4.527 -0.1986  0.0602 -0.1631
10860TIP3    H154071   2.134   0.205   4.471  0.9591  0.8505  0.5455
10860TIP3    H254072   2.234   0.094   4.497 -1.2027 -1.6331 -1.2024
10861TIP3   OH254073   1.687   0.374  13.231 -0.6010  0.8144  0.3221
10861TIP3    H154074   1.640   0.417  13.159 -1.5803  0.4542  0.7299
10861TIP3    H254075   1.729   0.298  13.190 -2.1790 -0.1085  0.3314
10862TIP3   OH254076   5.317   1.733   2.967 -1.1567 -0.1891  0.4242
10862TIP3    H154077   5.378   1.791   3.014 -1.2246  1.6165 -1.5214
10862TIP3    H254078   5.266   1.793   2.912 -1.1465 -2.0960 -1.8288
10863TIP3   OH254079   4.453   2.895   4.811  0.2698  0.0492 -0.1853
10863TIP3    H154080   4.519   2.964   4.810  0.6016 -0.2545  0.2838
10863TIP3    H254081   4.422   2.892   4.902  1.2782 -1.3591  0.1567
10864TIP3   OH254082   6.503   5.643   2.809 -0.1921  0.1523  0.0327
10864TIP3    H154083   6.417   5.634   2.851 -1.0704 -0.9092 -1.9064
10864TIP3    H254084   6.484   5.672   2.720  1.3460 -1.3547 -0.8497
10865TIP3   OH254085   1.475   2.296  11.739 -0.5450  0.1628  0.1504
10865TIP3    H154086   1.452   2.365  11.677 -2.1002  0.3045  0.8416
10865TIP3    H254087   1.491   2.342  11.821  1.7394  0.0036 -0.1394
10866TIP3   OH254088   6.225   0.972   2.149 -0.1601  0.3110  0.2938
10866TIP3    H154089   6.270   1.036   2.204 -0.7259 -0.1154  1.2810
10866TIP3    H254090   6.237   1.005   2.060  1.6557  0.4686  0.5677
10867TIP3   OH254091   6.200   0.813   1.462  0.3571 -0.4379 -0.0128
10867TIP3    H154092   6.182   0.889   1.517 -0.6435 -0.9324  0.3708
10867TIP3    H254093   6.285   0.780   1.493 -0.3740 -0.9490  1.5377
10868TIP3   OH254094   5.237   3.035  15.829 -0.2683 -0.5488  0.2937
10868TIP3    H154095   5.277   2.988  15.903 -0.3965 -1.1270 -0.0019
10868TIP3    H254096   5.176   3.097  15.870 -1.1499 -1.6157  0.6478
10869TIP3   OH254097   4.222   4.881  15.047 -0.1052 -0.1199  0.3807
10869TIP3    H154098   4.237   4.907  14.956 -1.4670 -1.5197 -0.2799
10869TIP3    H254099   4.217   4.964  15.094  2.4149  0.6238 -0.4578
10870TIP3   OH254100   3.274   2.740   5.111 -0.2033  0.3690  0.2074
10870TIP3    H154101   3.270   2.715   5.204  2.1546  1.8837  0.7935
10870TIP3    H254102   3.183   2.731   5.081 -0.6874 -2.2200  2.0473
10871TIP3   OH254103   6.504   4.815   0.755  0.0361 -0.2541 -0.0368
10871TIP3    H154104   6.589   4.825   0.713 -0.1896 -0.5845 -0.5943
10871TIP3    H254105   6.524   4.782   0.842  0.4498 -1.3585 -0.5210
10872TIP3   OH254106   6.134   0.824   3.957 -0.2217  0.2094 -0.1822
10872TIP3    H154107   6.101   0.827   3.868 -2.0726 -0.3108  0.4339
10872TIP3    H254108   6.184   0.742   3.961 -0.4884  0.0212 -0.6274
10873TIP3   OH254109   0.360   3.643   2.936  0.2188  0.2314  0.8550
10873TIP3    H154110   0.300   3.596   2.994 -1.8624  1.2215 -0.3639
10873TIP3    H254111   0.352   3.596   2.852 -0.3149  1.4771  0.1855
10874TIP3   OH254112   4.984   3.681  14.064  0.1996  0.3281 -0.1858
10874TIP3    H154113   4.988   3.777  14.066  0.7170  0.3206  1.7588
10874TIP3    H254114   4.891   3.661  14.057  0.0419  0.9876 -0.0698
10875TIP3   OH254115   6.788   5.991   2.204  0.3883  0.3239 -0.0946
10875TIP3    H154116   6.698   6.019   2.191  0.5039  0.5791 -0.3409
10875TIP3    H254117   6.780   5.903   2.241  0.0253  0.8637  1.1553
10876TIP3   OH254118   0.790   3.674   2.031 -0.0808  0.9574  1.1745
10876TIP3    H154119   0.840   3.696   1.952  1.3041 -0.7218  1.5232
10876TIP3    H254120   0.805   3.747   2.091  1.6241  0.7002  1.0958
10877TIP3   OH254121   1.778   4.699  13.383  0.7471  0.1919 -0.2513
10877TIP3    H154122   1.849   4.646  13.420  1.0904 -0.2894 -1.5559
10877TIP3    H254123   1.821   4.754  13.318  0.1055  0.7946 -0.1736
10878TIP3   OH254124   6.241   3.985  15.391 -0.7038  0.0126 -0.4029
10878TIP3    H154125   6.154   4.025  15.391 -1.9400 -2.4998 -0.2137
10878TIP3    H254126   6.276   4.003  15.478 -1.7826 -0.4109  0.1373
10879TIP3   OH254127   1.441   5.260   4.990 -0.9255  0.2605 -0.1691
10879TIP3    H154128   1.525   5.301   5.007 -1.0812  1.0576 -1.2797
10879TIP3    H254129   1.422   5.211   5.071  0.6703 -0.0903  0.0213
10880TIP3   OH254130   0.937   2.096  15.203  0.5742 -0.3572 -0.6095
10880TIP3    H154131   1.018   2.144  15.185  0.5893 -0.9806 -2.4022
10880TIP3    H254132   0.966   2.021  15.255  1.0805 -0.3117 -0.8143
10881TIP3   OH254133   4.664   1.478   4.357 -0.3232  0.1817  0.0646
10881TIP3    H154134   4.709   1.516   4.281 -0.7009  2.3146  0.8419
10881TIP3    H254135   4.575   1.462   4.326 -0.1796 -0.0185 -0.2500
10882TIP3   OH254136   3.021   5.380   1.468  0.0504  0.3339 -0.8486
10882TIP3    H154137   2.937   5.407   1.504 -0.2876 -2.4684  0.7702
10882TIP3    H254138   2.998   5.327   1.392  0.4181  0.3612 -0.9800
10883TIP3   OH254139   0.927   6.102  10.653 -0.1038  0.2984 -0.6604
10883TIP3    H154140   0.964   6.188  10.672 -0.4802  0.2118  0.5933
10883TIP3    H254141   0.853   6.119  10.595  0.1013  0.7662 -0.7892
10884TIP3   OH254142   3.597   3.575   4.620  0.7464  0.3417 -0.7911
10884TIP3    H154143   3.507   3.595   4.594  0.6990  0.4579 -0.5379
10884TIP3    H254144   3.592   3.489   4.662  0.5096  0.9985  0.5575
10885TIP3   OH254145   1.099   2.941  12.569 -0.7433  0.1542  0.2096
10885TIP3    H154146   1.026   2.884  12.543 -0.1790 -0.9377  0.9231
10885TIP3    H254147   1.057   3.015  12.613 -1.4495 -0.3026  0.3258
10886TIP3   OH254148   5.545   4.543   0.107 -0.1558  0.1012  0.7285
10886TIP3    H154149   5.558   4.468   0.165 -1.8685  0.5652  1.8025
10886TIP3    H254150   5.504   4.505   0.029 -2.2099 -0.0142  1.7755
10887TIP3   OH254151   0.478   1.005  16.119  0.1096 -0.7186  0.4317
10887TIP3    H154152   0.540   1.019  16.047  0.4316 -4.0451 -0.1034
10887TIP3    H254153   0.533   1.003  16.198  0.4244 -1.5520  0.2021
10888TIP3   OH254154   1.736   3.064  14.145  0.2880  0.0977 -0.6794
10888TIP3    H154155   1.767   3.119  14.217 -1.5045  1.5238 -0.9235
10888TIP3    H254156   1.744   2.974  14.177 -0.7602  0.7087  1.4214
10889TIP3   OH254157   0.003   0.030  13.318  0.5294  0.0964 -0.2436
10889TIP3    H154158   0.063  -0.043  13.304  2.7384  1.1993  2.5882
10889TIP3    H254159   0.047   0.085  13.382 -0.7753  4.2560 -2.5816
10890TIP3   OH254160   6.610   2.461   1.066  0.1232  0.3022 -0.3357
10890TIP3    H154161   6.595   2.551   1.095  0.4612 -0.3312  1.9514
10890TIP3    H254162   6.577   2.460   0.976 -0.1040  2.6389 -0.3432
10891TIP3   OH254163   2.879   5.756  13.584  0.1216 -0.4834  0.3349
10891TIP3    H154164   2.880   5.836  13.532 -0.9331 -0.2541  0.6411
10891TIP3    H254165   2.840   5.782  13.667  2.0260 -0.7916  1.3542
10892TIP3   OH254166   5.926   4.123  17.088  0.1770 -0.2966  0.0772
10892TIP3    H154167   5.893   4.210  17.067 -0.2163  0.3857  3.0044
10892TIP3    H254168   6.021   4.132  17.090  0.4768 -1.1015 -3.7756
10893TIP3   OH254169   5.287   2.434  16.150  0.3373 -0.1294 -0.0387
10893TIP3    H154170   5.269   2.507  16.091  0.4741 -0.6132 -0.6850
10893TIP3    H254171   5.221   2.369  16.128  0.6752 -0.4937  0.0293
10894TIP3   OH254172   5.296   1.890  10.710 -0.0075  0.6506 -0.5925
10894TIP3    H154173   5.306   1.797  10.728  1.0454  0.8765  0.1282
10894TIP3    H254174   5.283   1.895  10.615 -0.6616 -0.2573 -0.5615
10895TIP3   OH254175   2.648   2.555   5.046  0.0142 -0.1198  0.1591
10895TIP3    H154176   2.628   2.552   5.139  0.2760 -0.0956  0.2168
10895TIP3    H254177   2.655   2.463   5.019 -0.1903 -0.1287  0.1342
10896TIP3   OH254178   4.880   0.383  15.965 -0.0022  0.3204 -0.1323
10896TIP3    H154179   4.937   0.417  15.895 -0.9288  1.7796 -0.2237
10896TIP3    H254180   4.831   0.312  15.923  0.8386 -0.1232 -0.3941
10897TIP3   OH254181   4.414   6.018   2.046  0.2020 -0.3638  0.0875
10897TIP3    H154182   4.467   6.089   2.081 -0.5997  0.6286 -0.6298
10897TIP3    H254183   4.326   6.055   2.039 -0.0181 -1.0699 -1.3201
10898TIP3   OH254184   0.012   0.744  15.299  0.0916  0.4853  0.2505
10898TIP3    H154185   0.067   0.667  15.316  2.1255  1.9366  0.6136
10898TIP3    H254186   0.074   0.813  15.276 -1.6302  2.1631  0.4162
10899TIP3   OH254187   5.506   1.795  11.132 -0.2416 -0.0201 -0.0616
10899TIP3    H154188   5.535   1.744  11.056 -0.5487 -1.5474  0.7947
10899TIP3    H254189   5.458   1.868  11.095  0.0414 -0.4565 -1.3518
10900TIP3   OH254190   0.978   2.211  10.315  0.1984  0.2838 -0.4009
10900TIP3    H154191   0.931   2.205  10.231  0.8557 -0.0946 -0.7503
10900TIP3    H254192   0.984   2.305  10.332  1.4805  0.4620 -1.6074
10901TIP3   OH254193   5.464   4.243   3.220  0.2185  0.3736  0.1441
10901TIP3    H154194   5.465   4.157   3.261 -0.6667  0.5989  0.6643
10901TIP3    H254195   5.371   4.263   3.210  0.3892  1.7633  1.0942
10902TIP3   OH254196   3.738   3.606  15.951  0.5089 -0.0668 -0.2132
10902TIP3    H154197   3.676   3.563  15.893 -1.4248  1.1398  0.8582
10902TIP3    H254198   3.737   3.554  16.031  2.4658 -1.1880 -0.8463
10903TIP3   OH254199   1.834   2.287  14.479 -0.1286  0.0610  0.4020
10903TIP3    H154200   1.848   2.355  14.545 -1.5181  0.0063  0.7882
10903TIP3    H254201   1.913   2.234  14.481  0.1845  0.5587  1.4449
10904TIP3   OH254202   3.106   1.123  11.861  0.5067 -0.2193  0.6838
10904TIP3    H154203   3.012   1.108  11.874  0.4555  0.9483  1.8440
10904TIP3    H254204   3.115   1.218  11.859  1.7314 -0.3195  1.0048
10905TIP3   OH254205   6.251   1.182   2.804  0.6336 -0.4742  0.2500
10905TIP3    H154206   6.329   1.214   2.759  1.1931 -3.4866 -1.1879
10905TIP3    H254207   6.281   1.162   2.893  1.4678 -1.3123 -0.2039
10906TIP3   OH254208   2.416   2.674  12.401 -0.0032  0.0507  0.1608
10906TIP3    H154209   2.383   2.666  12.312  3.0303  0.9965 -1.1998
10906TIP3    H254210   2.481   2.605  12.409 -1.2280 -0.9474  2.2307
10907TIP3   OH254211   3.874   0.703  11.890 -0.7460 -0.0785 -0.6566
10907TIP3    H154212   3.930   0.627  11.906  0.7014  1.0287 -0.2019
10907TIP3    H254213   3.855   0.738  11.977  0.0857  1.0785 -0.9115
10908TIP3   OH254214   1.226   6.804  15.617  0.1418 -0.0754  0.7048
10908TIP3    H154215   1.271   6.839  15.694 -1.7805  0.4839  1.6246
10908TIP3    H254216   1.133   6.818  15.635 -0.3780 -0.1744 -1.6108
10909TIP3   OH254217   5.007   5.420  16.225 -0.6292 -0.0936  0.0419
10909TIP3    H154218   4.977   5.329  16.221 -1.6285  0.0628  2.4922
10909TIP3    H254219   4.932   5.471  16.195 -0.7594  0.0240  0.5752
10910TIP3   OH254220   2.658   6.124  13.703  0.3729  0.5410 -0.0624
10910TIP3    H154221   2.681   6.035  13.730 -1.4030  0.4702  1.4070
10910TIP3    H254222   2.729   6.178  13.737  0.9860 -0.2068 -0.1244
10911TIP3   OH254223   3.027   0.439   2.744 -0.6765  0.1243  0.1874
10911TIP3    H154224   2.979   0.377   2.689 -1.4127  0.1802  0.7515
10911TIP3    H254225   3.021   0.403   2.833  1.2295 -0.4157  0.1387
10912TIP3   OH254226   5.062   3.396   3.100  0.2923 -0.1123 -0.0629
10912TIP3    H154227   4.996   3.408   3.032 -0.7677 -2.3133  0.4941
10912TIP3    H254228   5.046   3.467   3.162 -2.6790 -1.4234  0.8648
10913TIP3   OH254229   3.037   1.957   5.543  0.3049  0.5704  0.2381
10913TIP3    H154230   3.111   2.015   5.526  0.0781  0.9441  0.5296
10913TIP3    H254231   3.030   1.904   5.464  0.9846  0.4221  0.2674
10914TIP3   OH254232   2.981   4.742   5.011 -0.4040  0.1045 -0.5235
10914TIP3    H154233   3.040   4.701   5.073  0.2670  0.0299 -1.1985
10914TIP3    H254234   2.998   4.836   5.019 -0.3137  0.0943 -0.5981
10915TIP3   OH254235   5.424   6.145  17.103 -0.1367  0.3113 -0.2084
10915TIP3    H154236   5.461   6.069  17.148 -0.9786 -0.0322 -0.0796
10915TIP3    H254237   5.459   6.140  17.015  0.3543  0.1573 -0.0085
10916TIP3   OH254238   4.612   0.945   3.234 -0.0025 -0.1432 -0.1385
10916TIP3    H154239   4.698   0.911   3.209 -0.0280  1.3152 -2.4803
10916TIP3    H254240   4.550   0.888   3.189 -0.1978  0.0411 -0.1034
10917TIP3   OH254241   2.273   2.240   0.517 -0.0473  0.2055 -0.2672
10917TIP3    H154242   2.366   2.234   0.498 -0.6014  0.7710 -4.0024
10917TIP3    H254243   2.265   2.311   0.580  2.1226 -1.4376  2.0477
10918TIP3   OH254244   3.816   1.911   2.826  0.0968 -0.1480 -0.0090
10918TIP3    H154245   3.789   1.870   2.744 -0.9391  1.0389 -0.2838
10918TIP3    H254246   3.745   1.892   2.887  0.3084 -0.0188  0.2810
10919TIP3   OH254247   5.543   6.143  14.584 -0.0213  0.9106 -0.2684
10919TIP3    H154248   5.492   6.183  14.655  0.5858  0.0270  0.6968
10919TIP3    H254249   5.477   6.113  14.521 -0.5477  2.1581 -0.3320
10920TIP3   OH254250   6.452   6.231   1.778 -0.1881  0.1354  0.2017
10920TIP3    H154251   6.467   6.258   1.688 -0.6849 -0.0595  0.0602
10920TIP3    H254252   6.535   6.249   1.823 -0.5418  2.0131  0.1537
10921TIP3   OH254253   5.931   0.990  14.540 -0.2482 -0.0545  0.3739
10921TIP3    H154254   5.980   0.967  14.619  0.5286  0.4003  0.0330
10921TIP3    H254255   5.939   0.913  14.484  1.0116  0.4067 -0.1185
10922TIP3   OH254256   3.460   5.604   0.926 -0.3066  0.8486  0.0676
10922TIP3    H154257   3.473   5.614   1.021  2.7738 -0.4020 -0.0874
10922TIP3    H254258   3.532   5.654   0.887 -2.5652  2.9051 -1.8051
10923TIP3   OH254259   5.986   4.371   3.657  0.6327 -0.1974  0.4719
10923TIP3    H154260   6.055   4.310   3.681  0.5082 -0.6907 -0.3772
10923TIP3    H254261   5.912   4.315   3.633  1.0551  0.2079 -1.9603
10924TIP3   OH254262   0.801   2.759  15.023 -0.0217 -0.7809  0.0851
10924TIP3    H154263   0.859   2.806  14.964  1.7860 -0.2788  2.1649
10924TIP3    H254264   0.823   2.667  15.010  2.1446 -0.5462  1.6439
10925TIP3   OH254265   6.451   3.810   0.066  0.4894 -0.1296  0.6486
10925TIP3    H154266   6.504   3.860   0.127  1.2123 -1.4099  1.1185
10925TIP3    H254267   6.443   3.866  -0.011 -0.1430  1.3711  1.7617
10926TIP3   OH254268   0.465   2.007  16.112 -0.3057 -0.0168  0.0349
10926TIP3    H154269   0.551   1.970  16.132 -0.4769 -1.0572 -1.0420
10926TIP3    H254270   0.447   2.066  16.185  1.1137 -0.1244  0.5098
10927TIP3   OH254271   3.468   2.486   3.541  0.8929  0.3347 -0.3627
10927TIP3    H154272   3.471   2.530   3.456  2.6093  0.2810 -0.3495
10927TIP3    H254273   3.377   2.495   3.569  0.6326  1.6273 -1.5287
10928TIP3   OH254274   0.681   4.399  14.634 -0.2292 -0.6419 -0.1970
10928TIP3    H154275   0.716   4.487  14.641  0.5188 -0.7274 -2.2822
10928TIP3    H254276   0.715   4.354  14.712 -0.7082  0.8975  0.9438
10929TIP3   OH254277   0.496   2.712   0.419  0.2453 -0.0610  0.0268
10929TIP3    H154278   0.455   2.734   0.503  1.5091  2.2772  0.1140
10929TIP3    H254279   0.491   2.792   0.368 -1.1488 -1.6313 -2.4990
10930TIP3   OH254280   2.058   4.458  16.411 -0.4147  0.2366 -0.8083
10930TIP3    H154281   2.141   4.484  16.371  0.1985  2.2519  1.4870
10930TIP3    H254282   2.005   4.538  16.407 -0.5788  0.3171  1.5640
10931TIP3   OH254283   1.781   3.871   6.406 -0.0042  0.9768 -0.0959
10931TIP3    H154284   1.766   3.922   6.327 -1.6682 -1.4256 -1.4506
10931TIP3    H254285   1.694   3.864   6.447  0.0667 -0.9884 -0.1710
10932TIP3   OH254286   1.639   0.147  17.192  0.4298  0.0050 -0.7532
10932TIP3    H154287   1.618   0.209  17.122  0.5556 -1.2031 -1.9060
10932TIP3    H254288   1.568   0.083  17.190  0.0237  0.3761  0.7750
10933TIP3   OH254289   5.861   0.323  11.402  0.3672  0.2554 -0.3675
10933TIP3    H154290   5.787   0.292  11.350 -0.5551 -2.0971  2.1199
10933TIP3    H254291   5.937   0.311  11.345 -0.9689  2.0629 -2.7370
10934TIP3   OH254292   5.055   6.791   4.512 -0.3264  0.0525 -0.0696
10934TIP3    H154293   5.127   6.852   4.524  0.8216 -1.4668  1.2550
10934TIP3    H254294   4.987   6.821   4.572  0.6982 -0.5771  1.4843
10935TIP3   OH254295   0.438   1.044  16.611  0.7278  0.5088  0.1431
10935TIP3    H154296   0.377   1.101  16.657 -0.0865  0.0391 -0.3243
10935TIP3    H254297   0.498   1.013  16.679  1.7109  2.5235  0.2724
10936TIP3   OH254298   3.039   2.700   3.670  0.1761 -0.0473 -0.4727
10936TIP3    H154299   3.025   2.609   3.644  0.6313  0.0298 -1.0236
10936TIP3    H254300   3.057   2.746   3.587  2.3452  0.0797 -0.0020
10937TIP3   OH254301   4.855   0.650   0.952  0.5680 -0.0021  1.1059
10937TIP3    H154302   4.853   0.554   0.949  0.2967 -0.0028 -1.6095
10937TIP3    H254303   4.766   0.675   0.979  0.8128 -0.4874  2.4257
10938TIP3   OH254304   2.954   5.319  16.351 -0.0221 -0.0607 -0.0020
10938TIP3    H154305   3.041   5.279  16.354  0.2111  0.4649  0.4599
10938TIP3    H254306   2.906   5.278  16.423 -0.3309 -0.7268 -0.5764
10939TIP3   OH254307   2.932   4.760  11.872 -0.0544 -0.4697  0.4123
10939TIP3    H154308   2.883   4.799  11.799 -0.6220 -0.4786  0.7777
10939TIP3    H254309   2.914   4.666  11.864  1.2097 -0.6577 -0.3951
10940TIP3   OH254310   3.732   6.771   3.816  0.3028  0.2125  0.0010
10940TIP3    H154311   3.753   6.736   3.729 -1.8225  1.1290 -0.9700
10940TIP3    H254312   3.702   6.694   3.866  0.3064 -0.1250 -0.5087
10941TIP3   OH254313   2.717   4.578   4.133 -0.1137  0.1923 -0.2703
10941TIP3    H154314   2.771   4.633   4.076  1.8414 -1.7649 -0.4011
10941TIP3    H254315   2.628   4.612   4.120  1.0818  4.1818  0.7269
10942TIP3   OH254316   3.690   6.256   5.191 -0.5413  0.2370  0.3104
10942TIP3    H154317   3.674   6.309   5.270  0.3823  1.5127 -0.3374
10942TIP3    H254318   3.661   6.168   5.216 -1.8726  0.9687  1.5044
10943TIP3   OH254319   6.515   1.748   3.685  0.8091  0.4639 -0.0752
10943TIP3    H154320   6.490   1.830   3.642  1.9149  1.2551  0.7049
10943TIP3    H254321   6.468   1.750   3.768  2.1049  1.1615  0.6783
10944TIP3   OH254322   1.176   3.566  15.803  0.3081 -0.1697  0.0518
10944TIP3    H154323   1.223   3.565  15.886 -1.6130 -0.2400  1.2044
10944TIP3    H254324   1.108   3.499  15.814  0.2099 -0.3928 -1.7054
10945TIP3   OH254325   3.036   0.398  15.871  0.3911 -0.0465  0.5917
10945TIP3    H154326   3.128   0.385  15.848  0.3912  0.7912  0.0330
10945TIP3    H254327   3.025   0.354  15.955  1.0196 -1.1151  0.1273
10946TIP3   OH254328   0.679   0.887   6.373  0.6662  0.1974  0.7601
10946TIP3    H154329   0.648   0.967   6.416  2.0725  0.5572  1.1815
10946TIP3    H254330   0.610   0.865   6.310 -0.0165  1.4103  1.0420
10947TIP3   OH254331   3.424   6.166  14.661  0.0066 -0.4102  0.2345
10947TIP3    H154332   3.448   6.142  14.572  2.7828  0.1092  0.7422
10947TIP3    H254333   3.390   6.085  14.700 -0.1614 -0.9272 -0.9497
10948TIP3   OH254334   5.164   2.690  17.011  0.2212  0.8220  0.0553
10948TIP3    H154335   5.127   2.607  17.039  0.8306  0.8112  0.8560
10948TIP3    H254336   5.102   2.723  16.945  0.3999 -0.6468 -0.8991
10949TIP3   OH254337   5.537   2.366  11.304 -0.0058  0.3270  0.3620
10949TIP3    H154338   5.509   2.313  11.379 -0.2761  1.2448  0.9216
10949TIP3    H254339   5.468   2.354  11.239  0.6862 -1.2203 -0.1242
10950TIP3   OH254340   0.847   2.322   5.498 -0.1289  0.1677  0.0832
10950TIP3    H154341   0.820   2.345   5.587 -0.3998  0.5648 -0.0995
10950TIP3    H254342   0.833   2.401   5.447 -0.1702 -0.1187 -0.3572
10951TIP3   OH254343   1.090   4.660  17.035 -0.3475 -0.0412 -0.5165
10951TIP3    H154344   0.998   4.669  17.060  0.1924  0.6962  1.3561
10951TIP3    H254345   1.087   4.626  16.945 -2.4419  1.1413 -0.9614
10952TIP3   OH254346   1.463   5.249   4.220  0.2336  0.3914  0.5016
10952TIP3    H154347   1.394   5.315   4.229  0.4135  0.7174 -0.3973
10952TIP3    H254348   1.541   5.290   4.256  0.1467  0.3267  0.7673
10953TIP3   OH254349   1.773   2.900  12.830  0.0258 -0.0788  1.0986
10953TIP3    H154350   1.771   2.995  12.827 -0.4588 -0.1108 -0.1495
10953TIP3    H254351   1.863   2.877  12.804 -0.8930 -0.0053 -2.7353
10954TIP3   OH254352   4.674   3.348   6.470  0.1606 -0.1007 -0.3724
10954TIP3    H154353   4.742   3.317   6.530  0.6087  0.3566 -0.6292
10954TIP3    H254354   4.618   3.405   6.524 -1.1279 -1.9136  0.2896
10955TIP3   OH254355   0.968   3.957   1.927 -0.4998  0.4244 -0.1637
10955TIP3    H154356   0.874   3.971   1.917 -0.4774 -0.3100 -1.6360
10955TIP3    H254357   1.004   3.970   1.840  0.4028 -1.7667 -0.1874
10956TIP3   OH254358   3.927   3.661  13.435 -0.2364  0.1945 -0.4530
10956TIP3    H154359   3.995   3.722  13.407 -0.6708  0.2488 -1.4414
10956TIP3    H254360   3.917   3.678  13.529 -0.8561  2.2011 -0.8291
10957TIP3   OH254361   0.371   2.738  12.660  0.7258 -0.5262 -0.0484
10957TIP3    H154362   0.358   2.798  12.587  1.4138  0.7396  0.8166
10957TIP3    H254363   0.309   2.767  12.727 -0.5330 -2.2340 -0.4209
10958TIP3   OH254364   2.144   4.341   1.657  0.4467 -0.3385 -0.3498
10958TIP3    H154365   2.173   4.250   1.646 -0.2043 -0.3945 -1.9081
10958TIP3    H254366   2.090   4.339   1.736  0.1241 -1.4165 -0.5692
10959TIP3   OH254367   0.319   6.408   4.521 -0.7980 -0.7379 -0.3953
10959TIP3    H154368   0.314   6.498   4.552 -1.7554 -0.8778 -0.0982
10959TIP3    H254369   0.316   6.355   4.600  1.7416 -1.0308 -0.4115
10960TIP3   OH254370   2.537   1.002  10.844 -0.4077  0.2508  0.1901
10960TIP3    H154371   2.585   0.990  10.926 -2.8540  1.2791  1.8771
10960TIP3    H254372   2.499   0.916  10.825  1.2967 -0.3527 -0.7065
10961TIP3   OH254373   5.816   4.884  12.011 -0.5442  0.5537 -0.1513
10961TIP3    H154374   5.880   4.922  12.072  1.6581  0.0565 -2.0201
10961TIP3    H254375   5.741   4.944  12.015  0.3487  1.6380  1.5100
10962TIP3   OH254376   4.513   6.410  17.117  0.7715 -0.7348  0.2082
10962TIP3    H154377   4.532   6.417  17.210 -0.0161 -1.5323  0.4501
10962TIP3    H254378   4.522   6.317  17.097 -0.4814 -0.8081 -0.1640
10963TIP3   OH254379   6.667   2.382   6.633  0.1550 -0.1756 -0.2355
10963TIP3    H154380   6.705   2.460   6.592 -2.4087  0.4153 -1.7057
10963TIP3    H254381   6.579   2.409   6.659 -0.6383 -2.4363 -0.3651
10964TIP3   OH254382   6.373   5.690  11.297  0.0119 -0.0201 -0.6448
10964TIP3    H154383   6.409   5.622  11.240 -1.1247 -0.9997 -0.2362
10964TIP3    H254384   6.292   5.716  11.254 -0.7044 -0.5563  0.3391
10965TIP3   OH254385   1.930   3.716   0.179  0.1614 -0.2222 -0.5774
10965TIP3    H154386   1.861   3.650   0.183  1.6344 -1.7841  1.5346
10965TIP3    H254387   1.958   3.716   0.088 -1.1950 -1.0537 -1.0336
10966TIP3   OH254388   0.091   2.853   3.786  0.0984  0.5218  0.2017
10966TIP3    H154389   0.007   2.817   3.815 -0.8458  0.9639 -1.7625
10966TIP3    H254390   0.067   2.931   3.735  1.5461 -0.2209 -1.7372
10967TIP3   OH254391   6.277   4.261   2.436 -0.1329 -0.7804 -0.2289
10967TIP3    H154392   6.264   4.167   2.454 -1.5454 -0.5346  0.1737
10967TIP3    H254393   6.228   4.277   2.356  1.7346 -0.7547 -1.4214
10968TIP3   OH254394   0.207   5.774   4.520 -0.6060  0.0500 -0.5056
10968TIP3    H154395   0.274   5.779   4.589  0.5583  1.1765 -1.6612
10968TIP3    H254396   0.163   5.858   4.523 -1.4045 -0.3693 -0.3261
10969TIP3   OH254397   1.947   2.488   2.495 -0.2968 -0.7762  0.2464
10969TIP3    H154398   1.917   2.578   2.489  0.4394 -0.6135 -1.5809
10969TIP3    H254399   1.960   2.473   2.589  1.3862  1.6589  0.4806
10970TIP3   OH254400   2.196   2.730  13.387  0.2513  0.2029 -0.0923
10970TIP3    H154401   2.154   2.796  13.332 -1.2379 -0.0346  0.6858
10970TIP3    H254402   2.275   2.772  13.420  0.9199  0.5083 -1.9918
10971TIP3   OH254403   4.620   2.178  12.937  0.0685  0.3964 -0.7566
10971TIP3    H154404   4.628   2.241  13.008  1.4969 -0.1201 -0.4294
10971TIP3    H254405   4.656   2.222  12.860  1.3916 -0.1041 -0.4515
10972TIP3   OH254406   3.626   1.474   3.917  0.3947  0.1285  0.0817
10972TIP3    H154407   3.591   1.563   3.923  0.5941  0.2852 -0.9905
10972TIP3    H254408   3.586   1.437   3.838  0.6609 -0.5831  0.2703
10973TIP3   OH254409   4.164   0.021  14.052 -0.0074  0.3400  0.1017
10973TIP3    H154410   4.122  -0.044  14.109 -0.4968  1.0056  0.5042
10973TIP3    H254411   4.193   0.090  14.111  0.1252  0.6946 -0.3742
10974TIP3   OH254412   5.909   2.715  10.507  0.1892 -0.3076 -0.0584
10974TIP3    H154413   5.949   2.683  10.426 -0.1567 -0.3920 -0.1991
10974TIP3    H254414   5.825   2.670  10.511 -1.1468  1.8918 -1.2118
10975TIP3   OH254415   0.527   4.724   6.015 -0.0228  0.1366 -0.1844
10975TIP3    H154416   0.508   4.703   6.106 -0.7232 -0.2640 -0.4189
10975TIP3    H254417   0.590   4.796   6.020  0.4323 -0.2972  0.6137
10976TIP3   OH254418   3.644   3.849   1.087 -0.7116  0.3080 -0.5680
10976TIP3    H154419   3.667   3.759   1.111  2.0441  1.3009  0.9719
10976TIP3    H254420   3.614   3.843   0.997 -0.8376 -2.1733 -0.4290
10977TIP3   OH254421   6.380   0.656  15.932 -0.7396  0.5541 -0.1790
10977TIP3    H154422   6.306   0.603  15.903 -1.9020  1.3066  1.2540
10977TIP3    H254423   6.344   0.744  15.940  0.0546  0.7722  1.3986
10978TIP3   OH254424   3.310   1.805   5.784  0.1209 -0.8751 -0.0216
10978TIP3    H154425   3.329   1.725   5.834  1.2724 -0.2210  0.6334
10978TIP3    H254426   3.262   1.860   5.846  0.9909 -0.3201  0.1804
10979TIP3   OH254427   2.716   0.234  11.174 -0.1503 -0.5596 -0.5735
10979TIP3    H154428   2.651   0.254  11.107 -0.5664  2.2761  0.5247
10979TIP3    H254429   2.798   0.266  11.138 -0.3909  1.0607  0.2342
10980TIP3   OH254430   4.464   3.778   5.024  0.7841 -0.1907  0.3478
10980TIP3    H154431   4.503   3.698   4.990  1.0103 -0.1391  0.4857
10980TIP3    H254432   4.477   3.774   5.119 -1.2953 -1.1150  0.6428
10981TIP3   OH254433   3.058   2.691  14.376  0.1820  0.3558  0.2134
10981TIP3    H154434   2.975   2.690  14.328 -0.3187  2.7160  0.9188
10981TIP3    H254435   3.122   2.656  14.314 -1.2425 -1.2354 -0.4473
10982TIP3   OH254436   3.290   2.591   1.462 -0.1175  0.4040  0.1138
10982TIP3    H154437   3.243   2.516   1.424 -0.9083  1.1392 -0.3985
10982TIP3    H254438   3.283   2.577   1.556  0.5833 -0.6682  0.0304
10983TIP3   OH254439   5.416   2.647   2.039 -0.7901  0.2002 -0.3076
10983TIP3    H154440   5.432   2.726   2.090  0.2075 -1.3631  1.9837
10983TIP3    H254441   5.497   2.634   1.990 -0.4648 -0.0198  0.2682
10984TIP3   OH254442   2.966   0.062   4.727  0.2084  0.2519 -0.0588
10984TIP3    H154443   3.057   0.066   4.698 -0.3358  0.0551 -2.0004
10984TIP3    H254444   2.951   0.144   4.775  1.3543  0.3489  0.1457
10985TIP3   OH254445   4.442   0.481  13.153  0.1548 -1.1418 -0.2292
10985TIP3    H154446   4.375   0.543  13.126  0.4472 -0.6681  0.1125
10985TIP3    H254447   4.433   0.407  13.093 -1.1336 -1.4020  0.2591
10986TIP3   OH254448   0.098   3.261  13.789  0.0515 -0.0520 -0.6897
10986TIP3    H154449   0.013   3.244  13.749 -1.5498 -0.6619  2.6301
10986TIP3    H254450   0.121   3.349  13.761 -2.8971  1.1050  0.1519
10987TIP3   OH254451   5.847   5.455  14.608 -0.0731  0.8333 -0.5306
10987TIP3    H154452   5.786   5.499  14.549  1.4074  1.6443 -1.5163
10987TIP3    H254453   5.932   5.493  14.588  0.8719 -0.6645  0.3990
10988TIP3   OH254454   2.187   5.907   2.575  0.1665  0.1080 -0.1508
10988TIP3    H154455   2.173   5.891   2.482 -0.8374 -3.4482  0.4722
10988TIP3    H254456   2.222   5.996   2.579  0.3733  0.3440 -3.8925
10989TIP3   OH254457   1.775   4.860   3.378  0.2707  0.5725 -0.5941
10989TIP3    H154458   1.717   4.935   3.363  0.6034  0.5335 -2.2495
10989TIP3    H254459   1.757   4.801   3.305  0.5292 -0.6494  0.3085
10990TIP3   OH254460   4.091   1.340   2.487  0.2154  0.1320  0.1182
10990TIP3    H154461   3.997   1.320   2.489  0.2768 -0.2451 -0.4331
10990TIP3    H254462   4.097   1.418   2.433  0.2277  0.1096  0.0874
10991TIP3   OH254463   2.823   4.537  13.578 -0.0056  0.2344  0.4859
10991TIP3    H154464   2.914   4.505  13.582 -0.9635 -3.0937 -0.7711
10991TIP3    H254465   2.812   4.586  13.659  2.4147 -0.7667  1.5379
10992TIP3   OH254466   4.068   3.611  16.018  0.1116 -0.0018 -0.1172
10992TIP3    H154467   4.032   3.696  16.045  1.6286  0.6129  0.0772
10992TIP3    H254468   4.077   3.562  16.099  2.4399  0.9693  0.3025
10993TIP3   OH254469   0.275   3.809  13.438  0.5482  0.9401  0.0675
10993TIP3    H154470   0.348   3.757  13.472  1.2727  1.5007 -0.6033
10993TIP3    H254471   0.228   3.837  13.516  1.6739  1.4664  0.5828
10994TIP3   OH254472   5.861   3.407   1.027 -0.0171 -0.3738  0.2657
10994TIP3    H154473   5.933   3.371   0.975  0.8029 -0.9367  1.7354
10994TIP3    H254474   5.899   3.422   1.113 -1.2995  0.6875  0.6857
10995TIP3   OH254475   6.569   1.833  11.151 -0.0258 -0.0720  0.5011
10995TIP3    H154476   6.535   1.747  11.176 -1.6328  0.6891  1.1327
10995TIP3    H254477   6.569   1.883  11.233 -0.5553  0.9596 -0.1063
10996TIP3   OH254478   4.508   4.810  15.381 -0.2977  0.6840  0.2258
10996TIP3    H154479   4.540   4.866  15.311 -1.7105 -0.2954 -1.2899
10996TIP3    H254480   4.560   4.730  15.375 -1.0035  0.2466 -0.3366
10997TIP3   OH254481   2.666   4.315   0.381  0.4484 -0.3719 -0.0255
10997TIP3    H154482   2.652   4.221   0.367 -0.0489 -0.3829  0.5161
10997TIP3    H254483   2.579   4.353   0.377  0.7269  0.1909 -1.0497
10998TIP3   OH254484   1.489   1.009  13.794 -0.6402  0.1286  0.4154
10998TIP3    H154485   1.428   0.974  13.858 -1.3300  0.2187 -0.1839
10998TIP3    H254486   1.571   0.962  13.811 -0.5670  0.7491  1.8935
10999TIP3   OH254487   6.312   5.142   4.412 -0.7683 -0.0147 -0.0586
10999TIP3    H154488   6.275   5.185   4.489 -1.1232  1.0003 -0.7684
10999TIP3    H254489   6.270   5.186   4.338  0.5156 -0.0707 -0.8514
11000TIP3   OH254490   2.135   5.422   5.755 -0.0275 -0.1132 -0.2201
11000TIP3    H154491   2.225   5.421   5.722 -0.3701 -0.7873 -1.1362
11000TIP3    H254492   2.139   5.479   5.832  0.9349  0.8549 -0.9634
11001TIP3   OH254493   2.196   3.021   1.195 -0.7783  0.3118 -0.6023
11001TIP3    H154494   2.263   3.060   1.252  0.3131 -1.3201 -0.6901
11001TIP3    H254495   2.200   2.927   1.214 -1.5476 -0.0726 -2.1781
11002TIP3   OH254496   4.547   5.131  13.922 -0.1183 -0.1228  0.0913
11002TIP3    H154497   4.452   5.120  13.923 -0.0836 -0.5112 -0.3367
11002TIP3    H254498   4.562   5.219  13.888 -0.3217 -0.1518 -0.0716
11003TIP3   OH254499   2.336   1.276   5.417  0.0069 -0.2251  0.5347
11003TIP3    H154500   2.284   1.344   5.374 -1.7657 -2.8715 -1.8148
11003TIP3    H254501   2.425   1.288   5.381 -1.0147 -1.1679 -2.6780
11004TIP3   OH254502   1.977   0.832   6.888  0.5651 -0.5025  0.1401
11004TIP3    H154503   1.890   0.793   6.877  0.7147 -1.0986  0.9837
11004TIP3    H254504   1.972   0.915   6.840 -0.7813 -0.0798  0.9611
11005TIP3   OH254505   2.020   3.395   2.693 -0.2592 -0.3568 -0.1663
11005TIP3    H154506   1.932   3.411   2.659 -1.1670  0.5294  2.3552
11005TIP3    H254507   2.073   3.465   2.657 -0.7082 -0.5331 -1.2096
11006TIP3   OH254508   4.667   3.858   4.681 -0.4456  0.0594  0.0818
11006TIP3    H154509   4.581   3.819   4.695 -0.5759  0.4854  0.5074
11006TIP3    H254510   4.724   3.784   4.660 -0.8636 -0.2543  0.0338
11007TIP3   OH254511   5.238   2.835  12.474  0.2968  0.0240 -0.1083
11007TIP3    H154512   5.159   2.825  12.527 -0.7203 -0.2062 -1.6021
11007TIP3    H254513   5.304   2.782  12.518 -1.4468 -3.0269 -0.8760
11008TIP3   OH254514   5.630   2.908  16.884  0.2125 -0.2965  0.6031
11008TIP3    H154515   5.638   2.950  16.798  1.0128  1.6481  1.5639
11008TIP3    H254516   5.537   2.915  16.905 -0.0125 -0.9138 -0.1529
11009TIP3   OH254517   3.210   5.188  16.374  0.0656 -0.8654 -0.0229
11009TIP3    H154518   3.295   5.193  16.331  0.2199 -0.2537  0.3382
11009TIP3    H254519   3.189   5.094  16.377 -0.2324 -0.8906 -1.9625
11010TIP3   OH254520   0.038   6.730  16.426 -0.7941  0.3194 -0.4904
11010TIP3    H154521   0.060   6.821  16.405  1.5120  0.3025  1.3398
11010TIP3    H254522   0.037   6.685  16.342  2.2878  1.2697 -1.1619
11011TIP3   OH254523   4.851   4.700  14.641  0.0769  0.4522 -0.2021
11011TIP3    H154524   4.841   4.614  14.602  2.6609 -0.0735  0.1106
11011TIP3    H254525   4.781   4.752  14.603 -0.8562 -1.4817 -1.2523
11012TIP3   OH254526   2.079   3.956   0.609 -0.5367  0.3606  0.2317
11012TIP3    H154527   2.127   3.875   0.622 -0.3152  0.5999  0.9059
11012TIP3    H254528   2.003   3.949   0.666 -1.4019 -0.0745 -0.9263
11013TIP3   OH254529   2.672   5.672   0.855  0.3346  0.5489 -0.1624
11013TIP3    H154530   2.760   5.636   0.845 -0.2867 -0.8739 -0.6912
11013TIP3    H254531   2.623   5.637   0.781 -0.3753  2.3670 -0.6180
11014TIP3   OH254532   5.759   2.086   5.446  0.5889 -0.0477  0.0430
11014TIP3    H154533   5.775   2.173   5.480  1.0600 -0.7828  1.8230
11014TIP3    H254534   5.705   2.043   5.512 -0.8851 -0.6668 -1.4753
11015TIP3   OH254535   5.552   6.298   4.051  0.0169  0.2571 -0.5853
11015TIP3    H154536   5.530   6.357   3.978 -0.2458 -1.3836 -1.8912
11015TIP3    H254537   5.640   6.267   4.031  1.3856  2.3204  1.6107
11016TIP3   OH254538   5.817   3.813  16.853  0.7354  0.2274  0.1624
11016TIP3    H154539   5.864   3.729  16.847  0.6468  0.2386 -0.9827
11016TIP3    H254540   5.746   3.805  16.789  1.0298  1.3571 -0.3360
11017TIP3   OH254541   3.375   4.701  16.093 -0.4096 -0.1142 -0.0086
11017TIP3    H154542   3.294   4.747  16.070 -1.3438 -0.6699  1.9753
11017TIP3    H254543   3.354   4.609  16.078 -1.3332 -0.6019  3.4065
11018TIP3   OH254544   1.306   1.312   1.508 -0.2095  0.0113  0.1742
11018TIP3    H154545   1.400   1.326   1.500 -0.3957  0.8818 -0.6737
11018TIP3    H254546   1.297   1.245   1.576  1.0488 -0.7683 -0.3981
11019TIP3   OH254547   6.419   4.727  12.156  0.1615  0.8570 -0.0514
11019TIP3    H154548   6.368   4.754  12.081  0.7032  0.6740 -0.4925
11019TIP3    H254549   6.442   4.808  12.201  1.6588  1.1586 -1.2844
11020TIP3   OH254550   3.362   4.459   0.437  0.2952  0.1297 -0.2040
11020TIP3    H154551   3.436   4.422   0.485 -1.8120 -0.6779  2.7239
11020TIP3    H254552   3.294   4.392   0.443 -2.0608  2.4248  1.0287
11021TIP3   OH254553   2.604   6.502   5.254 -0.3382  0.1676  0.3496
11021TIP3    H154554   2.559   6.445   5.317 -1.0833  1.7131  1.2754
11021TIP3    H254555   2.685   6.456   5.235 -1.3533 -1.7057  0.2407
11022TIP3   OH254556   4.867   1.248  16.589  0.3013  0.1174 -0.1988
11022TIP3    H154557   4.937   1.286  16.641  0.8693  1.6062 -1.9426
11022TIP3    H254558   4.881   1.283  16.501 -1.4311 -1.1806 -1.0518
11023TIP3   OH254559   5.833   4.255  13.311  0.2411  0.5020 -0.0372
11023TIP3    H154560   5.746   4.262  13.272 -0.6155  0.4052  1.7528
11023TIP3    H254561   5.838   4.165  13.342  0.3350  0.9253  1.2466
11024TIP3   OH254562   1.385   1.015  11.535 -0.4136  0.1813 -0.0370
11024TIP3    H154563   1.358   1.041  11.623 -1.0302  0.8314 -0.4043
11024TIP3    H254564   1.356   1.087  11.479  0.0223 -0.1983 -0.7639
11025TIP3   OH254565   6.443   5.751   5.938 -0.5829 -0.1302  0.2309
11025TIP3    H154566   6.403   5.668   5.912 -1.3168  0.3560 -0.1942
11025TIP3    H254567   6.528   5.725   5.975 -0.9354 -1.0968  0.4023
11026TIP3   OH254568   5.293   1.275   2.499  0.4736 -0.2675  0.0150
11026TIP3    H154569   5.320   1.204   2.441 -0.5239  0.5569 -1.4994
11026TIP3    H254570   5.375   1.318   2.523  0.9665 -1.1040 -0.1387
11027TIP3   OH254571   3.335   3.637   4.563 -0.7699 -0.3591 -0.4635
11027TIP3    H154572   3.289   3.635   4.479 -1.6399 -0.7947  0.0033
11027TIP3    H254573   3.266   3.619   4.628 -0.1052 -0.0733  0.3356
11028TIP3   OH254574   2.111   0.529  15.322 -0.0386  0.7313 -0.0810
11028TIP3    H154575   2.153   0.610  15.353  0.6244  0.5064 -0.3601
11028TIP3    H254576   2.084   0.549  15.233  0.7418  0.4377 -0.3927
11029TIP3   OH254577   3.868   5.354  12.107  0.0231 -0.0684  0.3634
11029TIP3    H154578   3.925   5.417  12.063  0.0527  0.1577  0.7156
11029TIP3    H254579   3.828   5.405  12.178  1.4827 -0.9067  1.8533
11030TIP3   OH254580   5.175   0.849  15.538 -0.3126  0.2527  0.1837
11030TIP3    H154581   5.175   0.785  15.467 -1.3450 -0.2815  0.6516
11030TIP3    H254582   5.142   0.929  15.497  1.5013  0.6908 -0.5391
11031TIP3   OH254583   5.864   3.137  15.702  0.9007 -0.3372 -0.2341
11031TIP3    H154584   5.771   3.152  15.722  0.9595  2.0357 -1.4460
11031TIP3    H254585   5.896   3.086  15.777 -0.7319  1.2297  1.6433
11032TIP3   OH254586   6.528   2.429   6.175  0.0457  0.3108  0.2404
11032TIP3    H154587   6.619   2.444   6.201 -0.4211  0.1109  2.1626
11032TIP3    H254588   6.498   2.514   6.142  0.7691  0.5214  0.1222
11033TIP3   OH254589   1.787   5.477   2.296  0.1301 -0.4074  0.2956
11033TIP3    H154590   1.800   5.565   2.330 -0.7509 -0.5942  1.1641
11033TIP3    H254591   1.818   5.481   2.206 -1.6264  1.3079 -0.2891
11034TIP3   OH254592   4.399   2.251  17.122 -0.2967  0.8526  0.3173
11034TIP3    H154593   4.451   2.312  17.173  2.3204 -2.3137  1.7827
11034TIP3    H254594   4.456   2.224  17.050  0.2258 -2.5410  1.8275
11035TIP3   OH254595   5.450   3.881  15.166 -0.6612  0.1460 -0.2050
11035TIP3    H154596   5.519   3.945  15.152  0.3350 -0.7544  0.5017
11035TIP3    H254597   5.457   3.821  15.091 -1.6114  0.8550 -0.8833
11036TIP3   OH254598   2.424   0.967  11.765 -1.1277  0.2888  0.0354
11036TIP3    H154599   2.361   0.993  11.833 -0.3445 -0.9551  1.2908
11036TIP3    H254600   2.414   0.873  11.757  0.8483 -0.0224  0.6076
11037TIP3   OH254601   4.926   2.695  16.868  0.3480 -0.4122 -0.0989
11037TIP3    H154602   4.864   2.649  16.813 -0.1090 -1.9365  1.6040
11037TIP3    H254603   4.872   2.743  16.931  0.7565 -2.6072  2.0913
11038TIP3   OH254604   0.624   4.023   5.571  0.8478 -0.0500 -0.0656
11038TIP3    H154605   0.614   4.115   5.598 -0.7758  0.1226 -1.0847
11038TIP3    H254606   0.634   4.028   5.476 -0.3527 -0.9663 -0.2580
11039TIP3   OH254607   2.241   6.592  13.640  0.4404 -0.6682  0.1523
11039TIP3    H154608   2.232   6.583  13.734 -1.8365 -0.1715  0.0287
11039TIP3    H254609   2.307   6.526  13.616  0.8823 -0.9594  2.0281
11040TIP3   OH254610   2.954   2.839   0.686 -0.1811  1.0459  0.8836
11040TIP3    H154611   2.917   2.853   0.599  0.7874  0.0198  0.2935
11040TIP3    H254612   2.882   2.800   0.736  0.1659 -1.4696 -0.4052
11041TIP3   OH254613   0.333   3.037   3.696  0.1045  0.1090 -0.4948
11041TIP3    H154614   0.244   3.071   3.686 -0.2295 -0.0309  1.5038
11041TIP3    H254615   0.323   2.942   3.692  0.1378  0.0920 -0.2247
11042TIP3   OH254616   1.574   5.033  16.827  0.0019 -0.7205  0.5790
11042TIP3    H154617   1.494   5.032  16.774 -0.4599 -2.7363  1.2351
11042TIP3    H254618   1.633   4.971  16.784  0.7905 -0.1199  0.7590
11043TIP3   OH254619   5.652   5.816  11.525  0.0698 -0.1512 -0.5273
11043TIP3    H154620   5.728   5.758  11.522 -0.4203 -0.8544  0.1931
11043TIP3    H254621   5.680   5.890  11.578 -0.1880 -1.1192  1.0305
11044TIP3   OH254622   3.562   1.540  17.222 -0.2435 -0.1009  0.6381
11044TIP3    H154623   3.474   1.508  17.245 -0.1802 -0.0687  0.9357
11044TIP3    H254624   3.559   1.552  17.128 -0.1289 -1.4448  0.4449
11045TIP3   OH254625   4.197   2.913  12.127  0.0207  0.6218 -0.3309
11045TIP3    H154626   4.197   2.961  12.044 -5.2392 -1.0195 -1.6818
11045TIP3    H254627   4.208   2.822  12.103 -0.0588  0.2375  0.9888
11046TIP3   OH254628   1.307   3.889  16.922 -0.0980 -0.5154  0.1482
11046TIP3    H154629   1.215   3.861  16.916 -0.0258 -0.7889  0.2823
11046TIP3    H254630   1.356   3.807  16.920  0.0670 -0.4798  1.8686
11047TIP3   OH254631   3.607   5.377   0.826  0.3982  0.0108 -0.1182
11047TIP3    H154632   3.539   5.443   0.820 -0.7022 -1.0350  0.3550
11047TIP3    H254633   3.632   5.376   0.919  2.0218  1.2813 -0.4969
11048TIP3   OH254634   4.224   5.172  14.669 -0.1384  0.8384  0.0106
11048TIP3    H154635   4.146   5.220  14.699 -0.9825  1.1197 -2.3963
11048TIP3    H254636   4.266   5.231  14.606  1.3628  0.1896  0.3546
11049TIP3   OH254637   1.883   1.713   3.442  0.6626  0.3786  0.0224
11049TIP3    H154638   1.949   1.643   3.446  1.1814  0.7575 -1.3086
11049TIP3    H254639   1.915   1.779   3.502  1.9502  0.8896 -1.1533
11050TIP3   OH254640   5.219   2.638  15.993 -0.2230  0.3438  0.2547
11050TIP3    H154641   5.267   2.712  15.954  0.7249 -0.6710 -0.5710
11050TIP3    H254642   5.127   2.655  15.971  0.1919  0.2375 -1.7902
11051TIP3   OH254643   5.201   3.867   0.970  0.3612 -0.1463  0.3589
11051TIP3    H154644   5.290   3.896   0.953  0.4317 -0.5443  0.0141
11051TIP3    H254645   5.176   3.820   0.890 -0.5176  0.8334  0.0432
11052TIP3   OH254646   0.309   0.973   4.098  0.4184 -0.7356 -0.5074
11052TIP3    H154647   0.296   0.930   4.183 -0.9808  1.7509  0.6388
11052TIP3    H254648   0.227   0.957   4.051 -0.3567  1.0428  0.1600
11053TIP3   OH254649   1.729   6.703  16.258  0.3136 -0.6551  0.3198
11053TIP3    H154650   1.670   6.755  16.203  1.9556 -1.2223 -2.1644
11053TIP3    H254651   1.674   6.630  16.290 -0.4330 -1.0881 -1.7708
11054TIP3   OH254652   0.340   5.938   3.155 -0.1059 -0.2138  0.5269
11054TIP3    H154653   0.310   5.872   3.218 -0.1490  0.9378  1.7544
11054TIP3    H254654   0.285   5.924   3.078 -0.8476 -0.9074  1.1606
11055TIP3   OH254655   6.619   3.559  16.495 -0.2144 -0.4154  0.0118
11055TIP3    H154656   6.636   3.652  16.478 -1.0596 -0.3371 -0.4223
11055TIP3    H254657   6.593   3.523  16.410 -1.8198 -0.6163  0.5576
11056TIP3   OH254658   3.442   3.249  13.270  0.4848 -0.2762  0.0142
11056TIP3    H154659   3.525   3.282  13.305  1.0283  0.1609 -1.6273
11056TIP3    H254660   3.376   3.308  13.307  1.2450  1.4544 -1.2234
11057TIP3   OH254661   6.423   1.819  15.533 -0.1174  0.1594  0.3164
11057TIP3    H154662   6.340   1.775  15.552  0.1507 -0.2824  0.4852
11057TIP3    H254663   6.483   1.786  15.599 -0.2370  1.8173  1.2903
11058TIP3   OH254664   3.907   3.134  17.218 -0.0614  0.6649  0.4737
11058TIP3    H154665   3.870   3.192  17.151  0.9014 -0.0851 -0.7430
11058TIP3    H254666   4.001   3.135  17.201  0.0757 -0.4532  1.0864
11059TIP3   OH254667   4.951   0.448   0.336 -0.8232  0.2052 -0.5514
11059TIP3    H154668   4.938   0.541   0.355 -1.0089  0.3072 -1.1590
11059TIP3    H254669   5.044   0.441   0.313 -0.5370  0.0404  0.5753
11060TIP3   OH254670   6.027   6.815   2.338  0.5784  0.2266  0.6561
11060TIP3    H154671   6.009   6.722   2.350  0.6289  0.1630  0.2477
11060TIP3    H254672   6.043   6.848   2.426  0.8464 -0.2101  0.7735
11061TIP3   OH254673   0.295   2.379  15.943  0.0050  0.4202  0.2528
11061TIP3    H154674   0.297   2.304  15.883 -1.6382  0.9414 -0.5196
11061TIP3    H254675   0.383   2.415  15.940  0.3461 -0.4520 -0.7144
11062TIP3   OH254676   5.643   3.453   2.346  0.4395  0.1089 -0.6290
11062TIP3    H154677   5.586   3.508   2.399  1.1781  0.9923 -0.7251
11062TIP3    H254678   5.627   3.364   2.378  1.4355  0.6797  1.6177
11063TIP3   OH254679   5.712   5.751  16.685  0.3807  0.0341  0.1661
11063TIP3    H154680   5.805   5.735  16.666 -0.1331 -1.4447 -1.3364
11063TIP3    H254681   5.700   5.845  16.671  1.2143 -0.1076 -1.7725
11064TIP3   OH254682   5.841   3.645   2.410 -0.2662 -0.1273  0.2775
11064TIP3    H154683   5.806   3.635   2.498  0.6518 -2.0545  0.4873
11064TIP3    H254684   5.764   3.646   2.353 -0.8964  1.8448  1.1123
11065TIP3   OH254685   1.601   6.474   4.078  0.6500  0.5941  0.5601
11065TIP3    H154686   1.567   6.504   4.163  0.4588  0.1402  0.6465
11065TIP3    H254687   1.653   6.548   4.046 -0.4569  1.3239  0.3962
11066TIP3   OH254688   5.205   4.367  16.592  0.5001 -0.0577  0.2553
11066TIP3    H154689   5.289   4.383  16.635  0.5150 -1.0445  0.6347
11066TIP3    H254690   5.140   4.375  16.662 -0.0785  3.3928 -0.5247
11067TIP3   OH254691   1.887   3.026   4.421 -0.3066  0.4832 -0.2004
11067TIP3    H154692   1.853   2.982   4.343 -1.5951  2.5811 -0.9014
11067TIP3    H254693   1.872   2.964   4.492  0.8730 -1.4849 -1.5441
11068TIP3   OH254694   0.936   1.216   5.249  0.1640 -0.2696  0.5201
11068TIP3    H154695   0.921   1.308   5.227 -0.8254 -0.2597  1.1483
11068TIP3    H254696   1.024   1.197   5.218 -0.7038  0.0279 -2.4749
11069TIP3   OH254697   4.384   5.848   3.337 -0.0097  0.1545  0.0432
11069TIP3    H154698   4.362   5.880   3.424 -0.2702  0.1806 -0.0306
11069TIP3    H254699   4.457   5.788   3.351  0.4368  0.7318  0.1882
11070TIP3   OH254700   1.434   6.537   5.688 -0.1920 -0.1055  0.2750
11070TIP3    H154701   1.417   6.630   5.676 -1.1162 -0.4053 -0.9174
11070TIP3    H254702   1.348   6.497   5.696  0.1964 -0.8405  1.0337
11071TIP3   OH254703   5.856   6.649  16.800 -0.5370  0.1292  0.5344
11071TIP3    H154704   5.762   6.650  16.816 -0.6193 -0.1190  0.0766
11071TIP3    H254705   5.894   6.687  16.879 -1.1641  3.0089 -0.4156
11072TIP3   OH254706   3.256   5.431  15.200  0.2308  0.2190  0.2935
11072TIP3    H154707   3.278   5.340  15.223 -1.7922 -0.8384 -1.6668
11072TIP3    H254708   3.341   5.476  15.199  1.4786 -1.9820 -0.0926
11073TIP3   OH254709   3.865   3.813  14.509  0.3543 -0.0602  0.0429
11073TIP3    H154710   3.790   3.781  14.558  1.6969 -2.0741  0.8721
11073TIP3    H254711   3.891   3.894  14.554 -0.6965  0.1335  0.3209
11074TIP3   OH254712   2.131   4.492  16.826 -0.0085 -0.4838 -0.3810
11074TIP3    H154713   2.202   4.473  16.764  1.4351  1.6947  0.4850
11074TIP3    H254714   2.051   4.476  16.776  1.0920 -0.0450 -2.4237
11075TIP3   OH254715   1.697   2.901  15.967 -0.0994 -0.2704 -0.5699
11075TIP3    H154716   1.701   2.878  16.059  1.1381 -1.9563 -1.0029
11075TIP3    H254717   1.773   2.957  15.952  0.6886 -1.3888 -0.8888
11076TIP3   OH254718   1.998   1.515   1.633 -0.0739 -0.1203 -0.2715
11076TIP3    H154719   2.003   1.576   1.560 -0.2824 -2.0101 -1.9776
11076TIP3    H254720   2.060   1.549   1.697  0.3278  1.4693 -1.4406
11077TIP3   OH254721   3.688   5.979   5.286 -0.2866 -0.5506  0.0131
11077TIP3    H154722   3.720   5.895   5.255  0.5236  0.2871 -1.5736
11077TIP3    H254723   3.766   6.026   5.315 -0.3840  0.4502 -1.2281
11078TIP3   OH254724   5.384   3.871   3.496  0.2779 -0.0465  0.4056
11078TIP3    H154725   5.432   3.789   3.501 -0.3005 -0.3317  1.3657
11078TIP3    H254726   5.294   3.845   3.479  0.3252  0.4608 -0.7063
11079TIP3   OH254727   5.426   4.383  15.771  0.2080 -0.3250 -0.5739
11079TIP3    H154728   5.429   4.374  15.866  0.5433 -1.8337 -0.7049
11079TIP3    H254729   5.486   4.316  15.738 -0.5711 -0.4359 -1.8702
11080TIP3   OH254730   1.084   6.275  17.025  0.2823  0.1392 -0.0466
11080TIP3    H154731   1.133   6.268  16.943 -0.9196 -1.6714 -0.6654
11080TIP3    H254732   1.089   6.189  17.064 -2.4655 -0.2226 -0.2390
11081TIP3   OH254733   0.548   5.921  17.134  0.4364  0.8608 -0.3147
11081TIP3    H154734   0.561   5.993  17.196 -1.6030 -0.5476  1.9649
11081TIP3    H254735   0.635   5.881  17.126  0.6333  0.4128  2.6898
11082TIP3   OH254736   1.392   5.142   5.216  0.0843  0.5184 -0.5473
11082TIP3    H154737   1.360   5.216   5.267 -2.3367 -1.2559  0.7196
11082TIP3    H254738   1.464   5.107   5.268 -0.5626  0.3753  0.2746
11083TIP3   OH254739   3.925   0.076   4.953 -0.3549 -0.8021 -0.5085
11083TIP3    H154740   3.946   0.052   4.863  1.5379 -0.9770 -0.0514
11083TIP3    H254741   3.903  -0.007   4.996 -0.9398 -0.7579 -0.7105
11084TIP3   OH254742   2.845   4.306  12.743 -0.1371  0.2945 -0.1249
11084TIP3    H154743   2.796   4.238  12.696 -2.3763  0.7990  1.3568
11084TIP3    H254744   2.805   4.388  12.717 -0.6389  0.6693  1.6970
11085TIP3   OH254745   4.348   2.502  12.268  0.3986 -0.0851 -0.2838
11085TIP3    H154746   4.337   2.457  12.351  1.3885  1.1295  0.5543
11085TIP3    H254747   4.423   2.460  12.227  1.4453  0.8713  0.5875
11086TIP3   OH254748   1.783   0.126  13.519  0.1131 -0.0123  0.0352
11086TIP3    H154749   1.876   0.124  13.543 -0.3621  1.2049  2.2508
11086TIP3    H254750   1.759   0.218  13.524 -1.2001 -0.2874 -0.6863
11087TIP3   OH254751   6.343   4.809  13.402 -0.3449  0.1271 -0.2457
11087TIP3    H154752   6.379   4.832  13.487  1.9295  0.7135 -1.2941
11087TIP3    H254753   6.329   4.715  13.405 -2.3156  0.4092  1.4415
11088TIP3   OH254754   5.649   2.383   5.058 -0.3244 -0.4627  0.0743
11088TIP3    H154755   5.729   2.386   5.005  0.4334 -0.0770  1.1960
11088TIP3    H254756   5.585   2.338   5.003  0.4033  0.0023 -1.1861
11089TIP3   OH254757   6.423   2.405  14.707 -0.2785  0.4184  1.1255
11089TIP3    H154758   6.342   2.379  14.751 -1.1892  2.7156  0.9520
11089TIP3    H254759   6.420   2.501  14.706  1.7737  0.5289 -0.1670
11090TIP3   OH254760   6.250   4.255   2.022  0.0049 -0.5330  0.1980
11090TIP3    H154761   6.343   4.275   2.034  0.1701 -1.0891 -0.1438
11090TIP3    H254762   6.206   4.340   2.033  0.3387 -0.5861  2.5165
11091TIP3   OH254763   2.174   1.729   4.487 -0.0724 -0.4984 -0.2514
11091TIP3    H154764   2.090   1.704   4.525 -0.2735 -0.3629 -0.5998
11091TIP3    H254765   2.236   1.722   4.559 -0.9879  3.0907  1.0849
11092TIP3   OH254766   5.993   3.356  12.247 -0.6647  0.1832  0.2625
11092TIP3    H154767   5.985   3.451  12.243  0.5289  0.3283  0.6823
11092TIP3    H254768   5.918   3.327  12.298 -1.0170  0.9100  0.1669
11093TIP3   OH254769   5.854   2.269   1.564  0.3339 -0.3514  0.2342
11093TIP3    H154770   5.898   2.225   1.492 -1.1713 -0.1389 -0.8616
11093TIP3    H254771   5.802   2.201   1.607 -0.5509 -0.0472 -0.3196
11094TIP3   OH254772   5.072   2.245   4.885  0.2279  0.4231  0.3503
11094TIP3    H154773   5.073   2.329   4.838 -1.1883  0.7261  0.8137
11094TIP3    H254774   5.083   2.179   4.816  0.8356  0.9558 -0.0765
11095TIP3   OH254775   5.336   0.425  13.064 -0.3453 -0.2154 -0.1596
11095TIP3    H154776   5.421   0.442  13.105  0.4794  1.0732 -2.2406
11095TIP3    H254777   5.343   0.335  13.032  0.5339  0.0892 -0.8855
11096TIP3   OH254778   2.919   4.115   2.970 -0.3974 -0.0058  0.4165
11096TIP3    H154779   2.938   4.103   2.877 -3.6648  0.4754 -0.4403
11096TIP3    H254780   2.942   4.206   2.988  1.0559 -0.3368  0.3625
11097TIP3   OH254781   1.600   4.988   4.246  0.3679 -0.2659  0.0746
11097TIP3    H154782   1.520   5.041   4.255  0.3875  0.0587 -1.3866
11097TIP3    H254783   1.569   4.899   4.234  0.2879 -0.3626  0.9082
11098TIP3   OH254784   3.044   1.208   0.413 -0.8789  0.4137 -0.0358
11098TIP3    H154785   3.064   1.212   0.319  0.3726 -1.0036  0.1342
11098TIP3    H254786   3.126   1.231   0.455 -1.5940  1.6180  0.7346
11099TIP3   OH254787   5.867   2.595  16.187 -0.0312 -0.3944  0.6382
11099TIP3    H154788   5.945   2.629  16.142 -0.6529 -0.5055 -0.5557
11099TIP3    H254789   5.840   2.520  16.134 -2.6702  1.3850 -0.7560
11100TIP3   OH254790   3.024   6.259   1.144  0.6524  0.2667  0.4073
11100TIP3    H154791   2.965   6.284   1.215 -2.0379 -1.0495 -1.1960
11100TIP3    H254792   3.061   6.175   1.172  0.9524  0.5799  0.9653
11101TIP3   OH254793   3.869   3.769  15.685  0.2843  0.0024 -0.1872
11101TIP3    H154794   3.832   3.742  15.769 -2.0129 -0.7783 -1.3657
11101TIP3    H254795   3.802   3.824  15.645  1.0155 -0.2133 -1.8062
11102TIP3   OH254796   6.222   1.343  14.394  0.2145  0.4405 -0.1145
11102TIP3    H154797   6.306   1.360  14.435  0.0409  2.2337 -0.4186
11102TIP3    H254798   6.165   1.314  14.466  0.3106  2.1258  0.6926
11103TIP3   OH254799   0.182   1.503   3.858  0.0113 -0.6225  0.0705
11103TIP3    H154800   0.244   1.511   3.786  0.4204 -0.1995  0.4630
11103TIP3    H254801   0.096   1.520   3.818  0.3382  0.6585 -0.1133
11104TIP3   OH254802   1.161   0.109  15.175  0.5871  0.0589 -0.0584
11104TIP3    H154803   1.141   0.042  15.240  0.7860  0.8986  0.8925
11104TIP3    H254804   1.213   0.064  15.109  0.1008 -0.8854  0.1934
11105TIP3   OH254805   6.184   1.912   4.381  0.2387 -0.2963 -0.2031
11105TIP3    H154806   6.178   2.003   4.410 -0.2171 -0.3309 -0.1762
11105TIP3    H254807   6.106   1.870   4.419  0.3514 -0.6543 -0.3642
11106TIP3   OH254808   3.392   4.373  13.776  0.2912 -0.2364 -0.2625
11106TIP3    H154809   3.385   4.401  13.685  0.2244 -0.6558 -0.3881
11106TIP3    H254810   3.307   4.394  13.814  0.7951  1.2876  0.0950
11107TIP3   OH254811   3.007   1.033  16.791  0.0552 -0.0828  0.4015
11107TIP3    H154812   2.940   1.100  16.776  0.0336  0.3339  2.1263
11107TIP3    H254813   3.032   1.045  16.883  1.4505 -1.1895  0.1900
11108TIP3   OH254814   4.366   6.240  16.287  0.5077 -0.0196  0.5834
11108TIP3    H154815   4.367   6.240  16.192 -2.0254 -1.4834  0.4489
11108TIP3    H254816   4.457   6.229  16.313  0.9254 -4.3394 -1.8309
11109TIP3   OH254817   0.051   1.126   5.319 -0.0855  0.4440  0.4868
11109TIP3    H154818   0.119   1.066   5.350  0.6479  0.9876 -0.0179
11109TIP3    H254819   0.069   1.209   5.364  0.4623  0.9909 -0.6868
11110TIP3   OH254820   4.326   4.025  15.354 -0.0011 -0.0191 -0.0917
11110TIP3    H154821   4.331   4.119  15.335  0.5743  0.4368  2.0185
11110TIP3    H254822   4.397   3.986  15.304 -0.2562  0.6629 -1.0080
11111TIP3   OH254823   4.252   2.018  12.947  0.4849  0.1858  0.1547
11111TIP3    H154824   4.250   1.923  12.930 -0.4780  0.2586 -0.2130
11111TIP3    H254825   4.282   2.057  12.865  0.6703  0.2115  0.2357
11112TIP3   OH254826   0.661   6.079   5.871  0.1612  0.0946  0.4348
11112TIP3    H154827   0.656   6.130   5.791  2.2631  0.3234  0.4023
11112TIP3    H254828   0.666   6.143   5.941 -1.3141 -0.1077  0.7679
11113TIP3   OH254829   5.898   0.464  13.824  0.4355  0.3088  0.0128
11113TIP3    H154830   5.863   0.466  13.735 -1.5196  0.5275  0.7347
11113TIP3    H254831   5.874   0.549  13.861 -0.3686 -0.4553  1.3082
11114TIP3   OH254832   1.855   5.142  15.829  0.1207  0.2562  0.3217
11114TIP3    H154833   1.768   5.113  15.799  0.0184  0.0368  0.8258
11114TIP3    H254834   1.848   5.143  15.924  0.7356  0.0620  0.3672
11115TIP3   OH254835   4.607   5.501   1.288 -0.3355  0.1285 -0.4273
11115TIP3    H154836   4.627   5.490   1.381  0.6014  1.0175 -0.5052
11115TIP3    H254837   4.534   5.563   1.286 -1.7336 -1.4430 -0.2291
11116TIP3   OH254838   2.608   4.419   6.453 -0.1308  0.3824  0.0762
11116TIP3    H154839   2.604   4.503   6.498 -0.0412 -0.3520  1.5246
11116TIP3    H254840   2.657   4.362   6.512 -1.9277 -1.2393  0.1102
11117TIP3   OH254841   1.768   4.175  11.989  0.2316  0.2332  0.3956
11117TIP3    H154842   1.784   4.185  12.083  1.3925  0.2900  0.2028
11117TIP3    H254843   1.753   4.265  11.958  0.3065  0.2629  0.4455
11118TIP3   OH254844   3.068   6.606   5.975 -0.0804  0.4707 -0.1292
11118TIP3    H154845   3.078   6.518   6.012  0.2300  0.1930 -0.8513
11118TIP3    H254846   3.111   6.601   5.890  0.6818  1.5518  0.1648
11119TIP3   OH254847   0.465   1.407   3.596 -0.4518  0.7707  0.4475
11119TIP3    H154848   0.464   1.340   3.528 -1.5151 -0.3232  1.4890
11119TIP3    H254849   0.459   1.490   3.549 -0.1628  0.0904 -0.8201
11120TIP3   OH254850   6.803   4.345   3.500 -0.4897  0.3307 -0.2140
11120TIP3    H154851   6.780   4.302   3.418 -1.2825  0.4092 -0.0431
11120TIP3    H254852   6.726   4.397   3.522 -0.2503  0.3849  0.5255
11121TIP3   OH254853   0.119   5.773  12.589 -0.9368 -0.5883 -0.4343
11121TIP3    H154854   0.079   5.735  12.668  0.9354 -1.5245  0.1301
11121TIP3    H254855   0.079   5.726  12.516 -0.6585 -1.7230  0.1260
11122TIP3   OH254856   3.826   6.792   0.521  0.0338 -0.1289  0.3008
11122TIP3    H154857   3.826   6.887   0.508 -3.4870 -0.1125 -0.6499
11122TIP3    H254858   3.861   6.756   0.440  2.6982  0.2496  1.1723
11123TIP3   OH254859   6.578   0.700   2.493  0.2906 -0.2923  0.0413
11123TIP3    H154860   6.609   0.614   2.464  0.7822  0.1165 -0.6763
11123TIP3    H254861   6.500   0.681   2.545  2.1556 -1.4332  2.6022
11124TIP3   OH254862   6.393   0.555  16.556 -0.7221  0.2144 -0.2430
11124TIP3    H154863   6.361   0.645  16.561  0.4130  0.7971 -2.2666
11124TIP3    H254864   6.315   0.501  16.568 -2.0038  1.5284 -2.0708
11125TIP3   OH254865   4.383   1.879  16.722  0.8602  0.4543  0.2254
11125TIP3    H154866   4.316   1.931  16.678  2.2911 -0.2687 -3.0662
11125TIP3    H254867   4.358   1.788  16.703  1.8533  0.1351  0.4310
11126TIP3   OH254868   5.344   0.852  13.443  0.5951  0.0379  0.2073
11126TIP3    H154869   5.313   0.935  13.406  2.0428 -0.3937 -2.1743
11126TIP3    H254870   5.322   0.787  13.377  0.6357 -1.3043  1.4778
11127TIP3   OH254871   4.662   1.792  15.207  0.2599 -0.4719  1.2432
11127TIP3    H154872   4.576   1.824  15.231  0.5661  0.2883  1.3519
11127TIP3    H254873   4.709   1.869  15.177  0.3622 -1.1420 -0.4408
11128TIP3   OH254874   5.435   5.946   3.853 -0.4650 -0.0124 -0.0857
11128TIP3    H154875   5.412   5.920   3.942 -0.7291  1.0789  0.1773
11128TIP3    H254876   5.515   5.898   3.834 -0.7435 -0.7242  0.5122
11129TIP3   OH254877   3.050   3.362   3.327 -0.2309 -0.0597 -0.1550
11129TIP3    H154878   2.981   3.363   3.394  1.6830 -0.8268  1.9592
11129TIP3    H254879   3.116   3.422   3.361  0.5274  0.0199 -1.7188
11130TIP3   OH254880   2.521   1.341   0.821  0.0691 -0.4507 -0.4018
11130TIP3    H154881   2.491   1.329   0.731 -0.4011 -2.5126 -0.0423
11130TIP3    H254882   2.448   1.384   0.865 -0.4185 -1.0030 -0.6488
11131TIP3   OH254883   5.346   5.332  12.499 -0.5348 -0.6577  0.0377
11131TIP3    H154884   5.427   5.378  12.478 -1.6848  1.2730 -0.4547
11131TIP3    H254885   5.297   5.330  12.417 -0.3030 -3.4353 -0.1336
11132TIP3   OH254886   4.340   1.188   3.809  0.4674  0.3040 -0.1865
11132TIP3    H154887   4.366   1.249   3.879  0.6591  0.3572 -0.3016
11132TIP3    H254888   4.249   1.166   3.828 -0.5517  2.7953 -1.6768
11133TIP3   OH254889   6.458   4.568   3.951  0.3573  0.2503  0.4077
11133TIP3    H154890   6.374   4.589   3.911  0.0698 -0.8689  0.3931
11133TIP3    H254891   6.437   4.503   4.018  1.2303 -0.1450  0.3118
11134TIP3   OH254892   0.090   3.838  15.825 -0.3885  0.3049  0.3033
11134TIP3    H154893   0.151   3.820  15.896  0.0818 -0.0875 -0.1891
11134TIP3    H254894   0.005   3.812  15.859 -0.1272 -0.1404  0.6265
11135TIP3   OH254895   5.569   2.523   2.682 -0.3888  0.1330  0.1145
11135TIP3    H154896   5.557   2.614   2.710 -1.0922  0.1352 -0.1586
11135TIP3    H254897   5.480   2.487   2.679 -0.2800 -0.0576 -1.4568
11136TIP3   OH254898   6.111   0.412   3.241  0.1825  0.6837 -0.3017
11136TIP3    H154899   6.020   0.411   3.213  0.5064  0.8507 -1.4048
11136TIP3    H254900   6.157   0.358   3.177  0.9656  1.1538 -0.1557
11137TIP3   OH254901   1.752   5.987   3.392 -0.0299 -0.0966  0.0303
11137TIP3    H154902   1.662   6.005   3.419 -0.5080 -1.3604 -0.6516
11137TIP3    H254903   1.769   5.898   3.424  0.6801 -0.1852 -0.5663
11138TIP3   OH254904   4.552   5.435   0.716  0.1640  0.1547  0.0963
11138TIP3    H154905   4.625   5.373   0.720 -1.1718 -1.5624 -0.8904
11138TIP3    H254906   4.591   5.515   0.679  1.0633 -1.5883 -3.0998
11139TIP3   OH254907   5.434   3.989   0.839 -0.3710 -0.1488 -0.0841
11139TIP3    H154908   5.487   4.054   0.885 -0.1887  0.6250 -1.3430
11139TIP3    H254909   5.491   3.913   0.831 -0.1917 -0.0692  0.4046
11140TIP3   OH254910   2.917   5.068  14.647  0.6473  0.1225  0.0990
11140TIP3    H154911   2.952   4.979  14.648 -1.1308 -0.6219  1.3473
11140TIP3    H254912   2.929   5.099  14.737  0.9480  1.0477 -0.2451
11141TIP3   OH254913   1.666   4.801  11.344 -0.3595 -0.0573 -0.0691
11141TIP3    H154914   1.709   4.738  11.401  0.8954 -0.2694 -1.2128
11141TIP3    H254915   1.614   4.748  11.283 -0.1236  0.0577 -0.3748
11142TIP3   OH254916   1.660   5.229   3.567  0.4635 -0.1669 -0.2186
11142TIP3    H154917   1.600   5.274   3.508 -1.1662 -1.4081  0.4051
11142TIP3    H254918   1.734   5.203   3.512 -0.1280  0.3479 -1.2794
11143TIP3   OH254919   2.027   6.623  11.460  0.6481 -0.2422 -0.3435
11143TIP3    H154920   1.954   6.657  11.408  1.2693 -0.2638 -1.2559
11143TIP3    H254921   2.020   6.668  11.544  0.0374  0.3322 -0.6893
11144TIP3   OH254922   3.934   6.232   5.923 -0.4748  0.2951  0.1701
11144TIP3    H154923   3.839   6.216   5.926 -0.0290 -2.9540  1.9043
11144TIP3    H254924   3.957   6.253   6.014  0.4324  1.4745 -0.3197
11145TIP3   OH254925   3.676   4.672   4.890 -0.1096  0.3654 -0.8786
11145TIP3    H154926   3.728   4.707   4.962 -1.2782 -0.2420  0.3106
11145TIP3    H254927   3.699   4.579   4.885 -0.6561  0.2190 -0.7220
11146TIP3   OH254928   4.664   3.344   5.371 -0.1159  0.1314 -0.6246
11146TIP3    H154929   4.611   3.287   5.428 -0.6369 -0.1865 -1.4046
11146TIP3    H254930   4.754   3.333   5.402 -0.2560 -0.8739 -0.5478
11147TIP3   OH254931   2.286   3.675   5.978  0.4104  0.2932 -0.2103
11147TIP3    H154932   2.236   3.753   6.003  1.0064  0.4186  0.6297
11147TIP3    H254933   2.342   3.657   6.054 -0.2184 -1.3738 -0.1142
11148TIP3   OH254934   2.419   3.680   1.111  0.0103 -0.5862 -0.0031
11148TIP3    H154935   2.347   3.620   1.092  0.9654 -2.0040  0.5983
11148TIP3    H254936   2.434   3.670   1.205  0.8063 -0.1088 -0.0647
11149TIP3   OH254937   3.001   3.364   3.618  0.2339 -0.0310 -0.2774
11149TIP3    H154938   2.922   3.379   3.670  1.3242 -2.9330  2.5444
11149TIP3    H254939   3.064   3.428   3.652 -0.1034  0.5154 -0.6615
11150TIP3   OH254940   6.162   0.080  10.373  0.6079 -0.1591  0.6387
11150TIP3    H154941   6.252   0.101  10.398  0.1667 -1.2545  3.5534
11150TIP3    H254942   6.128   0.160  10.335  2.6143  0.4524  0.0082
11151TIP3   OH254943   5.326   4.071  12.301 -0.1992 -0.1649 -0.0064
11151TIP3    H154944   5.378   3.991  12.300 -0.4863 -0.3617  0.3093
11151TIP3    H254945   5.382   4.136  12.344 -0.6564 -0.7002  1.4582
11152TIP3   OH254946   5.857   3.346   3.066  0.4733  0.2839  0.5099
11152TIP3    H154947   5.903   3.345   2.982  0.0005  0.6789  0.2370
11152TIP3    H254948   5.788   3.281   3.056  0.4384  0.3070  0.6034
11153TIP3   OH254949   6.694   4.476  11.834 -0.6273 -0.4714 -0.2317
11153TIP3    H154950   6.755   4.531  11.785 -1.6694 -1.4863 -2.8321
11153TIP3    H254951   6.710   4.499  11.926  2.2456  0.7036 -0.9061
11154TIP3   OH254952   6.238   1.104  16.214 -0.3108 -0.1223 -0.3287
11154TIP3    H154953   6.169   1.149  16.166  2.4722  3.5189 -1.3251
11154TIP3    H254954   6.296   1.174  16.244  3.6744 -2.9502 -0.6965
11155TIP3   OH254955   2.514   4.493  15.268 -0.7055 -0.6990 -0.2218
11155TIP3    H154956   2.507   4.415  15.212  1.0283 -1.5746  0.6906
11155TIP3    H254957   2.604   4.522  15.258 -1.5656  1.8691 -1.2995
11156TIP3   OH254958   1.757   2.199  11.931  0.1592 -0.3309 -0.1660
11156TIP3    H154959   1.810   2.275  11.955 -0.1606 -0.3638  0.7041
11156TIP3    H254960   1.667   2.231  11.933  0.1310 -0.2700 -1.6510
11157TIP3   OH254961   1.629   5.160   1.194  0.6839  0.5044 -0.3275
11157TIP3    H154962   1.630   5.083   1.251 -1.6972  1.0333  0.5540
11157TIP3    H254963   1.712   5.205   1.213  2.4465 -2.0507 -1.3213
11158TIP3   OH254964   3.565   5.925  12.419  0.4069 -0.3362  0.1929
11158TIP3    H154965   3.498   5.988  12.393  0.1290 -0.4021  0.7500
11158TIP3    H254966   3.569   5.864  12.345  0.0595 -0.1694  0.0304
11159TIP3   OH254967   5.171   5.051  11.779 -0.2772 -0.5004 -0.3086
11159TIP3    H154968   5.229   5.007  11.717  0.9141 -0.5606  0.8032
11159TIP3    H254969   5.228   5.073  11.853 -1.4810  0.3075  0.4079
11160TIP3   OH254970   5.232   0.491   5.927  0.1973 -0.0449  0.2557
11160TIP3    H154971   5.282   0.409   5.928 -3.0780 -2.2688  2.5576
11160TIP3    H254972   5.240   0.525   6.016 -0.4804  0.8186 -0.0037
11161TIP3   OH254973   3.824   4.219  13.689 -0.1700 -0.5336 -0.4135
11161TIP3    H154974   3.867   4.145  13.647  0.1986 -0.1450 -0.7299
11161TIP3    H254975   3.763   4.253  13.622 -0.5248 -0.7068 -0.1807
11162TIP3   OH254976   4.577   2.232  13.669 -0.1382  0.1927  0.3424
11162TIP3    H154977   4.645   2.299  13.671 -0.9626  1.0175  1.9914
11162TIP3    H254978   4.583   2.196  13.580  3.3805 -0.7854  0.8302
11163TIP3   OH254979   3.111   4.095   5.409 -0.0989  0.0360 -0.2663
11163TIP3    H154980   3.125   4.178   5.364  1.1077  0.4485  0.8013
11163TIP3    H254981   3.182   4.039   5.377 -1.4827 -0.9830 -1.7571
11164TIP3   OH254982   4.814   2.676  13.082 -0.2459 -0.8285  0.3537
11164TIP3    H154983   4.899   2.647  13.049 -0.3398  0.6607 -1.3944
11164TIP3    H254984   4.828   2.691  13.175  1.7022  0.3129 -0.0736
11165TIP3   OH254985   2.556   0.519  14.401  0.2586 -0.0098  0.5414
11165TIP3    H154986   2.544   0.432  14.363  0.8403  0.5846 -1.0845
11165TIP3    H254987   2.634   0.511  14.456  0.1133 -0.5809  0.6761
11166TIP3   OH254988   6.380   2.085  15.473  0.3282  0.2675  0.4003
11166TIP3    H154989   6.384   2.002  15.521  0.9382  1.0502  1.7602
11166TIP3    H254990   6.342   2.062  15.388 -1.1567 -1.1227  1.3709
11167TIP3   OH254991   2.947   2.501   0.474 -0.6461  0.4008  0.4318
11167TIP3    H154992   3.012   2.458   0.419 -0.0830  0.6716  0.8821
11167TIP3    H254993   2.890   2.546   0.412 -0.8744 -0.4645 -0.0108
11168TIP3   OH254994   5.143   0.597  14.087 -0.5673  0.7311  0.0016
11168TIP3    H154995   5.076   0.560  14.145 -2.2880 -0.1920 -2.3934
11168TIP3    H254996   5.131   0.691  14.092 -2.6793  0.5724 -0.9518
11169TIP3   OH254997   6.657   1.276   4.798 -0.1964 -0.2174  0.0125
11169TIP3    H154998   6.575   1.323   4.779 -0.9813 -1.3097  0.6157
11169TIP3    H254999   6.693   1.255   4.712  0.0850  1.2930 -0.2791
11170TIP3   OH255000   4.612   4.180   4.348 -0.5169 -0.0341 -0.2629
11170TIP3    H155001   4.605   4.219   4.261  1.1831 -0.6173 -0.6968
11170TIP3    H255002   4.548   4.109   4.348 -0.4573 -0.0961 -1.0903
11171TIP3   OH255003   3.552   2.971  13.288  0.2547 -0.1211  0.3238
11171TIP3    H155004   3.620   3.013  13.341 -1.5957  0.9282  2.0062
11171TIP3    H255005   3.600   2.913  13.229  2.5892  0.5228  1.4665
11172TIP3   OH255006   1.233   2.282   4.198  0.2061  0.2048 -0.0997
11172TIP3    H155007   1.322   2.316   4.184 -0.6127  2.4560 -0.1312
11172TIP3    H255008   1.207   2.319   4.282 -0.9863  0.1991 -0.4573
11173TIP3   OH255009   6.527   5.026  13.287 -0.4343  0.1108  0.1515
11173TIP3    H155010   6.604   4.983  13.250 -0.3342 -1.5469  2.1208
11173TIP3    H255011   6.467   4.954  13.307 -0.6324  0.9198  2.7978
11174TIP3   OH255012   3.066   6.405   2.343 -0.2563 -0.2133 -0.0206
11174TIP3    H155013   3.076   6.475   2.408  0.3526  2.2588 -2.5659
11174TIP3    H255014   3.144   6.350   2.355 -0.8560 -0.6796  2.1701
11175TIP3   OH255015   0.262   5.336  13.273  0.2939 -1.0820  0.3392
11175TIP3    H155016   0.184   5.304  13.228  0.5692 -1.3714  0.0679
11175TIP3    H255017   0.282   5.419  13.231 -1.9798  0.8630  2.7749
11176TIP3   OH255018   3.830   1.004   0.254 -0.1327 -0.4165  0.2630
11176TIP3    H155019   3.864   0.988   0.166 -0.2765 -1.2626  0.3515
11176TIP3    H255020   3.784   0.923   0.277 -1.1858  0.2596  0.6141
11177TIP3   OH255021   5.343   6.212   5.926  0.0635 -0.0668  0.0598
11177TIP3    H155022   5.406   6.246   5.989  0.1658  0.3661 -0.2717
11177TIP3    H255023   5.316   6.127   5.962  0.9119 -0.3063  0.1485
11178TIP3   OH255024   5.694   1.270   2.408  0.0912 -0.3424 -0.1654
11178TIP3    H155025   5.609   1.251   2.448 -0.5861 -0.3985 -1.5759
11178TIP3    H255026   5.756   1.264   2.480 -0.6086 -3.7754  0.3086
11179TIP3   OH255027   0.307   1.945   2.140  0.5723  0.4406  0.5259
11179TIP3    H155028   0.254   1.995   2.202 -0.0907  0.0377  0.2944
11179TIP3    H255029   0.356   1.884   2.196 -1.3968 -1.1980  0.5735
11180TIP3   OH255030   4.965   2.379   3.811 -0.0253  1.1753  0.0766
11180TIP3    H155031   4.925   2.444   3.869  0.4511  3.5835 -2.0857
11180TIP3    H255032   5.055   2.373   3.842 -0.1995  1.1545  0.5977
11181TIP3   OH255033   3.858   0.537   6.482  0.5525 -0.0142  0.4907
11181TIP3    H155034   3.840   0.443   6.490 -1.9579  0.2727 -0.9578
11181TIP3    H255035   3.911   0.544   6.403  0.9520 -0.2144  0.7350
11182TIP3   OH255036   6.732   1.241  16.758  0.4299 -0.0531 -0.0697
11182TIP3    H155037   6.687   1.251  16.673 -0.4292 -0.5459  0.3114
11182TIP3    H255038   6.797   1.310  16.759 -0.1625  0.5337 -0.7571
11183TIP3   OH255039   2.416   1.148   2.397  0.5181  0.2077 -0.1877
11183TIP3    H155040   2.450   1.156   2.308 -1.8703 -1.5090 -1.3581
11183TIP3    H255041   2.355   1.221   2.406 -0.9706 -0.9125 -0.8646
11184TIP3   OH255042   3.652   3.482   1.757  0.0548  0.1067 -0.0150
11184TIP3    H155043   3.689   3.418   1.697 -0.6040 -1.8244  1.5415
11184TIP3    H255044   3.621   3.431   1.832 -0.9257  2.1951  1.1139
11185TIP3   OH255045   2.034   5.640   5.624  0.5099 -0.4299 -0.0051
11185TIP3    H155046   1.997   5.593   5.549  0.4508 -0.0248 -0.2318
11185TIP3    H255047   2.076   5.572   5.676  0.7201 -0.6885 -0.5035
11186TIP3   OH255048   0.048   3.116   4.690  0.1788  0.1790 -0.6886
11186TIP3    H155049   0.013   3.173   4.758 -1.1687  0.9458 -1.9519
11186TIP3    H255050   0.142   3.114   4.706  0.1131  1.8482  0.0652
11187TIP3   OH255051   4.939   3.852   1.046  0.7608 -0.5154 -0.6723
11187TIP3    H155052   5.026   3.876   1.014  1.0970 -0.1643  0.4276
11187TIP3    H255053   4.894   3.936   1.059  1.4154 -0.4441  1.7798
11188TIP3   OH255054   2.020   5.192  16.631  0.1336  0.5678 -0.0600
11188TIP3    H155055   2.100   5.191  16.683 -0.8522 -0.0403  1.5056
11188TIP3    H255056   2.038   5.255  16.562  1.5793  1.2308  0.8680
11189TIP3   OH255057   2.475   2.004  10.911 -0.3336  0.0199  0.2530
11189TIP3    H155058   2.387   2.022  10.877 -1.2375 -0.8137  2.0421
11189TIP3    H255059   2.484   2.062  10.986  0.8410  0.3960 -0.1590
11190TIP3   OH255060   1.536   4.932  14.344 -0.3978 -0.3319 -0.1574
11190TIP3    H155061   1.443   4.952  14.355  0.1582  1.2978  2.2574
11190TIP3    H255062   1.537   4.841  14.316 -2.7101 -0.5134  0.1132
11191TIP3   OH255063   1.167   4.627  15.377  0.2428 -0.6067  0.2561
11191TIP3    H155064   1.181   4.564  15.448 -2.1756  0.4175  1.7491
11191TIP3    H255065   1.072   4.639  15.374  0.4189  0.6890 -2.0454
11192TIP3   OH255066   0.429   2.434   6.331  0.4035  0.1585  0.3241
11192TIP3    H155067   0.467   2.408   6.415  1.2246 -0.8715 -0.3369
11192TIP3    H255068   0.336   2.448   6.350  0.8048  1.3117  1.6803
11193TIP3   OH255069   4.789   0.625   5.232 -0.5446  0.1429  0.0145
11193TIP3    H155070   4.789   0.717   5.260 -2.0714 -0.1346  1.0093
11193TIP3    H255071   4.697   0.601   5.225 -0.2623 -1.9831  2.1155
11194TIP3   OH255072   3.487   6.792  13.872  0.5995  0.6001 -0.0288
11194TIP3    H155073   3.459   6.712  13.827  0.5520  0.7218 -0.2135
11194TIP3    H255074   3.503   6.855  13.802  1.7777  0.3954  0.0365
11195TIP3   OH255075   5.552   2.620  11.900  0.1945 -0.8827  0.2869
11195TIP3    H155076   5.554   2.533  11.861 -2.9010 -1.3630  0.9780
11195TIP3    H255077   5.524   2.677  11.828 -0.1821 -0.8663  0.4467
11196TIP3   OH255078   4.382   0.154  17.243  0.5996 -0.2688  0.4475
11196TIP3    H155079   4.435   0.208  17.184 -1.5262  0.4206 -0.9584
11196TIP3    H255080   4.445   0.094  17.283  2.3202 -0.1235 -1.7979
11197TIP3   OH255081   4.507   4.257   6.441 -0.1737  0.1405  0.0616
11197TIP3    H155082   4.602   4.268   6.433 -0.0757 -0.9713 -0.4804
11197TIP3    H255083   4.493   4.162   6.435 -1.2333  0.1967  1.1670
11198TIP3   OH255084   5.565   6.334   0.881 -0.2032 -0.1088  0.4903
11198TIP3    H155085   5.618   6.396   0.831 -1.1790 -0.8662 -1.5894
11198TIP3    H255086   5.623   6.260   0.898  0.6550  0.8584  2.0915
11199TIP3   OH255087   1.511   0.746  16.499 -0.3006 -0.2419  0.0545
11199TIP3    H155088   1.540   0.682  16.563  0.5682 -0.2531 -0.3360
11199TIP3    H255089   1.547   0.715  16.416  2.4373  2.0801  0.2091
11200TIP3   OH255090   0.168   6.170  14.351 -0.0656  0.4755 -0.5073
11200TIP3    H155091   0.093   6.171  14.292 -0.6138  0.3924  0.1753
11200TIP3    H255092   0.150   6.098  14.411  1.0324 -0.1705 -0.9230
11201TIP3   OH255093   3.935   1.780  13.120 -0.3387  0.1411 -0.3979
11201TIP3    H155094   3.886   1.829  13.186  1.9094  0.9901  0.7342
11201TIP3    H255095   3.934   1.690  13.152 -1.8496 -0.0314 -0.8572
11202TIP3   OH255096   5.438   1.815   3.607  0.1912 -0.2914  0.1178
11202TIP3    H155097   5.415   1.898   3.647  1.3373  0.5586 -0.9100
11202TIP3    H255098   5.359   1.761   3.615 -0.5287  0.8466  0.8845
11203TIP3   OH255099   2.650   3.658  15.638  0.4011 -0.8445 -0.1422
11203TIP3    H155100   2.721   3.643  15.702  0.2904 -1.5086 -0.1690
11203TIP3    H255101   2.623   3.749  15.654  2.5119  0.0841 -1.3854
11204TIP3   OH255102   4.498   1.005  13.428  0.4863  0.1116 -0.4929
11204TIP3    H155103   4.564   0.946  13.463  0.1989  0.4756  0.7062
11204TIP3    H255104   4.468   1.056  13.503 -0.6466  0.4537 -1.1394
11205TIP3   OH255105   6.217   1.546  16.126 -0.1124 -0.3597 -0.1267
11205TIP3    H155106   6.184   1.479  16.186 -1.0387 -0.7809 -1.0631
11205TIP3    H255107   6.160   1.622  16.141  1.9367  0.8487  2.0794
11206TIP3   OH255108   5.586   0.915  14.216 -0.3746  0.0166 -0.1178
11206TIP3    H155109   5.595   0.837  14.271  0.5767 -0.5598 -1.0536
11206TIP3    H255110   5.676   0.935  14.189 -0.8483  0.1606 -1.6324
11207TIP3   OH255111   4.792   6.021  14.135 -0.6045 -0.5043 -0.1736
11207TIP3    H155112   4.846   5.954  14.179  0.8220 -0.8974 -2.3528
11207TIP3    H255113   4.712   5.975  14.112 -1.1473 -0.4414  1.4235
11208TIP3   OH255114   1.683   2.230  16.658 -0.2447 -0.2290  0.1968
11208TIP3    H155115   1.718   2.279  16.583 -0.9197  0.6596  0.4463
11208TIP3    H255116   1.723   2.143  16.650  0.7294  0.2501 -0.4408
11209TIP3   OH255117   1.822   4.151   3.428 -0.2235 -0.1843  0.5167
11209TIP3    H155118   1.888   4.158   3.497 -0.3247 -0.3176  0.6280
11209TIP3    H255119   1.756   4.216   3.450  0.3639  0.6701 -0.1500
11210TIP3   OH255120   3.037   0.774  13.699 -0.4508 -0.5295 -0.1173
11210TIP3    H155121   3.092   0.852  13.709 -1.1499 -0.1320  0.8031
11210TIP3    H255122   2.948   0.807  13.709 -0.6993 -1.6917  2.2434
11211TIP3   OH255123   2.247   0.715  17.223 -0.6794  0.7034  0.4177
11211TIP3    H155124   2.280   0.794  17.267 -1.7595  1.3975  0.0035
11211TIP3    H255125   2.155   0.732  17.208 -0.2797  0.6791 -2.5324
11212TIP3   OH255126   1.891   0.130   2.713 -0.2842 -0.1319  0.1257
11212TIP3    H155127   1.861   0.136   2.803 -1.4323 -1.2039 -0.1569
11212TIP3    H255128   1.936   0.045   2.708 -1.6958 -0.8731 -0.6844
11213TIP3   OH255129   5.084   0.536  12.162 -0.1275 -0.0684  0.2452
11213TIP3    H155130   5.100   0.604  12.227  2.3658  0.7745 -1.0913
11213TIP3    H255131   5.161   0.480  12.167 -0.7621 -1.0675 -0.7282
11214TIP3   OH255132   6.611   1.521   2.659  0.1630 -0.3572 -0.0701
11214TIP3    H155133   6.693   1.490   2.698  0.1718  0.0747  0.2645
11214TIP3    H255134   6.631   1.610   2.630  0.6343 -1.1798 -2.5252
11215TIP3   OH255135   1.404   0.269  12.175 -0.3526 -0.3525 -0.0756
11215TIP3    H155136   1.437   0.268  12.265  1.6221 -0.9001 -0.7407
11215TIP3    H255137   1.312   0.245  12.183 -0.8942  2.0070  1.9899
11216TIP3   OH255138   1.386   2.388  17.156 -0.3199 -0.4064  0.2615
11216TIP3    H155139   1.337   2.456  17.204  0.0355  0.2708 -0.3181
11216TIP3    H255140   1.417   2.432  17.077  0.2140 -1.1609  0.0399
11217TIP3   OH255141   2.348   1.303  15.427  0.5759 -0.0843  0.1361
11217TIP3    H155142   2.418   1.341  15.479  1.3797 -0.0058 -0.9635
11217TIP3    H255143   2.287   1.376  15.413  1.3089  0.4097 -0.6103
11218TIP3   OH255144   3.840   3.028  13.369  0.2283  0.2082 -0.0258
11218TIP3    H155145   3.865   3.017  13.278 -0.6494 -0.2126 -0.2234
11218TIP3    H255146   3.909   2.983  13.418 -0.2592 -1.1869 -0.5720
11219TIP3   OH255147   0.645   2.420  12.975  0.4951 -1.5049 -0.3090
11219TIP3    H155148   0.655   2.489  13.041 -0.5833  0.5791 -2.1656
11219TIP3    H255149   0.607   2.465  12.900  1.6432 -3.7482 -2.3735
11220TIP3   OH255150   6.281   4.339  11.154  0.0435  0.8009  0.1756
11220TIP3    H155151   6.222   4.385  11.095  0.6145  0.5651 -0.5918
11220TIP3    H255152   6.332   4.281  11.098 -0.5495 -0.6846  1.0867
11221TIP3   OH255153   2.090   2.443   4.170  0.1960 -0.4646  0.1069
11221TIP3    H155154   2.006   2.432   4.216 -0.0940 -1.5550 -0.6333
11221TIP3    H255155   2.117   2.533   4.190 -0.8902 -0.2683  0.7847
11222TIP3   OH255156   0.812   2.197   2.419 -0.6410  0.3333  0.3612
11222TIP3    H155157   0.764   2.272   2.454  0.4658  1.5736 -0.6402
11222TIP3    H255158   0.750   2.154   2.360 -1.6197 -0.1655  1.7282
11223TIP3   OH255159   6.432   1.640   3.937 -0.7891  0.3049 -0.8916
11223TIP3    H155160   6.439   1.549   3.910  1.0487  0.4579 -1.1173
11223TIP3    H255161   6.423   1.637   4.032 -1.2862 -0.1222 -0.9515
11224TIP3   OH255162   5.301   6.315  12.922  0.0832 -0.3319 -0.1765
11224TIP3    H155163   5.323   6.237  12.871 -2.6892 -1.8719  0.7553
11224TIP3    H255164   5.379   6.333  12.974  0.3488 -3.4678  0.7098
11225TIP3   OH255165   0.559   5.631  15.813  0.2713  0.3250  1.0110
11225TIP3    H155166   0.542   5.633  15.907 -0.3021 -2.1367  1.0216
11225TIP3    H255167   0.485   5.679  15.774 -1.1485 -1.2331  1.6842
11226TIP3   OH255168   0.448   1.349   3.193  0.6696  0.4648 -0.6871
11226TIP3    H155169   0.375   1.398   3.155 -0.5158 -0.3415  0.4801
11226TIP3    H255170   0.525   1.380   3.145 -0.5525  0.5822 -2.6685
11227TIP3   OH255171   0.256   4.056  15.154 -0.5345 -0.4845  0.7986
11227TIP3    H155172   0.170   4.091  15.177 -0.3484  1.3907 -1.0258
11227TIP3    H255173   0.305   4.132  15.121  1.0690 -1.8848 -0.2286
11228TIP3   OH255174   0.318   2.615   2.309 -0.0891  0.0904 -0.0444
11228TIP3    H155175   0.372   2.606   2.231  0.5011 -0.6333  0.4381
11228TIP3    H255176   0.374   2.661   2.372  0.2756 -1.3604  0.7296
11229TIP3   OH255177   2.785   0.567  13.872 -0.0222 -0.6594  0.0787
11229TIP3    H155178   2.740   0.651  13.866 -1.1454 -1.0375  2.3117
11229TIP3    H255179   2.875   0.589  13.894  0.1380 -0.0128 -1.1386
11230TIP3   OH255180   2.986   2.586   3.365  0.4081 -0.5444 -0.7321
11230TIP3    H155181   2.927   2.511   3.375  1.0633 -0.9956 -0.1993
11230TIP3    H255182   2.928   2.658   3.338 -0.8865 -0.3125  2.2410
11231TIP3   OH255183   2.051   2.279   5.190  0.3544 -0.3213  0.1199
11231TIP3    H155184   2.007   2.245   5.112  1.8374 -1.3580 -0.3096
11231TIP3    H255185   2.143   2.288   5.164  0.7081  0.2395  1.4663
11232TIP3   OH255186   1.092   3.356  11.641  0.1202 -0.6063  0.3525
11232TIP3    H155187   1.010   3.396  11.610  0.0095 -0.9389  0.2074
11232TIP3    H255188   1.158   3.424  11.630  0.3249 -1.0572 -1.7157
11233TIP3   OH255189   5.841   5.219   1.556  0.5442  0.2147  0.3743
11233TIP3    H155190   5.746   5.208   1.544  0.5961  0.1209  0.0436
11233TIP3    H255191   5.869   5.137   1.596  0.7062 -0.3226 -0.8050
11234TIP3   OH255192   5.707   4.279   3.431 -0.6784 -0.1557  0.3532
11234TIP3    H155193   5.702   4.184   3.421  0.4259 -0.1034 -0.9662
11234TIP3    H255194   5.680   4.294   3.521 -0.7676 -1.7348  0.6291
11235TIP3   OH255195   6.324   2.728   2.703 -0.1166  0.1126  0.4825
11235TIP3    H155196   6.270   2.664   2.657 -0.8597  1.1327 -0.1066
11235TIP3    H255197   6.299   2.718   2.795  0.3573 -0.9668  0.5153
11236TIP3   OH255198   5.726   0.886   0.034  0.1684 -0.2397 -0.0494
11236TIP3    H155199   5.741   0.967   0.083 -0.1379  1.4330 -2.5542
11236TIP3    H255200   5.654   0.843   0.080  0.8103  0.5139  1.7510
11237TIP3   OH255201   1.325   4.528   6.834 -0.3527 -0.0262  0.6830
11237TIP3    H155202   1.246   4.486   6.800 -0.9423  1.7131 -0.1828
11237TIP3    H255203   1.293   4.600   6.888  0.6162 -1.2574  3.0417
11238TIP3   OH255204   2.385   6.169  12.216  0.8418 -0.0355 -0.3382
11238TIP3    H155205   2.390   6.264  12.211  1.2120  0.0001  0.5422
11238TIP3    H255206   2.475   6.142  12.238  0.5335 -0.5177  0.3547
11239TIP3   OH255207   2.951   4.599   3.528  0.3153  0.2957  0.0312
11239TIP3    H155208   2.924   4.522   3.479  0.9947  0.4336 -0.5772
11239TIP3    H255209   2.972   4.566   3.616 -1.0559  0.0748  0.2895
11240TIP3   OH255210   5.105   6.102   0.846  0.6090  0.0554  0.5085
11240TIP3    H155211   5.197   6.082   0.827  0.8014  0.8397  0.5604
11240TIP3    H255212   5.099   6.197   0.834 -0.1097  0.0605  0.8763
11241TIP3   OH255213   5.639   6.716   2.459 -0.0988  0.3066 -0.6377
11241TIP3    H155214   5.727   6.708   2.496 -0.7312  0.8109  1.0281
11241TIP3    H255215   5.603   6.627   2.463 -0.6919  0.6087  1.3721
11242TIP3   OH255216   2.902   2.686  14.587  0.1990  0.0229 -0.3469
11242TIP3    H155217   2.967   2.706  14.520 -0.2374  1.1953 -0.4594
11242TIP3    H255218   2.906   2.761  14.646 -0.2419 -0.4456  0.2860
11243TIP3   OH255219   0.325   6.129  13.682 -0.4136  0.1804 -0.0923
11243TIP3    H155220   0.397   6.080  13.723 -0.9833  0.0639  0.7820
11243TIP3    H255221   0.322   6.095  13.592  0.0509 -0.4520  0.1204
11244TIP3   OH255222   6.368   4.913  11.345 -0.1690  0.8547  0.2986
11244TIP3    H155223   6.415   4.831  11.332 -3.0962 -0.8746 -0.3807
11244TIP3    H255224   6.417   4.958  11.414  0.1255 -2.7356  2.7409
11245TIP3   OH255225   2.110   1.840   2.579 -0.0893  0.0147 -0.1077
11245TIP3    H155226   2.068   1.831   2.493  1.2329  0.3319 -0.8242
11245TIP3    H255227   2.041   1.871   2.637 -0.5838  1.6268 -1.4902
11246TIP3   OH255228   6.319   5.931   6.096  0.3284  0.1154  0.0749
11246TIP3    H155229   6.322   5.900   6.186 -1.0521 -1.2417 -0.2921
11246TIP3    H255230   6.366   5.864   6.046 -2.5204 -1.4873 -0.7029
11247TIP3   OH255231   5.902   4.796   3.991  0.0884 -0.0068  0.3625
11247TIP3    H155232   5.954   4.840   3.924 -2.0869 -0.8932 -2.0657
11247TIP3    H255233   5.922   4.703   3.980 -1.0150 -0.2422  0.2464
11248TIP3   OH255234   0.549   3.940  14.086  0.2899 -0.0251  0.1499
11248TIP3    H155235   0.544   3.965  13.994  0.8562 -2.1849 -0.5413
11248TIP3    H255236   0.607   3.864  14.087 -0.6478 -0.7971  2.1285
11249TIP3   OH255237   3.548   5.415   0.080 -0.4337 -0.1913 -0.5149
11249TIP3    H155238   3.507   5.348   0.025 -1.2651  0.0719 -0.2421
11249TIP3    H255239   3.611   5.367   0.133 -2.0922 -1.0705  0.7884
11250TIP3   OH255240   5.498   3.273   4.419 -0.2644 -0.1752 -0.0206
11250TIP3    H155241   5.552   3.222   4.480  0.4243  0.7500  0.1545
11250TIP3    H255242   5.427   3.308   4.473  0.2236  0.4634  0.2170
11251TIP3   OH255243   1.917   0.270  14.343  0.1655 -0.0124  0.0368
11251TIP3    H155244   1.971   0.221  14.406 -1.0537  1.4853  2.4199
11251TIP3    H255245   1.872   0.202  14.293  1.9652 -1.2805  0.0228
11252TIP3   OH255246   4.452   1.525  15.752  0.5891  0.3438  0.0836
11252TIP3    H155247   4.438   1.587  15.823  0.3594  0.0961  0.2564
11252TIP3    H255248   4.547   1.517  15.746  0.6406  1.1048 -0.2837
11253TIP3   OH255249   5.110   5.820  15.586  0.4385  0.2293 -0.0556
11253TIP3    H155250   5.052   5.768  15.530  0.3902 -0.0667  0.2660
11253TIP3    H255251   5.186   5.763  15.600  1.1557  0.8841 -1.0724
11254TIP3   OH255252   4.283   4.658  11.640  0.2389  0.0079 -0.0909
11254TIP3    H155253   4.223   4.731  11.645  0.5442  0.2823 -0.4321
11254TIP3    H255254   4.286   4.623  11.730 -1.3387 -0.7615 -0.2972
11255TIP3   OH255255   3.669   0.549   4.115 -0.2932  0.0894 -0.0538
11255TIP3    H155256   3.587   0.509   4.145 -0.9295  0.1988 -1.5507
11255TIP3    H255257   3.718   0.477   4.076 -0.7359  0.4268 -1.2914
11256TIP3   OH255258   3.851   3.815   2.453 -0.2533 -0.0743  0.1622
11256TIP3    H155259   3.761   3.845   2.440  0.2472  2.0492  1.2041
11256TIP3    H255260   3.867   3.756   2.380 -2.2908 -0.0697 -0.3644
11257TIP3   OH255261   6.667   6.427  16.142 -0.1909 -0.0137 -0.0623
11257TIP3    H155262   6.691   6.358  16.080 -0.7236  2.3882 -3.2083
11257TIP3    H255263   6.656   6.381  16.226  3.0670 -3.0950 -1.0744
11258TIP3   OH255264   6.560   1.123  15.526  0.1304 -0.4529  0.0164
11258TIP3    H155265   6.623   1.051  15.530 -2.5805 -3.1239 -0.6909
11258TIP3    H255266   6.521   1.125  15.614 -0.1863 -0.2445 -0.1270
11259TIP3   OH255267   4.931   3.811   1.793  0.5030  0.2320  0.2194
11259TIP3    H155268   4.879   3.876   1.745  1.0099  1.9137  1.8541
11259TIP3    H255269   5.018   3.848   1.797  0.8583 -0.6578  1.0453
11260TIP3   OH255270   5.053   3.844  11.166 -0.0019  0.5623  0.3330
11260TIP3    H155271   5.113   3.775  11.136 -0.2684  0.0225  1.0141
11260TIP3    H255272   4.967   3.817  11.134  0.1927  1.7193 -1.2894
11261TIP3   OH255273   0.208   1.964   1.274 -0.2393  0.0176  0.1233
11261TIP3    H155274   0.116   1.951   1.297 -0.5339 -1.2721 -1.5705
11261TIP3    H255275   0.207   2.028   1.204  0.0853 -0.4564 -0.3234
11262TIP3   OH255276   3.581   1.283  13.730 -0.1457 -0.4539  0.1825
11262TIP3    H155277   3.581   1.339  13.653 -1.0932 -1.5614 -0.6665
11262TIP3    H255278   3.657   1.311  13.781  0.2958  0.5328 -0.9812
11263TIP3   OH255279   1.014   4.029   2.537 -0.2994  0.3761  0.2627
11263TIP3    H155280   0.945   4.052   2.475  0.6156  0.8203 -0.6344
11263TIP3    H255281   1.020   4.104   2.596 -0.4113  0.4461  0.1843
11264TIP3   OH255282   6.007   4.703  13.847 -0.9587 -0.0573  0.0453
11264TIP3    H155283   5.952   4.634  13.808 -0.4220 -1.8915  2.3054
11264TIP3    H255284   5.962   4.725  13.929 -0.1503  1.0143  0.2176
11265TIP3   OH255285   6.124   1.340  15.876 -0.2795  0.5115 -0.6520
11265TIP3    H155286   6.081   1.330  15.961  0.8916 -0.0014 -0.0978
11265TIP3    H255287   6.097   1.426  15.845  1.0855  1.7273  1.3189
11266TIP3   OH255288   2.832   2.581  16.393  0.3049  0.4245  0.3688
11266TIP3    H155289   2.880   2.504  16.362  0.5336  1.0436 -0.8941
11266TIP3    H255290   2.861   2.652  16.336 -2.7162  0.6777 -1.0585
11267TIP3   OH255291   3.319   1.247  13.760 -0.7484  0.0611 -0.5079
11267TIP3    H155292   3.308   1.164  13.807 -0.7074  0.7658  0.7869
11267TIP3    H255293   3.413   1.255  13.748 -0.8495 -1.0264 -2.4563
11268TIP3   OH255294   2.780   0.397   2.465  0.2861  0.3148 -0.2460
11268TIP3    H155295   2.784   0.303   2.452 -1.7607  0.1617 -0.1026
11268TIP3    H255296   2.870   0.427   2.453  1.1323 -1.7476  0.5487
11269TIP3   OH255297   6.289   3.458  13.705 -0.0642 -0.2189 -0.5901
11269TIP3    H155298   6.207   3.418  13.734 -0.1804 -1.4979 -2.4684
11269TIP3    H255299   6.266   3.549  13.687 -1.2130 -0.6444 -1.4351
11270TIP3   OH255300   5.006   3.967   1.323 -0.2520 -0.8003 -0.6387
11270TIP3    H155301   4.946   4.001   1.389  0.4502 -2.1460  0.7561
11270TIP3    H255302   4.974   4.003   1.241 -0.5566  1.7796  0.5140
11271TIP3   OH255303   3.773   5.994   5.659  0.1252  0.7065 -0.3240
11271TIP3    H155304   3.756   6.082   5.692  1.5111  1.0457 -0.4662
11271TIP3    H255305   3.686   5.958   5.639 -0.7873  0.7296  3.0159
11272TIP3   OH255306   4.973   0.966   2.082  0.4315 -0.3753 -0.2541
11272TIP3    H155307   5.004   1.056   2.067 -0.1449  0.0243  0.7967
11272TIP3    H255308   4.880   0.976   2.102  0.3792 -1.2011 -0.0484
11273TIP3   OH255309   1.850   5.466  15.260 -0.6741 -0.0768  0.1933
11273TIP3    H155310   1.770   5.506  15.226 -0.3045  0.1812 -0.3832
11273TIP3    H255311   1.829   5.373  15.265 -0.2535 -0.3613 -2.2185
11274TIP3   OH255312   6.203   5.855  13.943  0.0414 -0.8487 -0.4202
11274TIP3    H155313   6.158   5.845  14.027 -0.4578  0.7427 -0.4668
11274TIP3    H255314   6.274   5.917  13.961 -0.8997  0.5966 -1.4169
11275TIP3   OH255315   6.586   3.551  13.869  0.3633 -0.4261  0.4105
11275TIP3    H155316   6.680   3.561  13.860  0.4447 -1.9082 -0.7066
11275TIP3    H255317   6.549   3.597  13.794  0.1647  0.4221  1.0162
11276TIP3   OH255318   3.178   6.585  15.750  0.1496 -0.0246 -0.2390
11276TIP3    H155319   3.137   6.645  15.688 -0.2447 -1.4810 -1.4497
11276TIP3    H255320   3.105   6.550  15.801  0.4222  0.8131  0.7489
11277TIP3   OH255321   0.524   1.709  15.228  0.3914  0.4741 -0.6304
11277TIP3    H155322   0.466   1.678  15.158 -1.5380  1.9115  0.2155
11277TIP3    H255323   0.576   1.778  15.187  0.0580  0.5406 -0.9506
11278TIP3   OH255324   6.281   6.476  14.420  0.5568  0.2805 -0.4776
11278TIP3    H155325   6.290   6.570  14.404 -0.4318  0.4961  0.1311
11278TIP3    H255326   6.272   6.469  14.515  0.5027 -0.4187 -0.5312
11279TIP3   OH255327   4.683   4.105  11.366 -0.4110 -0.1166  0.7769
11279TIP3    H155328   4.708   4.024  11.321  0.0398  0.8706 -0.8127
11279TIP3    H255329   4.743   4.111  11.440  0.1813 -0.7507  0.3587
11280TIP3   OH255330   0.083   2.413  11.590  0.1388 -0.4105 -0.4768
11280TIP3    H155331   0.001   2.389  11.547  0.4564  0.7722 -1.8004
11280TIP3    H255332   0.067   2.499  11.627 -0.0498 -1.3047  1.6762
11281TIP3   OH255333   5.242   2.592   0.133  0.3005  0.1165 -0.5535
11281TIP3    H155334   5.286   2.582   0.218  0.6218 -0.5820 -0.7991
11281TIP3    H255335   5.249   2.686   0.115  1.9439  0.0008 -0.7013
11282TIP3   OH255336   5.049   3.595   2.316 -0.2263 -0.1347 -0.4501
11282TIP3    H155337   5.058   3.557   2.403  0.0860  0.7096 -0.1086
11282TIP3    H255338   5.038   3.520   2.258  1.6919 -0.8361  0.0363
11283TIP3   OH255339   5.199   3.881   1.749 -0.0216 -0.0174 -0.0183
11283TIP3    H155340   5.229   3.951   1.808 -1.4871  1.2354 -0.6809
11283TIP3    H255341   5.246   3.803   1.778 -0.6184  0.5560  2.7698
11284TIP3   OH255342   5.667   6.792   1.482 -0.2175 -0.1847 -0.3611
11284TIP3    H155343   5.607   6.864   1.467  1.9022  1.8870  0.5233
11284TIP3    H255344   5.691   6.762   1.395 -0.8606  0.3781 -0.7399
11285TIP3   OH255345   2.640   5.892   5.401  0.3238 -0.1070 -0.1590
11285TIP3    H155346   2.635   5.974   5.351 -0.0291 -0.6240 -1.0068
11285TIP3    H255347   2.732   5.887   5.429  0.2482  0.7886  0.2885
11286TIP3   OH255348   6.558   1.214  12.859 -0.2928  0.0745 -0.1993
11286TIP3    H155349   6.470   1.230  12.891 -0.3298 -0.3351 -0.0906
11286TIP3    H255350   6.547   1.182  12.770 -0.2213  0.5908 -0.3969
11287TIP3   OH255351   3.050   4.811   3.103 -0.1859 -0.1445  0.4153
11287TIP3    H155352   3.039   4.809   3.008 -1.1230 -0.8054  0.5310
11287TIP3    H255353   3.123   4.751   3.120 -1.1084 -1.3534  0.2405
11288TIP3   OH255354   4.824   4.996  15.339  0.8601 -0.8124 -0.0484
11288TIP3    H155355   4.745   5.013  15.287  0.1419 -1.1903  0.8804
11288TIP3    H255356   4.855   4.911  15.309  1.7049 -0.0602 -1.3603
11289TIP3   OH255357   6.038   1.575  14.733 -0.0695 -0.1722  0.4655
11289TIP3    H155358   6.051   1.654  14.680  0.1687 -0.3541  0.2526
11289TIP3    H255359   5.956   1.590  14.779 -1.1772 -0.7554 -1.2628
11290TIP3   OH255360   5.527   3.777   4.166  0.1404 -0.0696  0.7912
11290TIP3    H155361   5.598   3.783   4.102 -0.1346 -0.4107  0.4475
11290TIP3    H255362   5.539   3.691   4.207  0.8115  0.4829  1.7999
11291TIP3   OH255363   4.002   0.099  16.087  0.2265  0.1358 -0.2339
11291TIP3    H155364   3.909   0.107  16.105 -0.0475 -1.0069 -1.0046
11291TIP3    H255365   4.007   0.040  16.011  1.6178 -0.7631  0.5073
11292TIP3   OH255366   1.139   2.630   0.430 -0.2784  0.1620  0.6471
11292TIP3    H155367   1.076   2.701   0.442  0.8795  1.0616  1.6132
11292TIP3    H255368   1.141   2.585   0.514 -0.3495 -0.4666  0.3148
11293TIP3   OH255369   2.183   0.068   5.222 -0.2037  0.0641  0.1348
11293TIP3    H155370   2.263   0.017   5.233 -1.1738 -1.6531 -0.3019
11293TIP3    H255371   2.152   0.045   5.135 -0.1776  2.2373 -0.5107
11294TIP3   OH255372   4.940   2.007   1.557 -0.1722 -0.2475 -0.3442
11294TIP3    H155373   4.901   2.068   1.494  1.0129 -1.0857 -1.9656
11294TIP3    H255374   4.864   1.963   1.597 -0.9534 -0.1851 -1.6975
11295TIP3   OH255375   1.588   2.759   4.992  0.1565 -0.3608  0.4713
11295TIP3    H155376   1.523   2.688   4.984  0.6596 -0.7225 -0.6980
11295TIP3    H255377   1.663   2.718   5.034  0.0752 -0.2538  0.7222
11296TIP3   OH255378   5.821   5.010  13.041  0.2666  0.0792  0.5474
11296TIP3    H155379   5.777   5.081  13.087 -1.5192 -0.4013 -0.3409
11296TIP3    H255380   5.798   5.023  12.949 -0.5178 -1.8998  0.4168
11297TIP3   OH255381   1.803   3.662   4.136  0.2156 -0.2151 -0.2627
11297TIP3    H155382   1.712   3.659   4.106 -0.6201  1.0282  1.8751
11297TIP3    H255383   1.810   3.589   4.198 -0.4580  1.6196  2.1571
11298TIP3   OH255384   4.370   6.398   4.200  0.2433 -0.2983 -0.2533
11298TIP3    H155385   4.400   6.482   4.166  0.8561 -0.2334  0.4021
11298TIP3    H255386   4.285   6.417   4.240 -0.2059 -0.2599 -1.2123
11299TIP3   OH255387   3.129   0.941  14.932 -0.4080 -0.1924 -0.1308
11299TIP3    H155388   3.088   1.000  14.996 -1.6252 -1.4610  0.3133
11299TIP3    H255389   3.091   0.967  14.848 -0.2046  0.2761 -0.0814
11300TIP3   OH255390   5.161   5.461   1.035  0.3504 -0.1669  0.0856
11300TIP3    H155391   5.094   5.462   0.967 -0.1863  1.5293  0.5905
11300TIP3    H255392   5.129   5.397   1.099 -0.9421  0.8002  0.4430
11301TIP3   OH255393   0.936   6.638  17.179  0.1818  0.0371 -0.1299
11301TIP3    H155394   0.959   6.672  17.266 -0.3943  0.2193 -0.0440
11301TIP3    H255395   0.951   6.544  17.185 -1.0792 -0.1426  0.5860
11302TIP3   OH255396   4.499   3.296   1.753 -0.2518 -0.9581  0.0139
11302TIP3    H155397   4.411   3.334   1.746  0.4893  0.6426 -1.0862
11302TIP3    H255398   4.516   3.291   1.847  0.0316  2.5485  0.2643
11303TIP3   OH255399   2.701   5.361   5.012  0.2618 -0.1057 -0.5123
11303TIP3    H155400   2.794   5.338   5.008  0.0286 -1.4774  0.8775
11303TIP3    H255401   2.699   5.451   5.043  1.1345  0.1344 -1.1419
11304TIP3   OH255402   3.657   2.748   5.258  0.2224 -0.6097  0.2290
11304TIP3    H155403   3.746   2.746   5.294  0.7100 -0.7431 -0.9564
11304TIP3    H255404   3.625   2.836   5.277  1.7095  0.4792 -1.8779
11305TIP3   OH255405   2.171   1.561  13.894  0.2002  0.3508 -0.6072
11305TIP3    H155406   2.203   1.651  13.898  0.0143  0.3965 -0.0503
11305TIP3    H255407   2.203   1.527  13.810 -0.3687  1.1809 -1.1781
11306TIP3   OH255408   1.185   1.716  16.500  0.0628  0.3614 -0.1469
11306TIP3    H155409   1.264   1.738  16.451  1.1949 -0.6074  1.1434
11306TIP3    H255410   1.162   1.796  16.547  0.7334  0.4536  0.0374
11307TIP3   OH255411   0.525   6.409   4.158 -0.2570  0.1792 -0.1062
11307TIP3    H155412   0.566   6.333   4.115 -0.5770  0.2865 -0.6116
11307TIP3    H255413   0.599   6.464   4.182 -0.0583  0.0431 -0.3875
11308TIP3   OH255414   3.686   1.919  14.819 -0.0352 -0.0704  0.3594
11308TIP3    H155415   3.661   1.851  14.756 -0.2571 -0.9197  1.3350
11308TIP3    H255416   3.699   1.997  14.766 -0.7160 -0.6354 -0.6787
11309TIP3   OH255417   5.891   3.610  15.428  0.8954  0.5381 -0.2247
11309TIP3    H155418   5.834   3.628  15.353  0.1427 -0.8563 -0.0102
11309TIP3    H255419   5.845   3.543  15.478  1.4292  1.3686  1.4600
11310TIP3   OH255420   4.494   3.935   3.431  0.1322 -0.1259  0.2562
11310TIP3    H155421   4.404   3.952   3.405  0.7403  1.8001 -0.8294
11310TIP3    H255422   4.497   3.959   3.524 -0.0428  1.8461 -0.2042
11311TIP3   OH255423   2.625   1.283   2.627  0.0639 -0.7086  0.7617
11311TIP3    H155424   2.579   1.262   2.708  1.1416 -0.1972  1.5278
11311TIP3    H255425   2.614   1.378   2.617 -0.7405 -0.8854 -0.1280
11312TIP3   OH255426   2.251   1.552   0.462  0.0154  0.0593 -0.3289
11312TIP3    H155427   2.242   1.646   0.478  0.2685 -0.1276  0.9509
11312TIP3    H255428   2.307   1.546   0.385  1.9856  0.9337  0.9685
11313TIP3   OH255429   1.681   1.178   0.009  0.5465 -0.4430  0.2272
11313TIP3    H155430   1.657   1.257   0.056  0.9068  0.6942 -1.3899
11313TIP3    H255431   1.602   1.124   0.009 -0.5928  1.1399 -0.9412
11314TIP3   OH255432   0.124   2.368  13.553  0.2509 -0.4236  0.0202
11314TIP3    H155433   0.187   2.351  13.623 -0.2577 -1.0032  0.3520
11314TIP3    H255434   0.176   2.368  13.473  0.6623 -1.0446  0.2775
11315TIP3   OH255435   0.857   0.927  14.028 -0.0212 -0.2992 -0.0259
11315TIP3    H155436   0.926   0.958  14.087 -0.9726 -0.9642  1.4784
11315TIP3    H255437   0.785   0.989  14.039 -1.0307 -1.6286  1.2114
11316TIP3   OH255438   6.452   4.368  10.425  0.5918 -0.1643  0.2782
11316TIP3    H155439   6.547   4.375  10.434  0.4375  0.2380  1.8510
11316TIP3    H255440   6.439   4.303  10.355  2.0103  0.5460 -0.6887
11317TIP3   OH255441   0.296   0.837  16.412  0.6667  0.0623 -0.3655
11317TIP3    H155442   0.329   0.910  16.465 -1.1328  0.6317  0.0562
11317TIP3    H255443   0.266   0.772  16.477 -1.5096  0.7463 -0.6012
11318TIP3   OH255444   5.445   3.401   1.355  0.2715  0.0456  0.3750
11318TIP3    H155445   5.363   3.354   1.342  1.0006 -1.6328  1.4199
11318TIP3    H255446   5.446   3.469   1.287 -1.3171 -0.8000 -0.5383
11319TIP3   OH255447   1.882   3.478   5.020 -0.0649  0.5371 -0.2094
11319TIP3    H155448   1.796   3.519   5.023 -1.4117 -2.1149  0.1511
11319TIP3    H255449   1.875   3.412   4.951  0.6339 -1.7128  1.7268
11320TIP3   OH255450   1.835   1.479   2.735  0.1631 -0.1030  0.3361
11320TIP3    H155451   1.779   1.556   2.739  0.9920  0.8422 -3.0456
11320TIP3    H255452   1.779   1.406   2.762 -1.7569  1.2115  0.0556
11321TIP3   OH255453   2.410   1.430   5.776 -0.1663  0.7947  0.1738
11321TIP3    H155454   2.333   1.384   5.809  1.0507 -1.8303 -0.4121
11321TIP3    H255455   2.381   1.521   5.767 -2.9447  0.0621  0.6894
11322TIP3   OH255456   3.434   5.145  16.202  0.4616  0.1339  0.0032
11322TIP3    H155457   3.461   5.089  16.128 -0.0464  0.2416 -0.2669
11322TIP3    H255458   3.479   5.228  16.186  0.4660  0.1107 -0.1077
11323TIP3   OH255459   0.287   1.624   2.437  0.5046 -0.0411 -0.2404
11323TIP3    H155460   0.336   1.591   2.512  1.8252  0.4982 -0.8295
11323TIP3    H255461   0.289   1.552   2.373  1.4835  0.3474 -0.6726
11324TIP3   OH255462   3.929   4.266  13.975 -0.4416  0.6039  0.0898
11324TIP3    H155463   3.952   4.176  13.951 -0.3110  0.4070  0.9414
11324TIP3    H255464   3.868   4.294  13.906 -3.1869 -1.3096  1.5321
11325TIP3   OH255465   4.493   4.986   0.055 -0.2120  0.0807 -0.1873
11325TIP3    H155466   4.488   4.893   0.034 -0.4367 -0.1492  0.8239
11325TIP3    H255467   4.564   4.993   0.120 -0.5808  0.5270  0.1783
11326TIP3   OH255468   6.258   2.491  16.646  0.2217  0.1112  0.7483
11326TIP3    H155469   6.352   2.510  16.644  0.4319 -0.6768 -2.7841
11326TIP3    H255470   6.220   2.564  16.695  2.5185  1.1863  1.0771
11327TIP3   OH255471   3.331   4.203   2.799 -0.1985 -0.2912 -0.1655
11327TIP3    H155472   3.269   4.275   2.792 -1.3949 -1.0711  1.7553
11327TIP3    H255473   3.386   4.225   2.874 -0.5870 -1.3603  0.4549
11328TIP3   OH255474   0.308   3.639  13.174 -0.2481  0.3272 -0.2256
11328TIP3    H155475   0.376   3.626  13.240  0.2885  1.2718 -0.5736
11328TIP3    H255476   0.251   3.706  13.212 -1.1686 -0.6543  0.1860
11329TIP3   OH255477   6.749   4.321   2.849  0.1014 -0.9588 -0.0847
11329TIP3    H155478   6.828   4.326   2.903  0.7727 -1.2503 -1.0140
11329TIP3    H255479   6.780   4.335   2.759 -1.2423  1.4543 -0.2553
11330TIP3   OH255480   3.109   4.283   3.222 -0.4850  0.3212  0.3156
11330TIP3    H155481   3.054   4.306   3.297  1.7367 -0.4699  2.3425
11330TIP3    H255482   3.164   4.360   3.209 -0.8730  0.4584 -0.5318
11331TIP3   OH255483   3.157   2.610  15.397 -0.2254 -0.2350 -0.4929
11331TIP3    H155484   3.082   2.572  15.443 -0.5593 -0.3292 -1.1023
11331TIP3    H255485   3.118   2.674  15.337  0.3183  0.9991  0.4337
11332TIP3   OH255486   6.484   4.009  15.250 -0.0744 -0.2818 -0.0637
11332TIP3    H155487   6.397   4.020  15.289  0.2826  1.3658  0.3777
11332TIP3    H255488   6.468   4.007  15.156 -0.5970 -0.0757  0.0147
11333TIP3   OH255489   2.624   2.565  17.156 -0.4442  0.3736 -0.2188
11333TIP3    H155490   2.708   2.602  17.183 -0.7815  1.1756 -0.2399
11333TIP3    H255491   2.615   2.486  17.208  1.0770 -0.6255 -1.3896
11334TIP3   OH255492   2.542   5.493   5.382 -0.1153 -0.2647 -0.0208
11334TIP3    H155493   2.628   5.473   5.420 -0.2228 -0.3783  0.1657
11334TIP3    H255494   2.504   5.558   5.442  0.0683  0.2067 -0.4077
11335TIP3   OH255495   6.077   5.557   4.058 -0.5095  0.0497  0.9466
11335TIP3    H155496   6.069   5.527   4.149  0.2476 -1.7329  0.4716
11335TIP3    H255497   6.157   5.609   4.058 -0.3198 -0.2347  1.2394
11336TIP3   OH255498   6.617   1.619   3.072 -0.1789  0.0469  0.8100
11336TIP3    H155499   6.686   1.553   3.063  0.6094  1.0654 -1.4041
11336TIP3    H255500   6.536   1.569   3.065  0.3861 -0.8654  0.5696
11337TIP3   OH255501   6.461   3.350   0.047 -0.3948 -0.1969 -0.2696
11337TIP3    H155502   6.512   3.274   0.075 -0.5465 -0.7995 -1.5570
11337TIP3    H255503   6.521   3.424   0.059  0.4629 -0.7736 -0.8512
11338TIP3   OH255504   0.350   6.607   3.715 -0.0053 -0.1357  0.4314
11338TIP3    H155505   0.340   6.586   3.808  0.5421  1.1922  0.8110
11338TIP3    H255506   0.274   6.660   3.693 -1.2941 -2.2184 -0.4854
11339TIP3   OH255507   5.370   0.468   3.818  0.4021 -0.7549  0.7511
11339TIP3    H155508   5.341   0.550   3.859  1.9525  0.5003 -0.5214
11339TIP3    H255509   5.290   0.427   3.787 -0.3070  1.2476 -0.2480
11340TIP3   OH255510   5.471   4.437   2.289  0.1015  0.1834  0.6520
11340TIP3    H155511   5.557   4.410   2.257  0.3124  1.6191 -0.0823
11340TIP3    H255512   5.421   4.456   2.209 -0.9377 -0.7297  1.0665
11341TIP3   OH255513   2.079   0.757  12.617 -0.0848  0.0813 -0.3978
11341TIP3    H155514   2.129   0.825  12.661  2.9736 -1.4519 -1.2330
11341TIP3    H255515   2.022   0.805  12.556  1.3021  1.9311 -0.3135
11342TIP3   OH255516   4.287   0.750  14.822  0.3980 -0.1694  0.2825
11342TIP3    H155517   4.299   0.667  14.777  0.2465  0.3142 -0.6755
11342TIP3    H255518   4.358   0.754  14.886  0.4878 -0.9680  0.2337
11343TIP3   OH255519   5.240   3.762   2.025  0.6819 -0.1860 -0.4261
11343TIP3    H155520   5.273   3.715   1.948  1.0349  0.2993 -0.5760
11343TIP3    H255521   5.301   3.740   2.095  1.6572  1.1135 -0.8246
11344TIP3   OH255522   0.686   0.197  11.826 -0.1577 -0.0229 -0.2511
11344TIP3    H155523   0.629   0.177  11.900 -1.3304 -0.8834 -1.3624
11344TIP3    H255524   0.704   0.112  11.785  0.5237  0.4286 -0.9216
11345TIP3   OH255525   4.829   1.950  10.665 -0.1689 -0.1837 -0.3849
11345TIP3    H155526   4.787   2.019  10.716 -2.4442 -0.9823 -1.0523
11345TIP3    H255527   4.887   1.905  10.726  1.7349  2.4956 -0.0236
11346TIP3   OH255528   1.280   6.699   6.485  0.2850 -0.3461  0.0029
11346TIP3    H155529   1.340   6.759   6.440  1.1336 -1.5782 -0.5408
11346TIP3    H255530   1.208   6.687   6.423  1.1903 -1.6140 -0.8327
11347TIP3   OH255531   4.191   0.437   2.788 -0.1223 -0.6215 -0.4357
11347TIP3    H155532   4.182   0.522   2.830  1.6906 -0.8345  0.5064
11347TIP3    H255533   4.157   0.375   2.853  0.1555 -0.7403 -0.4023
11348TIP3   OH255534   5.649   1.419   5.796  0.3734 -0.1355 -0.2552
11348TIP3    H155535   5.724   1.478   5.797 -1.2140  2.0403  1.8104
11348TIP3    H255536   5.644   1.386   5.886 -1.0983 -0.2843 -0.3668
11349TIP3   OH255537   1.904   2.823   3.743 -0.2782  1.2019 -0.2052
11349TIP3    H155538   1.993   2.852   3.762  0.5406 -2.2919  2.3954
11349TIP3    H255539   1.908   2.787   3.654  0.8915  1.2417 -0.1839
11350TIP3   OH255540   2.017   2.664  12.633  0.8476  0.2789 -0.3768
11350TIP3    H155541   2.105   2.625  12.635  1.6351  1.9567 -0.5424
11350TIP3    H255542   1.958   2.589  12.630  2.3252 -0.9191 -2.4180
11351TIP3   OH255543   3.425   3.175   5.747  0.2813 -0.5749  0.0992
11351TIP3    H155544   3.508   3.129   5.742  0.4051 -0.4860  1.1556
11351TIP3    H255545   3.441   3.258   5.702  0.3207 -1.1586 -1.0007
11352TIP3   OH255546   0.562   5.141  11.630  0.7436  0.3288 -0.3852
11352TIP3    H155547   0.571   5.062  11.683 -0.4558 -0.1559 -0.8693
11352TIP3    H255548   0.585   5.113  11.541  1.9373  0.9408 -0.2902
11353TIP3   OH255549   4.311   6.330   1.643  0.6820  0.4062  0.0836
11353TIP3    H155550   4.282   6.404   1.697  1.3549  1.8729 -1.4662
11353TIP3    H255551   4.405   6.326   1.658  0.6555 -0.1095  0.1109
11354TIP3   OH255552   6.013   2.233  15.019  0.5961  0.6300  0.2442
11354TIP3    H155553   6.026   2.245  15.113 -3.0695 -1.0307  1.1359
11354TIP3    H255554   6.046   2.144  15.002  0.4021  0.5743  0.1589
11355TIP3   OH255555   4.639   2.605   3.746  0.1980  0.1307  0.3594
11355TIP3    H155556   4.728   2.571   3.759  1.0483  0.5470 -3.2789
11355TIP3    H255557   4.583   2.541   3.789  2.1772 -0.8396  1.6705
11356TIP3   OH255558   1.149   5.864   1.041  0.8127  0.3185 -0.2745
11356TIP3    H155559   1.179   5.949   1.009  1.1608  0.4219  0.3071
11356TIP3    H255560   1.157   5.870   1.136 -0.3619  0.0755 -0.1475
11357TIP3   OH255561   3.773   1.729   1.450 -1.0068 -0.6459  0.9134
11357TIP3    H155562   3.843   1.746   1.512  0.1591  1.0997 -0.7660
11357TIP3    H255563   3.789   1.640   1.418  0.4899 -0.2677  0.5406
11358TIP3   OH255564   0.048   3.225   5.293  0.1418  0.3519 -0.2741
11358TIP3    H155565   0.036   3.316   5.322 -0.1771  0.2670 -0.1372
11358TIP3    H255566  -0.031   3.204   5.245  1.1350  0.8542 -2.2100
11359TIP3   OH255567   0.867   4.643   2.536 -1.3313 -0.8202  0.8679
11359TIP3    H155568   0.895   4.558   2.505 -0.4340 -0.7501  1.4623
11359TIP3    H255569   0.812   4.624   2.612 -1.3634 -0.8734  0.8318
11360TIP3   OH255570   1.184   4.273   4.532  0.5777  0.1741 -0.2979
11360TIP3    H155571   1.119   4.224   4.482  0.4699  2.3649 -2.5263
11360TIP3    H255572   1.181   4.235   4.619 -2.6520 -0.8075 -0.6937
11361TIP3   OH255573   0.494   5.997  13.088  0.2906  0.1698 -0.1207
11361TIP3    H155574   0.466   6.083  13.058  0.5118  0.6067  0.8843
11361TIP3    H255575   0.413   5.952  13.112  0.3232  1.1868  2.1449
11362TIP3   OH255576   5.280   3.830   3.866  0.0259 -0.3987  0.0654
11362TIP3    H155577   5.284   3.825   3.962 -0.7276 -2.2912  0.0464
11362TIP3    H255578   5.186   3.827   3.846  0.1488  0.6067 -0.7307
11363TIP3   OH255579   4.719   6.608  10.215 -0.0431 -0.2532  0.3044
11363TIP3    H155580   4.793   6.583  10.269  1.1337  1.3889 -0.4705
11363TIP3    H255581   4.724   6.703  10.208 -0.2465 -0.3375 -2.4728
11364TIP3   OH255582   6.660   2.409  11.942 -0.0807  0.4203  0.1881
11364TIP3    H155583   6.641   2.380  11.852  0.4203  0.8430 -0.0604
11364TIP3    H255584   6.611   2.348  11.997 -0.3394  0.1085 -0.3698
11365TIP3   OH255585   2.688   4.674  13.832  0.1386 -0.0055 -0.1848
11365TIP3    H155586   2.673   4.768  13.817 -0.1291 -0.2846 -1.8612
11365TIP3    H255587   2.752   4.671  13.903 -0.2455  1.4237  0.2637
11366TIP3   OH255588   0.900   3.798  16.651  0.1638 -0.2730  0.5358
11366TIP3    H155589   0.919   3.778  16.743  0.5623 -0.5069  0.4023
11366TIP3    H255590   0.943   3.728  16.601 -3.7831 -2.9236  0.3211
11367TIP3   OH255591   5.043   1.856   4.481  0.4835  0.4486 -0.2554
11367TIP3    H155592   5.112   1.798   4.513 -0.4625 -0.9178 -0.6312
11367TIP3    H255593   5.071   1.879   4.392 -0.0561 -1.0210 -0.8403
11368TIP3   OH255594   5.928   6.745   2.714 -0.0671  0.1428  0.1633
11368TIP3    H155595   5.957   6.673   2.657  0.9273  1.1036 -0.5806
11368TIP3    H255596   5.929   6.707   2.802 -0.1222 -0.9262 -0.2769
11369TIP3   OH255597   6.097   1.762   2.326 -0.1440  0.2488  0.5607
11369TIP3    H155598   6.129   1.697   2.388 -2.6834  1.4819  3.4341
11369TIP3    H255599   6.023   1.718   2.283  0.3394  0.0780 -0.1006
11370TIP3   OH255600   5.206   4.411  12.985  0.4958 -0.1894 -0.1157
11370TIP3    H155601   5.236   4.415  13.076 -0.2410  0.3470  0.1144
11370TIP3    H255602   5.250   4.484  12.942  2.4214 -1.6061 -0.7115
11371TIP3   OH255603   3.936   0.089   3.967 -0.3106 -0.3249  0.1973
11371TIP3    H155604   3.858   0.065   3.917  2.0500 -0.8577 -3.6018
11371TIP3    H255605   3.961   0.008   4.012 -1.7396 -0.1805  1.3672
11372TIP3   OH255606   6.317   4.301  15.981  0.0463 -0.4702  0.5075
11372TIP3    H155607   6.355   4.383  16.013 -1.6160  1.5513 -2.1740
11372TIP3    H255608   6.391   4.243  15.968  1.4910  1.1837  0.9906
11373TIP3   OH255609   1.921   0.428  15.503 -0.9101 -0.0734  0.3312
11373TIP3    H155610   1.919   0.512  15.548 -0.4707  0.4747 -0.6301
11373TIP3    H255611   2.005   0.428  15.457 -1.8422 -0.0431 -1.4874
11374TIP3   OH255612   5.776   3.121   5.458 -0.0209  0.6101 -0.2697
11374TIP3    H155613   5.697   3.114   5.512  1.1411  0.3166  1.4613
11374TIP3    H255614   5.759   3.063   5.384 -2.6414  2.8309 -1.5714
11375TIP3   OH255615   3.756   0.829  10.822  0.2541 -0.4554  0.3897
11375TIP3    H155616   3.841   0.850  10.784  0.0660 -0.8318 -0.2488
11375TIP3    H255617   3.697   0.894  10.784 -0.2688 -1.8833 -1.3421
11376TIP3   OH255618   1.514   6.634  15.974  0.4416 -0.2985 -0.4019
11376TIP3    H155619   1.478   6.569  15.914 -1.1597 -0.4854  0.6886
11376TIP3    H255620   1.605   6.645  15.946 -0.0149 -0.9694 -2.3187
11377TIP3   OH255621   0.584   1.221  10.963 -0.8270 -0.1567  0.3463
11377TIP3    H155622   0.505   1.199  11.012 -1.7612  3.5368  0.8251
11377TIP3    H255623   0.623   1.295  11.011  0.9762  0.4156 -1.7818
11378TIP3   OH255624   4.443   2.639   4.142  0.1125 -0.3216  0.2406
11378TIP3    H155625   4.382   2.600   4.205  0.2946 -0.7964  0.1219
11378TIP3    H255626   4.436   2.583   4.065  1.0704 -0.6743  0.4031
11379TIP3   OH255627   2.006   5.011  14.968 -0.4286  0.4745 -0.1712
11379TIP3    H155628   2.008   5.009  14.873 -2.1506  2.3538 -0.3163
11379TIP3    H255629   2.011   5.104  14.990 -0.8728  0.1355  1.5381
11380TIP3   OH255630   6.581   0.749   3.570  0.0876  0.0189  0.0020
11380TIP3    H155631   6.651   0.774   3.510  0.0616  2.2872  0.8263
11380TIP3    H255632   6.526   0.827   3.577 -1.1126 -0.8856  1.3234
11381TIP3   OH255633   3.773   4.872   4.702  0.3755 -0.4558 -0.2005
11381TIP3    H155634   3.728   4.829   4.775  1.2148  1.0156  1.2526
11381TIP3    H255635   3.865   4.849   4.713  0.6513  0.5918 -0.1600
11382TIP3   OH255636   2.632   5.654   0.333  0.5514  0.0469 -0.2952
11382TIP3    H155637   2.606   5.732   0.284  1.7941  0.1082 -0.8957
11382TIP3    H255638   2.634   5.584   0.267  1.6526  0.0030 -0.2323
11383TIP3   OH255639   0.528   0.732   4.339 -0.1710  0.1663  0.2387
11383TIP3    H155640   0.510   0.824   4.355  0.5865  0.2496  0.6688
11383TIP3    H255641   0.444   0.688   4.352 -0.5983  0.8240 -0.2411
11384TIP3   OH255642   4.024   4.624  15.065 -0.1326 -0.2054  0.2238
11384TIP3    H155643   4.095   4.688  15.066  0.1698 -0.3963 -2.3276
11384TIP3    H255644   3.952   4.669  15.109  0.7654  1.0154  0.5171
11385TIP3   OH255645   1.722   2.063  15.955 -0.1597  0.2304  0.5965
11385TIP3    H155646   1.660   2.011  16.006 -0.2480 -0.2876 -0.0325
11385TIP3    H255647   1.807   2.024  15.973 -0.2212 -0.1191  0.1568
11386TIP3   OH255648   2.331   1.082  16.426 -0.5776  0.2178  0.1822
11386TIP3    H155649   2.298   0.997  16.455 -0.9817  0.2974 -0.0355
11386TIP3    H255650   2.426   1.074  16.431 -0.6254  0.0256  0.9337
11387TIP3   OH255651   6.670   4.933  14.076 -0.2572 -0.8150  0.2763
11387TIP3    H155652   6.607   5.005  14.065 -0.0358 -0.6016  0.4044
11387TIP3    H255653   6.670   4.888  13.991 -1.1599 -1.2866  0.5058
11388TIP3   OH255654   2.209   5.201  14.358  1.0854 -0.0989 -0.1175
11388TIP3    H155655   2.254   5.139  14.300 -0.5265 -0.2824 -1.2252
11388TIP3    H255656   2.244   5.182  14.445  2.7425 -0.5747 -0.8590
11389TIP3   OH255657   2.079   0.416   2.021 -0.7523 -0.3785  0.5256
11389TIP3    H155658   2.019   0.489   2.007 -1.3031 -0.5056  2.0946
11389TIP3    H255659   2.074   0.397   2.114  0.5182 -1.4558  0.4150
11390TIP3   OH255660   1.395   1.982   2.411 -0.0945 -0.3770 -0.1779
11390TIP3    H155661   1.368   1.953   2.498  0.9157  1.0619  0.6708
11390TIP3    H255662   1.364   1.914   2.352 -1.8505 -0.8038  1.1671
11391TIP3   OH255663   0.164   5.961  15.814  0.0378 -0.7893 -0.0791
11391TIP3    H155664   0.139   5.980  15.905  1.0720 -0.0662  0.0752
11391TIP3    H255665   0.110   6.021  15.762 -0.5708 -1.2182  0.0440
11392TIP3   OH255666   5.597   2.863   2.172  0.0355 -0.5334 -0.5558
11392TIP3    H155667   5.534   2.932   2.191  0.5090 -0.1581 -0.3524
11392TIP3    H255668   5.653   2.899   2.104 -0.5727 -1.2328 -1.4667
11393TIP3   OH255669   5.542   2.110   3.866 -0.0161 -0.0761 -0.3005
11393TIP3    H155670   5.549   2.149   3.953  0.5502 -0.5774 -0.1102
11393TIP3    H255671   5.516   2.182   3.809 -2.3399 -0.1362  0.5814
11394TIP3   OH255672   4.420   0.977   4.989 -0.0561  0.1767 -0.4847
11394TIP3    H155673   4.439   1.069   5.005 -1.0764  0.5147 -1.1590
11394TIP3    H255674   4.506   0.935   4.986  0.3704  0.8462  1.2208
11395TIP3   OH255675   2.712   4.010  13.545  0.5208  0.4178 -0.4949
11395TIP3    H155676   2.675   4.093  13.578  1.5628  1.1303 -1.0457
11395TIP3    H255677   2.659   3.988  13.469 -0.7556 -0.2770  0.5495
11396TIP3   OH255678   2.424   5.830  17.149  0.9515  0.3945  0.0513
11396TIP3    H155679   2.368   5.908  17.151 -1.0593 -0.9116 -1.3879
11396TIP3    H255680   2.483   5.846  17.075  0.8463  0.7433  0.0408
11397TIP3   OH255681   2.559   0.678  11.454 -0.6571  0.5983  0.1668
11397TIP3    H155682   2.510   0.660  11.535  1.2682 -1.6214  0.9595
11397TIP3    H255683   2.606   0.759  11.472  0.1639 -0.1438  1.5444
11398TIP3   OH255684   0.656   2.581  11.855  0.1934  0.0947  0.2068
11398TIP3    H155685   0.661   2.660  11.801  1.0236  2.5042  3.5120
11398TIP3    H255686   0.747   2.560  11.874 -0.0944 -0.5116  0.9360
11399TIP3   OH255687   1.132   5.448   6.698 -0.0637 -0.4541  0.1587
11399TIP3    H155688   1.190   5.376   6.723 -0.2896 -0.8584 -0.4639
11399TIP3    H255689   1.172   5.485   6.619 -0.4295 -0.4731 -0.0379
11400TIP3   OH255690   4.317   0.312   1.333  0.4686  0.2466  0.0921
11400TIP3    H155691   4.280   0.251   1.397 -2.0217  1.1667 -0.3280
11400TIP3    H255692   4.338   0.391   1.383 -0.0002  0.4100  0.0360
11401TIP3   OH255693   5.738   5.774  15.676 -0.0194  0.1590 -0.7185
11401TIP3    H155694   5.811   5.771  15.739 -0.3856 -0.3438 -0.3085
11401TIP3    H255695   5.777   5.809  15.596  0.0700  2.5968  0.2897
11402TIP3   OH255696   6.180   0.255  16.388  0.1239  0.0877  0.2175
11402TIP3    H155697   6.236   0.329  16.362 -0.2063  0.5211  0.7140
11402TIP3    H255698   6.214   0.229  16.473  0.8005 -0.9150 -0.3410
11403TIP3   OH255699   6.396   1.779  13.265  0.2504 -0.4536  0.6993
11403TIP3    H155700   6.469   1.796  13.205 -1.2232 -0.8513 -1.3311
11403TIP3    H255701   6.356   1.865  13.279 -0.3063 -0.5539 -0.1757
11404TIP3   OH255702   0.591   1.021  12.635 -0.6119  0.2975  0.5402
11404TIP3    H155703   0.572   1.010  12.541  1.4304  0.0925  0.1186
11404TIP3    H255704   0.582   1.116  12.649 -0.3548  0.4051  0.0091
11405TIP3   OH255705   6.309   3.821  15.737 -0.4797  0.0492 -0.1620
11405TIP3    H155706   6.353   3.744  15.774  1.8596  0.9456 -0.8801
11405TIP3    H255707   6.290   3.876  15.814  0.6324  0.0926  0.1003
11406TIP3   OH255708   4.892   3.171   4.835 -0.1553 -0.2348  0.0532
11406TIP3    H155709   4.950   3.097   4.817  1.5306  0.5707  1.7874
11406TIP3    H255710   4.883   3.171   4.931 -1.0914  1.1053 -0.0045
11407TIP3   OH255711   6.779   3.443   1.496  0.0212 -0.2716 -1.1202
11407TIP3    H155712   6.803   3.395   1.418 -0.1348  2.1872 -2.8108
11407TIP3    H255713   6.808   3.533   1.479 -1.2704  0.6524  1.0518
11408TIP3   OH255714   3.072   4.657   4.599  0.0989  0.0480 -0.9149
11408TIP3    H155715   3.028   4.596   4.540 -0.6642 -1.2656  0.9092
11408TIP3    H255716   3.042   4.744   4.571  0.3046 -0.4676 -2.8452
11409TIP3   OH255717   2.424   6.647   5.864 -0.3141 -0.8693  0.2112
11409TIP3    H155718   2.439   6.718   5.926 -0.0802 -0.2883 -0.4941
11409TIP3    H255719   2.402   6.691   5.782 -1.4214 -1.6309  0.0688
11410TIP3   OH255720   6.481   5.444   2.289 -0.0590 -0.6231  0.1857
11410TIP3    H155721   6.419   5.386   2.245 -3.1856  1.9420  0.8207
11410TIP3    H255722   6.541   5.472   2.220 -1.2907 -1.1372 -1.1422
11411TIP3   OH255723   4.318   6.022   4.715 -0.5763  0.0139  0.3454
11411TIP3    H155724   4.308   5.932   4.686  0.5319  0.2322 -0.7621
11411TIP3    H255725   4.408   6.029   4.746 -0.5694  0.8044  0.1869
11412TIP3   OH255726   4.410   0.272   1.770 -0.1520 -0.0609 -0.2954
11412TIP3    H155727   4.481   0.260   1.708 -0.5012 -0.3265 -0.6467
11412TIP3    H255728   4.381   0.362   1.757  0.1700  0.0736 -0.0954
11413TIP3   OH255729   1.821   3.102  12.504 -0.5367 -0.5198  0.1647
11413TIP3    H155730   1.817   3.011  12.534  1.0174 -0.3236  1.0735
11413TIP3    H255731   1.909   3.111  12.467 -1.1815  0.2391 -1.2176
11414TIP3   OH255732   1.514   5.725  14.328  0.0534  0.1154 -0.0179
11414TIP3    H155733   1.606   5.737  14.352  0.2492 -2.3540  0.7998
11414TIP3    H255734   1.515   5.714  14.233  0.7928 -1.1400  0.1213
11415TIP3   OH255735   4.933   1.459  16.153  0.6963  0.2592  0.3542
11415TIP3    H155736   4.977   1.408  16.221 -1.4349 -0.8091  1.0261
11415TIP3    H255737   4.855   1.408  16.132  0.5613  1.2953 -1.8891
11416TIP3   OH255738   2.772   4.185  16.098  0.3259  0.1144  0.1853
11416TIP3    H155739   2.796   4.156  16.187  0.4041  0.4033  0.2603
11416TIP3    H255740   2.677   4.183  16.097  0.3330 -0.6246  0.0292
11417TIP3   OH255741   0.771   5.476  17.156 -0.2179 -0.2017  0.0540
11417TIP3    H155742   0.712   5.456  17.230 -1.2983  0.3196 -0.6371
11417TIP3    H255743   0.838   5.533  17.194 -1.6812  1.4393  0.3457
11418TIP3   OH255744   4.718   6.531   1.165 -0.1899 -0.6493  0.8208
11418TIP3    H155745   4.741   6.484   1.085  0.2392  0.5028  0.2443
11418TIP3    H255746   4.631   6.567   1.147 -0.2197 -0.6384  0.9852
11419TIP3   OH255747   4.065   4.408  12.358  0.0679 -0.2333 -0.5057
11419TIP3    H155748   4.114   4.391  12.438  1.2143 -1.0797 -1.3596
11419TIP3    H255749   4.005   4.333  12.351 -0.3829  0.0919 -0.1952
11420TIP3   OH255750   2.785   4.616   2.895  0.7146 -0.5394 -0.6694
11420TIP3    H155751   2.770   4.673   2.970  0.8688 -0.3922 -0.7477
11420TIP3    H255752   2.708   4.559   2.891  0.1412  0.2524 -1.1221
11421TIP3   OH255753   3.765   2.406   5.516 -0.1348 -0.0835  0.1083
11421TIP3    H155754   3.754   2.341   5.586  0.5031 -1.4010 -0.9820
11421TIP3    H255755   3.845   2.454   5.540  0.3948 -0.9020  0.0100
11422TIP3   OH255756   0.574   0.670   2.736  0.5390 -0.2864  0.0918
11422TIP3    H155757   0.552   0.581   2.763  0.7861 -0.6490 -0.8702
11422TIP3    H255758   0.562   0.670   2.641 -1.0915  1.1730  0.2552
11423TIP3   OH255759   2.403   2.082   2.296  0.1024 -0.1369  0.0632
11423TIP3    H155760   2.375   1.991   2.299  1.3462 -0.5816 -0.8849
11423TIP3    H255761   2.337   2.129   2.347  0.3098 -1.7737  1.9295
11424TIP3   OH255762   6.768   2.059  15.715  0.2193  0.1792 -0.8719
11424TIP3    H155763   6.803   2.132  15.767  2.4115 -0.6856 -1.0417
11424TIP3    H255764   6.674   2.063  15.729  0.4339  2.0571  0.4153
11425TIP3   OH255765   5.654   1.506   4.748  0.3667 -0.1041  0.3792
11425TIP3    H155766   5.696   1.442   4.806  0.6567  0.9220  1.3504
11425TIP3    H255767   5.576   1.534   4.796 -0.2548 -0.3840 -0.4416
11426TIP3   OH255768   2.507   4.718  14.600 -0.4948  0.1453 -0.3839
11426TIP3    H155769   2.431   4.684  14.553 -1.2461 -0.9805  1.5137
11426TIP3    H255770   2.582   4.678  14.555 -1.0824  0.2696 -1.5050
11427TIP3   OH255771   3.655   2.529  12.884 -0.3207 -0.1830  0.1013
11427TIP3    H155772   3.559   2.526  12.882 -0.3498 -0.6898  1.5472
11427TIP3    H255773   3.679   2.477  12.960  1.0510  1.2306  0.6688
11428TIP3   OH255774   0.086   6.187   3.267  0.3787 -0.3527  0.1188
11428TIP3    H155775   0.088   6.095   3.294 -0.2170 -0.8415 -1.3420
11428TIP3    H255776   0.171   6.201   3.225 -1.1603 -1.7520 -3.9559
11429TIP3   OH255777   1.049   4.198  13.447  0.2421 -0.1393  0.2286
11429TIP3    H155778   1.109   4.199  13.522  0.4188 -3.6863  0.3186
11429TIP3    H255779   0.964   4.224  13.483  0.6022 -0.5070  1.3768
11430TIP3   OH255780   0.170   5.001   3.474  0.0724 -0.1302 -0.2101
11430TIP3    H155781   0.159   5.016   3.568  0.6028 -0.1687 -0.1401
11430TIP3    H255782   0.222   5.076   3.443  0.4392 -0.4374 -0.3535
11431TIP3   OH255783   1.755   2.809   1.118  0.0361  0.2429  0.0358
11431TIP3    H155784   1.758   2.897   1.083 -1.4738  1.0657  1.7937
11431TIP3    H255785   1.662   2.787   1.122  0.3044 -0.8928  0.8411
11432TIP3   OH255786   1.716   6.762  10.764  0.1040 -0.6834 -0.0097
11432TIP3    H155787   1.701   6.676  10.805 -1.2208 -1.2132 -1.4995
11432TIP3    H255788   1.628   6.800  10.757  0.6523  0.7028  0.3691
11433TIP3   OH255789   6.300   0.532   3.985 -0.7585 -0.2442 -0.0453
11433TIP3    H155790   6.377   0.550   3.931 -0.8906  0.7241  0.0727
11433TIP3    H255791   6.309   0.591   4.060 -0.3056 -1.9152  1.2884
11434TIP3   OH255792   1.958   4.596   6.054  0.4143  0.4157 -0.0301
11434TIP3    H155793   1.909   4.516   6.034  0.0748  0.7235 -0.4397
11434TIP3    H255794   2.011   4.573   6.130  1.2201 -0.5684 -0.8569
11435TIP3   OH255795   0.197   6.785  10.901  0.0814  0.1462 -0.2566
11435TIP3    H155796   0.116   6.829  10.879 -0.1380 -0.0924  0.0678
11435TIP3    H255797   0.219   6.735  10.822  0.0870  0.4677 -0.4589
11436TIP3   OH255798   6.030   5.371   2.223 -0.2027 -0.1384 -0.7379
11436TIP3    H155799   6.121   5.354   2.199 -0.3758 -2.9612  0.2267
11436TIP3    H255800   5.986   5.388   2.139  0.7099 -1.5840 -1.5390
11437TIP3   OH255801   4.710   6.674  17.156  0.1393  0.5181 -0.2027
11437TIP3    H155802   4.685   6.718  17.075  2.1232 -0.4314 -1.3904
11437TIP3    H255803   4.803   6.694  17.166  1.1153 -3.1699 -0.7185
11438TIP3   OH255804   2.179   3.479   1.920 -0.4581 -0.2670 -0.2248
11438TIP3    H155805   2.116   3.418   1.881  0.1865 -1.7546  0.9695
11438TIP3    H255806   2.185   3.550   1.857 -1.7857 -1.0861 -1.3376
11439TIP3   OH255807   2.196   1.610   2.280  0.2991  1.0592  0.4444
11439TIP3    H155808   2.110   1.650   2.289  0.1188  0.5174  1.3209
11439TIP3    H255809   2.221   1.625   2.189 -0.8275  1.0231  0.1143
11440TIP3   OH255810   1.260   4.595  14.938 -0.1012  0.5143  0.3668
11440TIP3    H155811   1.341   4.583  14.989 -0.0557 -2.1225 -0.1716
11440TIP3    H255812   1.195   4.542  14.984 -0.6380 -0.0865 -1.0283
11441TIP3   OH255813   0.804   6.241   1.359  0.6394  0.6059 -0.0833
11441TIP3    H155814   0.813   6.307   1.428 -2.0845  2.6589 -1.5027
11441TIP3    H255815   0.855   6.276   1.286 -0.1021  0.7373 -0.5505
11442TIP3   OH255816   6.374   5.022  14.443 -0.5102 -0.5570  0.8927
11442TIP3    H155817   6.425   4.997  14.520  1.0640 -1.1058 -0.2768
11442TIP3    H255818   6.362   4.940  14.394 -5.2247 -1.1424  2.5170
11443TIP3   OH255819   1.586   2.546  17.005  0.9189 -0.2003  0.3945
11443TIP3    H155820   1.651   2.507  17.064  0.2175  0.1544  1.4138
11443TIP3    H255821   1.585   2.639  17.028  0.9103  0.0163 -0.4485
11444TIP3   OH255822   3.090   5.204   5.345  0.0482  0.0671  0.0851
11444TIP3    H155823   3.016   5.148   5.370  0.1167 -0.5779 -1.0677
11444TIP3    H255824   3.162   5.142   5.329 -0.2296  0.3025 -2.4990
11445TIP3   OH255825   6.073   3.427   1.251  0.0011 -0.0458 -0.0419
11445TIP3    H155826   6.160   3.393   1.273  0.2112 -0.1553 -1.0164
11445TIP3    H255827   6.090   3.518   1.225 -0.2591  0.1097  0.3248
11446TIP3   OH255828   0.802   4.820   4.982 -0.4660  0.4271  0.0193
11446TIP3    H155829   0.750   4.896   4.956 -1.2192  0.1612  0.6993
11446TIP3    H255830   0.794   4.759   4.909  0.0825  0.9635 -0.4970
11447TIP3   OH255831   2.259   2.521  12.955 -0.2564  0.0097  0.7657
11447TIP3    H155832   2.340   2.548  12.912 -1.5577  0.2919 -1.7006
11447TIP3    H255833   2.218   2.602  12.983 -0.4729  0.0112  0.4543
11448TIP3   OH255834   4.398   1.105   5.627 -0.0476 -0.2753  0.6135
11448TIP3    H155835   4.331   1.172   5.613  0.0548 -0.1329  0.8045
11448TIP3    H255836   4.391   1.084   5.720  0.4840  0.0777  0.7405
11449TIP3   OH255837   0.620   3.107   1.584  0.4247  1.0837 -0.8220
11449TIP3    H155838   0.594   3.021   1.616  0.4722  1.0862 -0.7769
11449TIP3    H255839   0.650   3.092   1.494  0.6537  1.0180 -0.7334
11450TIP3   OH255840   5.476   0.526  16.682  0.0447  0.0112 -0.0501
11450TIP3    H155841   5.533   0.492  16.752  3.8372  1.1732 -2.2890
11450TIP3    H255842   5.482   0.460  16.613 -1.9350 -0.0990 -0.1683
11451TIP3   OH255843   6.650   1.403  11.047  0.2934  0.3721 -0.3689
11451TIP3    H155844   6.590   1.471  11.077 -2.7992 -2.0021 -0.7730
11451TIP3    H255845   6.627   1.388  10.956  0.4513 -1.6314 -0.1311
11452TIP3   OH255846   0.096   0.098   1.385  0.1708  0.2249 -0.1535
11452TIP3    H155847   0.118   0.188   1.409 -1.4349  1.2072 -2.1102
11452TIP3    H255848   0.020   0.106   1.327  1.1693 -2.2333 -1.9822
11453TIP3   OH255849   3.017   1.462  14.033  0.2393 -0.4942 -0.6769
11453TIP3    H155850   3.044   1.503  14.115  0.5746  1.5955 -1.7571
11453TIP3    H255851   2.970   1.383  14.060  1.6265 -0.6759  1.4538
11454TIP3   OH255852   5.220   4.631   0.305 -0.4349  0.1528  0.3657
11454TIP3    H155853   5.163   4.675   0.368 -1.4830 -0.2557 -0.2683
11454TIP3    H255854   5.162   4.608   0.232  0.0653 -2.1708  0.6138
11455TIP3   OH255855   6.139   1.000   4.213 -0.0810  0.0014  0.4871
11455TIP3    H155856   6.058   1.047   4.232  0.3180  0.6845  0.5125
11455TIP3    H255857   6.116   0.941   4.141 -0.8520 -0.5320  1.1500
11456TIP3   OH255858   6.738   2.328   3.433 -0.1107 -0.3329 -0.0446
11456TIP3    H155859   6.750   2.235   3.453 -2.5190 -0.4214  1.3635
11456TIP3    H255860   6.731   2.332   3.338  1.6060 -1.3413 -0.2491
11457TIP3   OH255861   2.093   6.569   1.807  0.0746  0.6912  0.0323
11457TIP3    H155862   2.088   6.545   1.715 -0.8615 -0.1649  0.2889
11457TIP3    H255863   2.016   6.625   1.822  0.4976  1.2402  0.1809
11458TIP3   OH255864   0.601   4.372   4.255  0.0842 -0.3553 -0.2321
11458TIP3    H155865   0.659   4.367   4.179  0.7460 -1.3200  0.3280
11458TIP3    H255866   0.558   4.287   4.258 -1.7497  0.4986 -0.9117
11459TIP3   OH255867   5.578   6.633  14.592 -0.3368  0.3085  0.4959
11459TIP3    H155868   5.586   6.723  14.621  0.3726 -0.0349  1.4130
11459TIP3    H255869   5.586   6.581  14.672 -0.8548 -0.5672  0.0017
11460TIP3   OH255870   2.090   5.839  14.761  0.8757  1.0969 -0.5757
11460TIP3    H155871   2.132   5.766  14.715  2.1765  1.0221  0.6372
11460TIP3    H255872   2.090   5.910  14.697  0.6212  0.3731 -1.4055
11461TIP3   OH255873   5.711   2.826   4.413  0.1836 -0.2441  0.4505
11461TIP3    H155874   5.724   2.760   4.481  0.7329  0.4789  1.0636
11461TIP3    H255875   5.616   2.842   4.413  0.1834 -0.2099  1.0902
11462TIP3   OH255876   6.049   0.084  15.627  0.0269 -0.6005  0.1233
11462TIP3    H155877   6.068   0.016  15.692 -0.1390 -0.4986  0.2807
11462TIP3    H255878   5.975   0.048  15.577  1.6145 -1.7380 -1.5751
11463TIP3   OH255879   6.248   0.295   4.164 -0.4123  0.1711  0.1653
11463TIP3    H155880   6.287   0.317   4.079 -0.7924  2.0279  0.4233
11463TIP3    H255881   6.182   0.229   4.143 -1.2803  1.4000 -1.1924
11464TIP3   OH255882   0.667   5.703   0.926  0.6096 -0.3383  0.8030
11464TIP3    H155883   0.650   5.786   0.882  0.9241 -1.1877 -1.0039
11464TIP3    H255884   0.725   5.725   0.999 -0.2027  1.1540  1.0358
11465TIP3   OH255885   3.678   4.700   2.311  0.9516 -0.7701 -0.0686
11465TIP3    H155886   3.607   4.765   2.305  0.9631 -0.3282  2.9504
11465TIP3    H255887   3.694   4.674   2.221 -2.5646 -0.3624 -0.9814
11466TIP3   OH255888   1.176   4.777  14.530 -0.1425  0.4644 -0.1410
11466TIP3    H155889   1.168   4.683  14.512  1.0248  0.3076  0.0961
11466TIP3    H255890   1.172   4.819  14.443  1.1312  0.0502 -0.4116
11467TIP3   OH255891   2.486   6.228  16.388  0.0728 -0.3931  0.5535
11467TIP3    H155892   2.424   6.275  16.333 -2.7130 -1.0435  2.9219
11467TIP3    H255893   2.550   6.294  16.414 -1.0270  0.9348 -0.0036
11468TIP3   OH255894   4.893   0.311   3.098 -0.1158 -0.3329  0.3369
11468TIP3    H155895   4.818   0.365   3.072 -0.7241 -0.6389  1.3951
11468TIP3    H255896   4.860   0.221   3.093  0.9622 -0.6721 -1.6519
11469TIP3   OH255897   6.481   5.838  17.060  0.2914  0.0941  0.0882
11469TIP3    H155898   6.429   5.869  16.986  0.0919 -0.6163 -0.0739
11469TIP3    H255899   6.490   5.915  17.117 -0.4908  0.3557 -0.1363
11470TIP3   OH255900   3.583   0.282  15.353 -0.0245  0.8486  0.2073
11470TIP3    H155901   3.524   0.320  15.288  0.7102 -0.4358 -1.2883
11470TIP3    H255902   3.637   0.355  15.384 -1.1235  1.6804  0.2226
11471TIP3   OH255903   3.798   3.138  11.857  0.1568  0.0956  0.1168
11471TIP3    H155904   3.817   3.226  11.889  0.2358 -0.0943  0.6099
11471TIP3    H255905   3.830   3.080  11.927  2.4666 -0.4410 -1.2687
11472TIP3   OH255906   2.365   2.208   5.274 -0.2624 -0.1534 -0.3493
11472TIP3    H155907   2.327   2.168   5.352  1.4220  0.1658  0.6700
11472TIP3    H255908   2.451   2.238   5.301 -0.2623  1.4321 -1.9071
11473TIP3   OH255909   3.742   2.459  11.763  0.0932  0.3547 -0.1093
11473TIP3    H155910   3.777   2.409  11.837 -1.1794 -0.7239 -0.1895
11473TIP3    H255911   3.745   2.398  11.689 -0.6658  0.6721 -0.4190
11474TIP3   OH255912   3.722   0.817   4.200  0.2769 -0.2201 -0.3911
11474TIP3    H155913   3.704   0.728   4.168  0.9097  0.0188 -1.4727
11474TIP3    H255914   3.696   0.874   4.127 -1.2057  0.5870  0.7118
11475TIP3   OH255915   2.414   1.081  14.517  0.4996  0.3363  0.1858
11475TIP3    H155916   2.500   1.104  14.552 -0.4008  2.0965  1.3867
11475TIP3    H255917   2.431   1.059  14.425  2.2733  0.2170  0.4997
11476TIP3   OH255918   6.565   4.155   3.594 -0.3885  0.3651  0.6283
11476TIP3    H155919   6.577   4.219   3.664  0.4690  0.3257  0.5334
11476TIP3    H255920   6.562   4.208   3.514 -2.2785  0.4892  0.7400
11477TIP3   OH255921   6.731   0.703   0.156 -0.1566  0.4849 -0.0983
11477TIP3    H155922   6.769   0.717   0.242 -0.0406  0.5773 -0.1649
11477TIP3    H255923   6.768   0.772   0.101  0.6152 -0.2344 -0.4921
11478TIP3   OH255924   6.464   1.117   6.470 -0.0779  0.2087  0.0887
11478TIP3    H155925   6.453   1.182   6.540  0.5310  1.5672 -1.0120
11478TIP3    H255926   6.374   1.092   6.447 -0.4860  2.2408 -0.8152
11479TIP3   OH255927   2.364   5.288  16.680 -0.2591 -0.4513 -0.4117
11479TIP3    H155928   2.339   5.244  16.599 -1.6854 -0.4081 -0.0140
11479TIP3    H255929   2.298   5.357  16.691  1.1478  0.9460 -0.3226
11480TIP3   OH255930   5.102   4.239  11.894  0.0998  0.2762 -0.6727
11480TIP3    H155931   5.189   4.228  11.934  0.4046  1.1321 -1.0821
11480TIP3    H255932   5.116   4.301  11.823 -0.9081  0.6296 -0.5757
11481TIP3   OH255933   1.346   3.683  14.598 -0.3565  0.0961 -0.1286
11481TIP3    H155934   1.386   3.762  14.561  0.4893 -0.6655 -0.8790
11481TIP3    H255935   1.337   3.703  14.692  0.3682  0.8723 -0.2112
11482TIP3   OH255936   2.670   1.150  14.574 -0.4671 -0.3576 -0.3448
11482TIP3    H155937   2.648   1.243  14.568  0.1109 -0.1543  0.5673
11482TIP3    H255938   2.714   1.130  14.491 -2.4726 -0.3602 -1.4748
11483TIP3   OH255939   2.161   0.380   3.197 -0.2207  0.3241  0.8452
11483TIP3    H155940   2.210   0.454   3.234 -1.4644  2.5919 -1.6190
11483TIP3    H255941   2.081   0.376   3.249 -0.7261  1.6463  0.2177
11484TIP3   OH255942   5.387   3.973   6.629 -0.2635  0.2949  0.0388
11484TIP3    H155943   5.318   3.959   6.694 -0.0844 -2.6830 -0.3125
11484TIP3    H255944   5.464   3.930   6.665 -0.7834 -3.8700 -3.0617
11485TIP3   OH255945   4.568   6.400  11.404 -0.2362 -0.4276  0.3027
11485TIP3    H155946   4.651   6.445  11.390  0.0949 -0.8614  0.8128
11485TIP3    H255947   4.538   6.431  11.489 -0.3101 -0.7052  0.3787
11486TIP3   OH255948   5.983   0.833  14.314 -0.0850  0.3294  0.7697
11486TIP3    H155949   6.061   0.872  14.276 -1.1491  3.7217  1.6448
11486TIP3    H255950   5.921   0.826  14.241 -0.1731  1.2220  0.7491
11487TIP3   OH255951   1.483   6.814  15.662 -0.7095  0.0835  0.1425
11487TIP3    H155952   1.558   6.760  15.640 -1.5481 -1.6104  1.1890
11487TIP3    H255953   1.420   6.799  15.592 -1.4596 -1.4313  1.0791
11488TIP3   OH255954   5.625   2.222   4.612  0.1072  0.2092  0.1238
11488TIP3    H155955   5.666   2.307   4.596 -0.0865  0.1789 -0.5562
11488TIP3    H255956   5.554   2.241   4.674  0.3028  0.4822  0.2634
11489TIP3   OH255957   4.031   5.242   2.545  0.4642 -0.2347 -0.0577
11489TIP3    H155958   4.058   5.205   2.629 -0.2674  0.5559  0.5506
11489TIP3    H255959   4.019   5.166   2.488  0.8414 -0.7912  0.5905
11490TIP3   OH255960   2.883   5.466   6.053 -0.2707 -0.1688 -0.1059
11490TIP3    H155961   2.826   5.534   6.088 -1.2630 -0.6992 -0.6277
11490TIP3    H255962   2.837   5.384   6.072 -0.0074 -0.5701 -1.1395
11491TIP3   OH255963   0.072   3.875  15.513 -0.4215  0.3338  0.1682
11491TIP3    H155964   0.012   3.931  15.463  1.0970  1.6076 -0.3388
11491TIP3    H255965   0.043   3.883  15.603  1.0080  3.8585  0.4767
11492TIP3   OH255966   5.023   1.185   3.361 -1.1503  0.1898  0.6297
11492TIP3    H155967   5.025   1.233   3.278 -1.9026 -2.3536 -0.9829
11492TIP3    H255968   5.099   1.216   3.409  0.3046  0.5574 -1.7532
11493TIP3   OH255969   3.917   4.673  10.726  0.3075  0.5738 -0.4240
11493TIP3    H155970   3.964   4.733  10.669  1.0099 -0.1847 -0.6565
11493TIP3    H255971   3.851   4.727  10.769 -1.5555  0.8864 -3.3447
11494TIP3   OH255972   4.449   4.682  16.910  0.1032  0.0733  0.5995
11494TIP3    H155973   4.474   4.737  16.837  1.5881 -1.2347  0.0793
11494TIP3    H255974   4.372   4.634  16.879  1.5163 -1.4796 -0.6839
11495TIP3   OH255975   3.352   6.765   2.065  0.0301  0.0459  0.3582
11495TIP3    H155976   3.328   6.777   1.973 -1.7033  2.8980  1.0435
11495TIP3    H255977   3.297   6.692   2.095 -0.4562  0.0313 -0.5268
11496TIP3   OH255978   1.076   4.171   1.305  0.2908  0.6682  0.0212
11496TIP3    H155979   1.086   4.250   1.358  2.6118 -1.3068  2.8870
11496TIP3    H255980   1.157   4.164   1.255  0.3998 -0.1944  0.2925
11497TIP3   OH255981   1.927   1.214   1.065 -0.1884  0.1091  0.6072
11497TIP3    H155982   1.937   1.160   0.987  0.0408  0.8894  0.0857
11497TIP3    H255983   2.016   1.241   1.087 -0.0321 -1.4820  2.1641
11498TIP3   OH255984   1.130   0.163  17.242  0.1886 -0.2825 -0.0385
11498TIP3    H155985   1.147   0.144  17.334  0.0440 -3.4412 -0.5363
11498TIP3    H255986   1.211   0.140  17.198 -0.1715 -0.0974 -0.8067
11499TIP3   OH255987   2.273   0.216  12.150  0.3797 -0.2922 -0.0555
11499TIP3    H155988   2.291   0.189  12.060  0.2620  0.5255 -0.3378
11499TIP3    H255989   2.180   0.237  12.151  0.8535  2.2203 -0.4745
11500TIP3   OH255990   3.757   0.276   3.336  0.5921 -0.4965 -0.7153
11500TIP3    H155991   3.790   0.352   3.286  0.5105 -0.5444 -0.8420
11500TIP3    H255992   3.735   0.211   3.269  1.1624 -0.8332 -0.5842
11501TIP3   OH255993   5.751   3.830  11.932  0.1284  0.1027  0.0624
11501TIP3    H155994   5.761   3.894  11.862  0.7500  0.0001  0.0520
11501TIP3    H255995   5.671   3.857  11.977  0.3183  0.8258 -0.0074
11502TIP3   OH255996   4.755   1.959   0.129 -0.4257 -0.1478 -0.2861
11502TIP3    H155997   4.663   1.973   0.154 -0.0996  0.2486  0.7499
11502TIP3    H255998   4.768   1.865   0.137 -0.8976 -0.2877 -1.0373
11503TIP3   OH255999   3.931   3.329   1.686 -0.6060 -0.2082  0.9036
11503TIP3    H156000   3.911   3.287   1.769 -0.8525  1.0680  1.5203
11503TIP3    H256001   4.007   3.385   1.705 -0.3962 -0.2279  0.1629
11504TIP3   OH256002   5.267   1.410  16.495 -0.1219  0.1605  0.4091
11504TIP3    H156003   5.293   1.318  16.507  0.2620  0.5066  2.6533
11504TIP3    H256004   5.347   1.460  16.515  0.2768  1.0011 -2.7658
11505TIP3   OH256005   2.562   4.385   1.105 -0.2633  0.1841  0.5505
11505TIP3    H156006   2.654   4.362   1.098 -0.2497  0.2060  0.6564
11505TIP3    H256007   2.558   4.478   1.084 -0.2399  0.2201  0.7085
11506TIP3   OH256008   0.118   2.286   0.568 -0.4836 -0.5958  0.2376
11506TIP3    H156009   0.029   2.273   0.601 -0.6473 -2.9921 -0.9383
11506TIP3    H256010   0.106   2.329   0.483 -0.6239 -1.6729 -0.3094
11507TIP3   OH256011   2.040   1.967  17.088  0.3460 -0.0736  0.0375
11507TIP3    H156012   1.949   1.969  17.058  0.4945 -0.2682 -0.4344
11507TIP3    H256013   2.044   1.892  17.147  0.0994  0.1914  0.3959
11508TIP3   OH256014   1.853   5.124   5.176 -0.3486  0.1470 -0.0118
11508TIP3    H156015   1.838   5.041   5.132 -1.2201  0.4319 -0.2736
11508TIP3    H256016   1.931   5.160   5.133 -2.2978  1.3782 -2.8728
11509TIP3   OH256017   0.101   0.306  14.381  0.5965  0.1227  0.5764
11509TIP3    H156018   0.053   0.235  14.339  1.2794  0.1803 -0.3463
11509TIP3    H256019   0.080   0.299  14.474 -1.3064  0.2338  0.1966
11510TIP3   OH256020   5.414   3.163  11.730  1.1416  0.3175 -0.4090
11510TIP3    H156021   5.472   3.102  11.683  2.7717  1.6697 -0.2479
11510TIP3    H256022   5.454   3.249  11.716 -0.8135  1.3158 -0.2015
11511TIP3   OH256023   0.189   5.681  16.238  0.5914  0.0104 -0.3534
11511TIP3    H156024   0.269   5.634  16.213 -1.0190 -2.6014 -0.9906
11511TIP3    H256025   0.179   5.663  16.332 -1.0096 -2.7327 -0.9523
11512TIP3   OH256026   4.880   2.494  15.408 -0.1081  0.1574  0.4049
11512TIP3    H156027   4.949   2.430  15.393 -0.0768 -0.0958  1.5573
11512TIP3    H256028   4.903   2.568  15.351  0.8480 -0.1182  0.4143
11513TIP3   OH256029   3.789   5.718  14.320  0.3821  0.5108 -0.8876
11513TIP3    H156030   3.779   5.640  14.264 -0.4726 -1.0707  1.3267
11513TIP3    H256031   3.802   5.790  14.258  0.0551 -1.1985 -3.0856
11514TIP3   OH256032   5.550   2.190  13.001  0.0659 -0.3284  0.1484
11514TIP3    H156033   5.506   2.164  12.920  2.5927  0.7155 -1.6980
11514TIP3    H256034   5.502   2.268  13.030  1.6265  1.9682 -2.8790
11515TIP3   OH256035   5.460   2.876   4.313  0.1055  0.3623  0.6818
11515TIP3    H156036   5.405   2.935   4.262  0.8390 -0.1698 -0.7695
11515TIP3    H256037   5.415   2.792   4.310  0.1685  0.3175  0.9154
11516TIP3   OH256038   4.469   1.473   3.705 -0.3491  0.0833 -0.4489
11516TIP3    H156039   4.468   1.387   3.664 -1.6712 -1.7379  3.0066
11516TIP3    H256040   4.377   1.500   3.707 -0.4610 -0.2606  1.7681
11517TIP3   OH256041   5.911   1.748  10.164  0.9735  0.0952  0.1509
11517TIP3    H156042   5.974   1.676  10.159  1.2627  0.3143  0.5681
11517TIP3    H256043   5.958   1.824  10.132  0.5484  0.0292 -0.6499
11518TIP3   OH256044   1.816   4.488   4.807 -0.1106  0.5298  0.0324
11518TIP3    H156045   1.781   4.446   4.886  0.2957 -0.0981 -0.1126
11518TIP3    H256046   1.859   4.417   4.760 -0.0385  0.9766 -0.5792
11519TIP3   OH256047   4.791   4.584  12.934  0.0519 -0.0124  0.2990
11519TIP3    H156048   4.700   4.561  12.917  0.5338 -1.0761 -1.0396
11519TIP3    H256049   4.787   4.643  13.010 -1.9649  2.0175 -1.2220
11520TIP3   OH256050   4.925   2.352  12.567  0.1785  0.5159  0.4813
11520TIP3    H156051   4.994   2.290  12.545 -0.6652  0.1711 -1.4001
11520TIP3    H256052   4.888   2.378  12.483 -1.7414  0.9721  1.4023
11521TIP3   OH256053   3.394   4.085   4.966 -0.5137  0.3630  0.3334
11521TIP3    H156054   3.352   4.084   4.880 -3.2221 -0.0126  1.5659
11521TIP3    H256055   3.344   4.023   5.019  2.4141 -1.1229  1.6643
11522TIP3   OH256056   1.099   2.921  16.211 -0.1713 -0.0403 -0.0625
11522TIP3    H156057   1.142   2.970  16.140 -1.1097  0.6355 -0.1852
11522TIP3    H256058   1.007   2.944  16.204 -0.5006 -1.1110  0.4829
11523TIP3   OH256059   4.739   5.766   1.540  0.4817 -0.3355 -0.0111
11523TIP3    H156060   4.677   5.822   1.586  1.8112  1.7607 -0.6634
11523TIP3    H256061   4.749   5.805   1.454  1.5523 -1.4964 -0.4454
11524TIP3   OH256062   0.710   5.382   0.165 -0.0171  0.1527 -0.4396
11524TIP3    H156063   0.767   5.390   0.242 -0.5469 -0.3190  0.0195
11524TIP3    H256064   0.654   5.307   0.186  1.0401 -1.1646 -2.0958
11525TIP3   OH256065   5.726   5.144   5.186 -0.7517  0.4948  0.1055
11525TIP3    H156066   5.727   5.104   5.273 -1.7113  1.7505  0.7250
11525TIP3    H256067   5.794   5.097   5.138 -1.0794 -1.1046  1.1215
11526TIP3   OH256068   0.109   3.336   1.727  0.1205  0.0588  0.4491
11526TIP3    H156069   0.186   3.384   1.757  1.0205 -0.6446 -0.6624
11526TIP3    H256070   0.124   3.323   1.633 -0.0914 -2.3218  0.6876
11527TIP3   OH256071   6.355   2.668   4.777  0.5519  0.1049 -0.1077
11527TIP3    H156072   6.302   2.594   4.747 -2.1027  1.6201  0.5390
11527TIP3    H256073   6.441   2.629   4.797 -0.8066 -2.8650  0.5135
11528TIP3   OH256074   1.242   4.661   3.344  0.0114 -0.3776  0.3681
11528TIP3    H156075   1.277   4.623   3.425 -0.0913  0.0874  0.6291
11528TIP3    H256076   1.195   4.739   3.372  0.0860 -0.1415 -0.1554
11529TIP3   OH256077   3.397   5.247  17.204  0.5792  0.1881  0.0472
11529TIP3    H156078   3.328   5.204  17.255 -0.2228  0.5628 -0.7014
11529TIP3    H256079   3.352   5.282  17.128  1.6437  0.2488 -0.5704
11530TIP3   OH256080   4.090   1.287  14.077 -0.2466  0.4142  0.0124
11530TIP3    H156081   4.112   1.197  14.054  1.2220  0.6303  0.4249
11530TIP3    H256082   4.171   1.336  14.061 -0.6359  1.4254  0.9736
11531TIP3   OH256083   3.829   4.329   1.951  0.0512 -0.2141  0.1658
11531TIP3    H156084   3.908   4.278   1.932  0.6247 -0.2007  2.2607
11531TIP3    H256085   3.770   4.267   1.994  0.2411  0.5326  1.5575
11532TIP3   OH256086   1.658   2.968   1.875  0.0194  0.6630 -0.1484
11532TIP3    H156087   1.638   2.881   1.839  0.4852  0.5819 -0.2245
11532TIP3    H256088   1.583   2.989   1.929 -1.0639  1.1265 -1.7552
11533TIP3   OH256089   6.564   5.813   4.605 -0.1883 -0.4310 -0.6386
11533TIP3    H156090   6.505   5.888   4.597 -0.1403 -0.4472 -1.1626
11533TIP3    H256091   6.649   5.847   4.578 -0.1031 -0.5978 -0.5804
11534TIP3   OH256092   5.733   3.910  16.365  0.2224 -0.3553 -0.0883
11534TIP3    H156093   5.645   3.894  16.333  0.3049 -2.3999  0.5912
11534TIP3    H256094   5.735   3.870  16.452  0.9855  2.1660  1.1737
11535TIP3   OH256095   2.068   0.727   4.336 -0.0968 -0.2902  0.1256
11535TIP3    H156096   2.163   0.728   4.324  0.0405 -1.4236  0.9704
11535TIP3    H256097   2.033   0.735   4.248  0.7946 -0.5098 -0.2616
11536TIP3   OH256098   2.809   5.293   2.524  0.3822 -0.1041  0.7731
11536TIP3    H156099   2.778   5.383   2.519  0.7512 -0.0497 -0.9520
11536TIP3    H256100   2.729   5.240   2.520  0.1833  0.1193  1.5457
11537TIP3   OH256101   1.391   0.878   3.391  0.0823  0.3861 -0.6463
11537TIP3    H156102   1.395   0.895   3.485 -0.5521 -1.8136 -0.1469
11537TIP3    H256103   1.478   0.844   3.369  0.2931  1.0832 -0.9090
11538TIP3   OH256104   1.716   6.142  11.898  0.0033 -0.1798  0.2213
11538TIP3    H156105   1.723   6.195  11.978  0.5326 -1.3603  0.9901
11538TIP3    H256106   1.625   6.150  11.872 -0.3007 -0.1741  1.2317
11539TIP3   OH256107   2.705   2.618   2.308 -0.4419  0.3925  0.2781
11539TIP3    H156108   2.700   2.691   2.370 -0.0242  0.0108  0.7681
11539TIP3    H256109   2.702   2.540   2.363  4.1438 -0.0241  0.3038
11540TIP3   OH256110   5.127   3.036  14.836 -0.2781  0.2923  0.0352
11540TIP3    H156111   5.081   2.959  14.801 -0.1886  0.8481 -1.3591
11540TIP3    H256112   5.208   3.040  14.786  1.2258 -0.5245  2.2973
11541TIP3   OH256113   6.503   6.429   1.251  0.3171  0.8781  0.4931
11541TIP3    H156114   6.416   6.466   1.237  0.8378  2.7747  1.7564
11541TIP3    H256115   6.555   6.462   1.178  0.0306 -0.1893 -0.2178
11542TIP3   OH256116   3.547   0.487  11.811 -0.2361 -0.9411  0.6139
11542TIP3    H156117   3.609   0.523  11.748 -0.7654 -0.3061  0.4471
11542TIP3    H256118   3.547   0.551  11.883 -0.0023 -1.4134  1.0406
11543TIP3   OH256119   1.587   0.834  11.276 -0.3659  0.1646  0.0938
11543TIP3    H156120   1.623   0.830  11.365  1.4379  0.0140 -0.5888
11543TIP3    H256121   1.603   0.746  11.240  0.2593  0.6492 -0.8465
11544TIP3   OH256122   1.915   4.350  16.710 -0.3876  0.4211 -0.2739
11544TIP3    H156123   1.954   4.288  16.772 -0.6441  0.3147 -0.2180
11544TIP3    H256124   1.840   4.386  16.757 -1.6550 -0.9486 -1.1212
11545TIP3   OH256125   6.094   6.780  11.645 -0.2363 -1.1416  0.0234
11545TIP3    H156126   6.093   6.715  11.574 -0.5607  0.2183 -1.2475
11545TIP3    H256127   6.098   6.864  11.601 -1.7245 -0.1880  1.5981
11546TIP3   OH256128   6.448   1.489  14.959 -0.5494  0.0902 -0.5321
11546TIP3    H156129   6.458   1.458  15.049 -0.8363  1.1468 -0.1246
11546TIP3    H256130   6.382   1.558  14.965 -0.1645  0.5509 -1.4633
11547TIP3   OH256131   1.155   1.319  13.157  0.0496 -0.0746  0.3397
11547TIP3    H156132   1.173   1.413  13.150  0.4306 -0.1238  0.5919
11547TIP3    H256133   1.072   1.314  13.204 -1.0864  0.1770 -1.5338
11548TIP3   OH256134   3.470   5.760  13.499  0.2732  0.2995  0.2515
11548TIP3    H156135   3.480   5.825  13.569  1.7410  0.6934 -0.2953
11548TIP3    H256136   3.554   5.715  13.495 -0.3789 -0.9301 -0.0938
11549TIP3   OH256137   4.281   5.776  12.528 -0.5384  0.1229  0.2097
11549TIP3    H156138   4.222   5.790  12.454 -0.7177  0.8317  0.4745
11549TIP3    H256139   4.232   5.809  12.603 -0.0837  0.0469  0.5414
11550TIP3   OH256140   3.310   4.477   3.168 -0.0955 -0.2573  0.7429
11550TIP3    H156141   3.276   4.560   3.201  0.0596 -0.8232  2.4337
11550TIP3    H256142   3.368   4.446   3.237  0.8559 -1.1592 -0.4268
11551TIP3   OH256143   4.768   0.064  15.016 -0.4020  0.3451 -0.3001
11551TIP3    H156144   4.774   0.013  15.097  1.4091 -0.3122 -0.8250
11551TIP3    H256145   4.712   0.013  14.959  0.7295 -0.6793 -0.5203
11552TIP3   OH256146   0.807   4.684  16.257  0.3192  0.0551  0.0380
11552TIP3    H156147   0.830   4.614  16.195 -2.5453 -0.2029 -0.8539
11552TIP3    H256148   0.875   4.750  16.244  1.6554 -1.4248 -0.9529
11553TIP3   OH256149   4.571   1.372   1.740  0.1107 -0.0909  0.2523
11553TIP3    H156150   4.598   1.292   1.786  2.9535  0.4254 -0.3515
11553TIP3    H256151   4.645   1.393   1.682 -2.3065  0.6205 -2.8414
11554TIP3   OH256152   3.661   2.590  13.853 -0.5487 -0.1263  0.1481
11554TIP3    H156153   3.649   2.495  13.851 -4.2668  0.1880  0.5116
11554TIP3    H256154   3.655   2.612  13.946 -1.4107  0.5996 -0.0707
11555TIP3   OH256155   1.603   4.329   1.616 -0.2596  0.4317  0.2837
11555TIP3    H156156   1.665   4.319   1.543  0.9114  1.3609  1.1006
11555TIP3    H256157   1.517   4.318   1.577  0.1672  3.2816 -1.7531
11556TIP3   OH256158   4.279   3.151   5.409  0.0506  0.1547  0.3084
11556TIP3    H156159   4.193   3.189   5.431  0.5257  0.6147  1.4660
11556TIP3    H256160   4.263   3.057   5.410 -0.1332  0.1658  2.0808
11557TIP3   OH256161   0.774   2.724   4.186  0.4322  0.0823  0.0332
11557TIP3    H156162   0.753   2.669   4.262 -1.2669  1.3969  0.5939
11557TIP3    H256163   0.788   2.811   4.223  0.7130  0.5133 -1.0556
11558TIP3   OH256164   6.747   2.939   1.019  0.0240 -0.8679 -0.1647
11558TIP3    H156165   6.819   2.883   1.050  0.1037 -0.4086  0.4797
11558TIP3    H256166   6.682   2.877   0.984  0.4499 -1.3191 -0.1602
11559TIP3   OH256167   2.396   5.735   4.695  0.5676 -0.7031 -0.8583
11559TIP3    H156168   2.459   5.679   4.740 -1.7882 -2.0773  0.9915
11559TIP3    H256169   2.429   5.824   4.708  2.3314 -1.3980 -0.3824
11560TIP3   OH256170   2.826   5.956  13.410  0.0314  0.0515  0.9149
11560TIP3    H156171   2.841   6.050  13.402 -1.4099  0.2639  0.2745
11560TIP3    H256172   2.857   5.920  13.327  0.2561  0.0133  1.0165
11561TIP3   OH256173   0.152   5.915  11.640  0.4071  0.3367 -0.9599
11561TIP3    H156174   0.238   5.876  11.621  0.7047 -1.0990  2.5254
11561TIP3    H256175   0.089   5.849  11.612  0.6711 -0.3852  0.0935
11562TIP3   OH256176   1.126   2.243  14.721  0.1203 -0.3940  0.0615
11562TIP3    H156177   1.063   2.171  14.726  0.3018 -0.5853 -0.2872
11562TIP3    H256178   1.169   2.243  14.807 -0.7918  0.1536  0.5191
11563TIP3   OH256179   3.894   0.488   2.297  0.5319 -0.2420  0.1925
11563TIP3    H156180   3.901   0.393   2.303 -0.0430 -0.2368  1.0745
11563TIP3    H256181   3.810   0.509   2.337  0.5566  0.6219 -0.1878
11564TIP3   OH256182   2.498   6.069  14.011 -0.1408  0.2691 -0.0899
11564TIP3    H156183   2.483   5.974  14.018 -2.0687  0.6022  0.8738
11564TIP3    H256184   2.578   6.083  14.062 -1.7463 -0.4589  2.8957
11565TIP3   OH256185   6.740   6.471  16.793  0.1395 -0.5535 -0.6112
11565TIP3    H156186   6.764   6.452  16.884  0.7393 -2.1901 -1.0653
11565TIP3    H256187   6.778   6.557  16.776 -0.6658  0.1342  0.9097
11566TIP3   OH256188   0.784   1.614  11.792  0.6467 -0.0357 -0.0049
11566TIP3    H156189   0.839   1.680  11.750  2.8410 -0.7778  1.4894
11566TIP3    H256190   0.806   1.533  11.747  1.2117 -0.4264  0.9364
11567TIP3   OH256191   6.182   2.025   5.384  0.3076 -0.4777  0.4545
11567TIP3    H156192   6.192   1.930   5.389  0.7568 -0.3839  1.5586
11567TIP3    H256193   6.227   2.050   5.303 -1.3208 -1.3778 -0.8025
11568TIP3   OH256194   1.029   6.714   4.864  0.2333 -1.0837  0.2146
11568TIP3    H156195   0.993   6.802   4.878  0.3800 -1.1381  0.9911
11568TIP3    H256196   1.066   6.717   4.776 -1.6779 -1.0425 -0.6425
11569TIP3   OH256197   3.537   1.463  15.451 -0.4389 -0.3216 -0.0666
11569TIP3    H156198   3.615   1.431  15.407 -0.5651 -1.0248  0.2125
11569TIP3    H256199   3.478   1.388  15.453 -0.4288 -0.3198  1.2901
11570TIP3   OH256200   5.710   3.543   5.767 -0.0705 -0.0872  0.3663
11570TIP3    H156201   5.701   3.566   5.860 -0.7724  0.4880  0.1695
11570TIP3    H256202   5.803   3.557   5.747  0.1510 -0.5263  1.0532
11571TIP3   OH256203   2.407   0.365   6.034  0.1733 -0.1336 -0.2592
11571TIP3    H156204   2.412   0.316   6.116  1.5068 -1.4539 -1.0808
11571TIP3    H256205   2.465   0.440   6.047 -0.0492 -0.0340  0.1803
11572TIP3   OH256206   1.166   1.393  11.808  0.3858 -0.5138 -0.1311
11572TIP3    H156207   1.121   1.310  11.820  1.7668 -1.1364  1.1131
11572TIP3    H256208   1.169   1.431  11.896  0.2988  0.5746 -0.5832
11573TIP3   OH256209   6.698   6.661  15.936 -0.6053 -0.4015 -0.3850
11573TIP3    H156210   6.613   6.686  15.972 -1.6745 -3.4851 -0.4487
11573TIP3    H256211   6.712   6.573  15.970  2.3229 -0.2098 -0.8875
11574TIP3   OH256212   0.551   5.099   4.304 -0.1821 -0.0717  0.2850
11574TIP3    H156213   0.567   5.168   4.238  2.9587  0.2742  1.2328
11574TIP3    H256214   0.514   5.146   4.379  2.2903  0.7864  1.0680
11575TIP3   OH256215   5.577   5.011  12.620  0.1027  0.1875  0.0627
11575TIP3    H156216   5.482   5.021  12.621  0.2052  1.3582  0.0251
11575TIP3    H256217   5.603   5.040  12.532  0.6761  2.2135  0.8343
11576TIP3   OH256218   1.051   4.881  15.223 -0.1530  0.0121  0.2857
11576TIP3    H156219   1.091   4.882  15.135  2.3860 -0.5036  1.3304
11576TIP3    H256220   1.024   4.790  15.235 -0.0379 -0.0345  0.2063
11577TIP3   OH256221   5.132   2.821   2.149  0.0245 -0.1408  0.1831
11577TIP3    H156222   5.093   2.878   2.215 -1.0459  1.2112 -1.5331
11577TIP3    H256223   5.068   2.751   2.135 -1.0331  1.0591 -1.2969
11578TIP3   OH256224   3.460   2.734   0.618 -0.7330  0.1932  0.3075
11578TIP3    H156225   3.372   2.769   0.609 -0.2098  1.9031  1.3456
11578TIP3    H256226   3.449   2.654   0.669 -1.5704  1.0630  1.5344
11579TIP3   OH256227   2.044   3.041  11.972  0.2115 -0.6862  0.2089
11579TIP3    H156228   2.054   2.972  11.907  1.3125 -0.1466 -0.2211
11579TIP3    H256229   2.042   3.122  11.922  0.3424 -0.3104  0.7911
11580TIP3   OH256230   6.712   2.188  16.298  0.1028 -0.3697 -0.3497
11580TIP3    H156231   6.643   2.166  16.361  0.3349 -0.1354 -0.0058
11580TIP3    H256232   6.758   2.262  16.338  0.9612 -0.9363 -0.2666
11581TIP3   OH256233   3.489   2.700  14.494  0.5484 -0.7090  0.0299
11581TIP3    H156234   3.438   2.721  14.572 -0.5353  0.1546 -0.8690
11581TIP3    H256235   3.576   2.678  14.527  0.3645  0.4810  1.4173
11582TIP3   OH256236   2.541   1.959  15.723  0.5710  0.5069 -0.4123
11582TIP3    H156237   2.601   2.031  15.701 -0.1493  0.9682 -0.8856
11582TIP3    H256238   2.535   1.907  15.643 -0.4283  1.0267 -0.6954
11583TIP3   OH256239   0.319   0.808  14.462  0.3152  0.5342  0.1617
11583TIP3    H156240   0.316   0.872  14.391 -0.6062 -0.6411 -0.9279
11583TIP3    H256241   0.240   0.756  14.450 -0.1424  0.6188  2.4082
11584TIP3   OH256242   4.523   0.200  15.628 -0.0641  0.4350  0.5340
11584TIP3    H156243   4.536   0.284  15.583 -0.1758  0.3821  0.4026
11584TIP3    H256244   4.599   0.192  15.686  1.3706 -0.5889 -1.3574
11585TIP3   OH256245   0.514   0.959  16.855  0.4622  0.3241  0.1882
11585TIP3    H156246   0.436   0.904  16.865  0.6429 -0.4088 -1.9435
11585TIP3    H256247   0.505   1.026  16.923 -1.6197 -0.2031  0.4951
11586TIP3   OH256248   0.467   5.586   4.279  0.1207 -0.2981  0.2931
11586TIP3    H156249   0.390   5.576   4.335 -0.4343  0.0191 -0.4067
11586TIP3    H256250   0.443   5.654   4.216  1.4255  0.7170  0.8391
11587TIP3   OH256251   4.269   0.297   3.342  0.2013 -0.6361 -0.0740
11587TIP3    H156252   4.177   0.277   3.362  1.0169 -2.3301  2.4317
11587TIP3    H256253   4.299   0.221   3.291  0.5101 -0.6182  0.0832
11588TIP3   OH256254   4.208   1.330  12.612 -0.0026  0.3425 -0.2668
11588TIP3    H156255   4.191   1.298  12.523  2.0739 -0.6833 -0.3364
11588TIP3    H256256   4.195   1.254  12.668 -1.4538  1.0220  0.3804
11589TIP3   OH256257   0.323   6.490  14.908  0.0332  0.1549  0.2969
11589TIP3    H156258   0.398   6.432  14.899 -1.4249 -1.8842  0.4981
11589TIP3    H256259   0.301   6.488  15.001 -1.8188 -1.4181 -0.1253
11590TIP3   OH256260   3.974   0.226  16.536 -0.0648  0.1096 -0.0046
11590TIP3    H156261   3.994   0.275  16.616  0.3616  0.1724 -0.1455
11590TIP3    H256262   4.059   0.192  16.508 -0.3025 -0.4085 -0.1062
11591TIP3   OH256263   6.342   1.404   1.413  0.7380 -0.1950  0.4981
11591TIP3    H156264   6.275   1.358   1.464 -1.6446 -0.1133 -2.3199
11591TIP3    H256265   6.414   1.417   1.475 -0.8746 -2.3602  3.0687
11592TIP3   OH256266   3.480   3.745   1.457  0.1821 -0.1795  0.2987
11592TIP3    H156267   3.426   3.824   1.458 -0.4682 -0.4650 -2.7616
11592TIP3    H256268   3.421   3.676   1.487 -0.1523  0.0344  0.1446
11593TIP3   OH256269   1.462   1.482   4.239  0.7146  0.2628  0.1942
11593TIP3    H156270   1.518   1.408   4.216 -0.1080 -0.4864  0.5510
11593TIP3    H256271   1.521   1.543   4.283  1.6805  0.4155 -1.2323
11594TIP3   OH256272   4.508   4.647  13.069  1.0160  0.3910  0.4840
11594TIP3    H156273   4.473   4.693  12.993 -1.2187 -1.1124  0.4940
11594TIP3    H256274   4.481   4.699  13.144 -1.4733 -0.7613  0.4944
11595TIP3   OH256275   6.258   0.466  16.972  0.1822  0.0620  0.1072
11595TIP3    H156276   6.247   0.430  17.061 -0.6816  1.0766  0.4308
11595TIP3    H256277   6.248   0.560  16.983  0.7915  0.2662 -0.9747
11596TIP3   OH256278   6.470   3.263   1.521 -0.4174  0.4483  0.0108
11596TIP3    H156279   6.557   3.229   1.545 -0.8586  0.1569  1.2862
11596TIP3    H256280   6.450   3.325   1.591 -2.2501 -1.2417  1.0707
11597TIP3   OH256281   1.067   5.815   4.654 -0.1997  0.4773 -0.0025
11597TIP3    H156282   1.092   5.835   4.744 -3.1490  1.0519  0.7911
11597TIP3    H256283   1.024   5.730   4.660  0.7085 -0.0938 -1.1472
11598TIP3   OH256284   0.296   5.676   0.945  0.2059 -0.1485 -0.2133
11598TIP3    H156285   0.343   5.755   0.919 -1.3837  0.9173  0.0250
11598TIP3    H256286   0.225   5.707   1.000  0.4081 -1.8968  1.1236
11599TIP3   OH256287   2.168   3.001   0.913  0.3877 -0.3675  0.3610
11599TIP3    H156288   2.253   3.035   0.884 -0.0914  0.4350 -0.1487
11599TIP3    H256289   2.164   3.021   1.006  0.3824  0.3978  0.1966
11600TIP3   OH256290   4.943   5.521  16.679  0.3290 -0.5245  0.1790
11600TIP3    H156291   4.997   5.490  16.606  0.2081  0.5860 -0.3965
11600TIP3    H256292   4.860   5.548  16.638  0.4345  0.5569  0.6502
11601TIP3   OH256293   2.156   2.431  12.165  0.4228 -0.2468 -0.2402
11601TIP3    H156294   2.192   2.519  12.176  1.7091 -0.8531  0.7481
11601TIP3    H256295   2.198   2.379  12.234  0.2245 -1.7931 -1.2253
11602TIP3   OH256296   1.199   3.088  11.468  0.0567 -0.4100 -0.0224
11602TIP3    H156297   1.168   3.139  11.543 -0.1896 -2.4554  1.3578
11602TIP3    H256298   1.277   3.043  11.501  1.7509  0.9398 -1.9686
11603TIP3   OH256299   6.411   2.361  15.280 -0.2128  0.1914 -0.3701
11603TIP3    H156300   6.439   2.426  15.344  0.0655  2.0171 -2.2420
11603TIP3    H256301   6.492   2.317  15.254 -0.1982  0.0673 -0.1150
11604TIP3   OH256302   4.715   2.482  17.067 -0.5506 -0.6132 -0.4415
11604TIP3    H156303   4.624   2.475  17.097 -0.6462 -1.4344 -0.8815
11604TIP3    H256304   4.719   2.423  16.991  0.4958 -1.0230 -0.0793
11605TIP3   OH256305   1.823   3.727  11.836  0.8408 -0.5073  0.8220
11605TIP3    H156306   1.762   3.659  11.866 -1.2535  0.6603 -0.5347
11605TIP3    H256307   1.767   3.802  11.816  2.3708 -0.1724 -2.9971
11606TIP3   OH256308   6.139   3.211  12.627 -0.0219  0.0397 -0.0124
11606TIP3    H156309   6.108   3.196  12.538  1.4984 -0.5776 -0.4796
11606TIP3    H256310   6.189   3.293  12.622  2.3281 -1.3065 -0.4224
11607TIP3   OH256311   4.762   1.500   2.955  0.2753  0.2234 -0.4420
11607TIP3    H156312   4.765   1.543   3.041  0.3012 -0.3435 -0.1523
11607TIP3    H256313   4.687   1.441   2.960 -0.0027  0.5273 -0.9776
11608TIP3   OH256314   4.482   4.219   5.242 -0.0875  0.2748  0.2214
11608TIP3    H156315   4.458   4.150   5.304  0.2990 -0.0577  0.0032
11608TIP3    H256316   4.578   4.225   5.248 -0.1722  1.3602  0.8432
11609TIP3   OH256317   0.395   1.083   3.128  0.2271  0.1561 -0.2160
11609TIP3    H156318   0.321   1.116   3.077 -0.7250 -1.5080  0.0435
11609TIP3    H256319   0.413   1.153   3.191  0.0189  1.3177 -1.3895
11610TIP3   OH256320   3.389   2.066   3.037  0.1764 -0.0754  0.7877
11610TIP3    H156321   3.321   2.122   2.998 -0.0660 -1.6883 -1.2796
11610TIP3    H256322   3.344   2.023   3.110 -0.5762  0.0460  0.4136
11611TIP3   OH256323   0.430   2.238  13.124 -0.2886 -0.9343 -0.2034
11611TIP3    H156324   0.473   2.191  13.053  0.4198  0.0210 -0.4240
11611TIP3    H256325   0.352   2.186  13.143  0.0283 -1.7343 -1.0032
11612TIP3   OH256326   4.333   6.111   0.475  0.3518  0.1584  0.9252
11612TIP3    H156327   4.297   6.033   0.517 -0.4117 -0.4548 -0.7731
11612TIP3    H256328   4.381   6.078   0.399  1.1339  1.2533  0.9209
11613TIP3   OH256329   0.192   4.872   6.673  0.2323 -0.0043  0.5282
11613TIP3    H156330   0.125   4.897   6.736 -0.1168  0.9733 -0.1862
11613TIP3    H256331   0.261   4.937   6.685  0.2925  0.0121  0.1210
11614TIP3   OH256332   6.012   0.273  11.917  0.2869  0.2771 -0.2258
11614TIP3    H156333   5.966   0.278  11.833  0.5110  0.2608 -0.3491
11614TIP3    H256334   6.042   0.363  11.934 -1.4506  0.7240  0.7975
11615TIP3   OH256335   1.259   1.484  11.593  0.0191  0.2377  0.0770
11615TIP3    H156336   1.230   1.428  11.664 -1.3947  0.1285 -0.5409
11615TIP3    H256337   1.354   1.487  11.600  0.0095 -1.1627  0.9110
11616TIP3   OH256338   0.583   1.896   5.116 -0.2705  0.0701 -0.1142
11616TIP3    H156339   0.599   1.869   5.025  1.8540 -0.6400  0.4252
11616TIP3    H256340   0.591   1.815   5.166  1.4718  0.8714  0.9995
11617TIP3   OH256341   1.057   6.061   4.937  0.6083 -0.1327  0.1607
11617TIP3    H156342   1.126   5.997   4.951 -0.1594 -0.5292  2.7058
11617TIP3    H256343   0.979   6.009   4.916  1.0117  0.3219 -3.0567
11618TIP3   OH256344   5.592   3.098   1.774  0.2850 -0.1759 -0.4407
11618TIP3    H156345   5.639   3.056   1.845 -0.5146  0.2716  0.3647
11618TIP3    H256346   5.648   3.172   1.749  1.0889 -0.9717 -1.0242
11619TIP3   OH256347   2.896   0.616   0.107 -0.1443 -0.5338  0.0734
11619TIP3    H156348   2.908   0.521   0.104  0.4999 -0.4500 -0.3049
11619TIP3    H256349   2.812   0.632   0.064 -0.2565 -0.9306  0.1455
11620TIP3   OH256350   1.522   5.662   3.626  0.2847  0.2426 -0.0641
11620TIP3    H156351   1.567   5.596   3.678 -0.2643  1.1209  1.5998
11620TIP3    H256352   1.589   5.697   3.567  0.9976 -0.5991  0.2389
11621TIP3   OH256353   5.696   6.028  11.920 -0.9530  0.2095  0.1987
11621TIP3    H156354   5.735   6.089  11.983 -0.3986  0.8925 -0.7754
11621TIP3    H256355   5.698   6.075  11.837 -0.0939 -1.3095 -0.6856
11622TIP3   OH256356   3.333   1.939  11.928 -0.3009  1.0787  0.0488
11622TIP3    H156357   3.425   1.958  11.911  0.2195 -1.3237 -0.1741
11622TIP3    H256358   3.287   1.975  11.852  0.8691 -0.5200 -1.5091
11623TIP3   OH256359   0.390   2.799   2.532 -0.1219  0.2391 -0.2175
11623TIP3    H156360   0.338   2.792   2.612 -0.2373  0.4117 -0.2770
11623TIP3    H256361   0.370   2.886   2.498  1.2753  0.8663  0.5085
11624TIP3   OH256362   2.351   0.091  12.778  0.1332  0.4604  0.2968
11624TIP3    H156363   2.267   0.099  12.824 -0.2442  3.5085 -0.6744
11624TIP3    H256364   2.353   0.166  12.719  2.8434 -0.4634 -0.9591
11625TIP3   OH256365   0.770   2.311  12.079 -0.3962  0.3253 -0.3523
11625TIP3    H156366   0.748   2.236  12.023  0.4222 -0.5839  0.5165
11625TIP3    H256367   0.822   2.368  12.023 -4.5181  2.5268 -2.4841
11626TIP3   OH256368   0.902   3.933  14.219 -0.0994  0.2892  0.0184
11626TIP3    H156369   0.826   3.928  14.278  0.4472  3.3225  1.1774
11626TIP3    H256370   0.892   3.859  14.160 -2.6300 -0.8255  1.6801
11627TIP3   OH256371   2.656   3.944   4.611  0.5221  1.0411 -0.0506
11627TIP3    H156372   2.736   3.895   4.630 -0.3355  0.0241  1.0460
11627TIP3    H256373   2.666   4.026   4.660  1.6459  1.7172 -1.3325
11628TIP3   OH256374   2.255   3.951   2.261  0.0512 -0.4462 -0.4925
11628TIP3    H156375   2.274   3.943   2.355 -0.9379  0.8654 -0.1463
11628TIP3    H256376   2.288   4.038   2.238 -0.5507 -0.3823 -1.1399
11629TIP3   OH256377   2.725   4.649  11.453  0.6641  0.0211 -0.2049
11629TIP3    H156378   2.642   4.608  11.432  0.5962  0.2272 -0.3444
11629TIP3    H256379   2.785   4.576  11.471  0.7524 -0.1614 -1.2173
11630TIP3   OH256380   1.601   2.199   0.332 -0.0546 -0.2864  0.0632
11630TIP3    H156381   1.640   2.218   0.246 -0.8833 -2.0943 -0.7807
11630TIP3    H256382   1.509   2.222   0.322  0.3035  2.0323  1.3930
11631TIP3   OH256383   6.073   3.638   4.520 -0.5396  0.2498 -0.2009
11631TIP3    H156384   6.146   3.577   4.528  0.3501  1.4585  1.7374
11631TIP3    H256385   5.996   3.583   4.510  0.2650 -1.2154  1.2227
11632TIP3   OH256386   1.874   2.905  11.559 -0.4624 -0.2030 -1.1720
11632TIP3    H156387   1.949   2.949  11.519  1.1706 -1.9020 -0.1537
11632TIP3    H256388   1.847   2.840  11.495  0.4006 -1.0843 -0.6676
11633TIP3   OH256389   5.076   2.379   0.140  0.0388  0.1011  0.4126
11633TIP3    H156390   5.166   2.413   0.139 -0.0749  0.4000  0.3955
11633TIP3    H256391   5.025   2.443   0.091  0.0822 -0.8271 -0.8794
11634TIP3   OH256392   0.183   1.681  14.327 -0.5532 -0.7923 -0.1613
11634TIP3    H156393   0.155   1.652  14.240 -0.6425 -0.0893 -0.3749
11634TIP3    H256394   0.214   1.601  14.370  1.0518 -0.9169 -1.4161
11635TIP3   OH256395   2.837   4.140  16.383 -0.3450 -0.0305 -0.1730
11635TIP3    H156396   2.768   4.074  16.392  0.3740 -0.7091  0.5058
11635TIP3    H256397   2.803   4.217  16.429 -1.2987  0.1866 -1.1878
11636TIP3   OH256398   1.050   3.574  17.077  0.1592  0.0322 -0.2773
11636TIP3    H156399   1.131   3.562  17.027  0.0740 -3.2256  0.1908
11636TIP3    H256400   0.980   3.556  17.014 -0.0314 -1.0894  0.2265
11637TIP3   OH256401   4.385   0.266  12.686  0.0702 -0.0675 -0.0877
11637TIP3    H156402   4.417   0.351  12.716  1.9184 -0.5986 -0.4394
11637TIP3    H256403   4.461   0.208  12.694 -0.4218 -1.0836 -2.2374
11638TIP3   OH256404   4.924   3.232   3.819  0.1078 -0.8725  0.4241
11638TIP3    H156405   4.982   3.161   3.844 -0.3237 -1.1112  0.7596
11638TIP3    H256406   4.836   3.199   3.836 -0.0868 -0.0971  1.0265
11639TIP3   OH256407   2.982   1.515  15.098 -0.2694  0.5924  0.1111
11639TIP3    H156408   2.920   1.471  15.040  1.4493  2.7779 -3.7090
11639TIP3    H256409   2.961   1.608  15.089  1.3626  1.1433  1.4534
11640TIP3   OH256410   6.792   2.852   6.261 -0.2263  0.4870  0.2404
11640TIP3    H156411   6.877   2.893   6.243  0.4148 -0.8334  0.1821
11640TIP3    H256412   6.771   2.804   6.181 -0.8243  0.4499  0.4165
11641TIP3   OH256413   5.684   0.714   3.308  0.7923  0.8173  0.3936
11641TIP3    H156414   5.695   0.801   3.270 -0.4536  0.4401 -0.9323
11641TIP3    H256415   5.664   0.730   3.400 -1.3435  2.0619 -0.2236
11642TIP3   OH256416   0.779   2.637   0.774  0.4554  0.1937 -0.1942
11642TIP3    H156417   0.774   2.649   0.679  0.3810  0.1109 -0.1999
11642TIP3    H256418   0.689   2.645   0.805  0.7638  3.4292  0.2427
11643TIP3   OH256419   5.946   4.509  16.832 -0.2394  0.6480  0.0965
11643TIP3    H156420   6.010   4.502  16.762  0.5931  1.3344  0.7719
11643TIP3    H256421   5.935   4.419  16.864 -0.1878  0.4215 -0.5137
11644TIP3   OH256422   3.986   3.636   4.929 -0.0691  0.9252  0.1887
11644TIP3    H156423   4.041   3.591   4.865 -1.2885 -0.4903  0.0912
11644TIP3    H256424   4.046   3.696   4.973  1.4264 -0.1474 -0.2875
11645TIP3   OH256425   1.615   1.522  15.596 -0.2960 -0.4966 -0.6276
11645TIP3    H156426   1.593   1.481  15.512  0.1773 -1.7925 -0.1506
11645TIP3    H256427   1.645   1.449  15.650 -0.9047  0.2561  0.7794
11646TIP3   OH256428   4.665   4.074  12.548  0.1940  0.2375  0.0706
11646TIP3    H156429   4.722   4.105  12.477 -1.6952  1.3210 -1.0587
11646TIP3    H256430   4.657   3.980  12.533  1.2771  0.1413 -0.0183
11647TIP3   OH256431   6.648   0.606   1.853 -0.7346  0.0163  0.4285
11647TIP3    H156432   6.683   0.683   1.807  0.7023  0.2217  1.7890
11647TIP3    H256433   6.555   0.627   1.868 -1.3900 -0.2299 -2.6321
11648TIP3   OH256434   4.389   3.535  12.967 -0.0291  0.3771 -0.2099
11648TIP3    H156435   4.314   3.483  12.937  0.3511  0.1147 -0.7108
11648TIP3    H256436   4.357   3.580  13.046 -0.7706  0.4157 -0.5265
11649TIP3   OH256437   0.702   5.817   3.295  0.0744 -0.3621 -0.0567
11649TIP3    H156438   0.608   5.819   3.310  0.2280 -0.0494  0.9380
11649TIP3    H256439   0.733   5.903   3.324  0.8781 -1.0633  1.2488
11650TIP3   OH256440   4.542   1.220  11.782 -0.4054  0.1522  0.0446
11650TIP3    H156441   4.563   1.130  11.805  0.0168 -0.1739 -1.5010
11650TIP3    H256442   4.625   1.256  11.749 -0.0511  1.7297  2.3546
11651TIP3   OH256443   5.039   4.079  15.091 -0.4085 -0.1418 -0.4817
11651TIP3    H156444   4.956   4.115  15.121  0.5187  0.2934  1.7444
11651TIP3    H256445   5.014   4.015  15.024 -2.4698  0.4219 -0.3319
11652TIP3   OH256446   6.651   1.571   6.286  0.3062 -0.1026  0.5704
11652TIP3    H156447   6.746   1.572   6.291  0.2607 -0.5974  2.6503
11652TIP3    H256448   6.623   1.610   6.369 -1.3185  0.6851 -0.2990
11653TIP3   OH256449   2.633   4.850  15.643  0.0524 -0.9282 -0.1797
11653TIP3    H156450   2.570   4.863  15.572 -1.2260 -1.4608  0.8176
11653TIP3    H256451   2.601   4.772  15.689  0.3072 -0.0633  1.5288
11654TIP3   OH256452   3.579   5.833  14.496  0.5871 -0.4018  0.4545
11654TIP3    H156453   3.654   5.799  14.448  1.9348  2.1034  0.6335
11654TIP3    H256454   3.553   5.761  14.555  2.3604 -1.5770 -0.1289
11655TIP3   OH256455   3.707   6.069  12.888  0.2012 -0.0547 -0.4765
11655TIP3    H156456   3.776   6.099  12.948  1.4365 -1.2706 -1.2249
11655TIP3    H256457   3.627   6.074  12.940  0.9897  0.4601  0.7529
11656TIP3   OH256458   4.203   1.645   6.120 -0.0024  0.1406  0.1612
11656TIP3    H156459   4.278   1.589   6.102 -0.9039 -1.1114  0.1237
11656TIP3    H256460   4.240   1.722   6.164  1.2004 -0.8275  0.9298
11657TIP3   OH256461   4.221   1.186  12.093  0.5123  0.4762  0.1636
11657TIP3    H156462   4.151   1.141  12.140 -0.0762  1.8511  0.6767
11657TIP3    H256463   4.219   1.275  12.128  1.7216  0.8693 -0.7004
11658TIP3   OH256464   4.845   0.480   2.644 -0.2207  0.4666  0.4523
11658TIP3    H156465   4.884   0.433   2.718  0.1159 -0.9465 -0.5876
11658TIP3    H256466   4.877   0.433   2.566 -0.7735  1.7555 -0.5844
11659TIP3   OH256467   2.350   0.439  11.402  0.1536  0.2106 -0.1435
11659TIP3    H156468   2.283   0.456  11.468 -0.7113  0.3452 -1.0348
11659TIP3    H256469   2.424   0.494  11.428  0.4457 -0.9107  1.5865
11660TIP3   OH256470   0.459   0.594  15.946  0.4773 -0.2207  0.4989
11660TIP3    H156471   0.374   0.622  15.980  1.0397  2.3006  0.0449
11660TIP3    H256472   0.519   0.665  15.970  1.4616  0.4881 -3.3496
11661TIP3   OH256473   2.873   0.840   2.165  0.3581  0.1121  0.4273
11661TIP3    H156474   2.802   0.777   2.154 -0.1228  0.8229 -0.8488
11661TIP3    H256475   2.942   0.809   2.106  0.5834  0.1306  0.6801
11662TIP3   OH256476   6.540   3.239  17.012 -0.4025 -0.1623 -0.0779
11662TIP3    H156477   6.502   3.165  17.059 -1.3149 -1.8058 -3.1427
11662TIP3    H256478   6.467   3.299  16.999 -0.5964 -0.5735 -0.9290
11663TIP3   OH256479   1.854   4.061   5.301 -0.4927 -0.3257  0.1231
11663TIP3    H156480   1.866   3.999   5.374  0.0009  0.2565  0.5530
11663TIP3    H256481   1.776   4.030   5.255  0.1166 -1.6460 -0.0620
11664TIP3   OH256482   5.031   0.065  12.393  0.3465  0.4646 -0.3584
11664TIP3    H156483   4.965   0.057  12.325 -1.8168 -2.1128  1.8164
11664TIP3    H256484   5.045   0.159  12.401 -1.1490  0.9677 -2.6159
11665TIP3   OH256485   6.253   4.796  11.596  0.0305  0.3419 -0.4416
11665TIP3    H156486   6.262   4.786  11.501 -0.2506  1.5120 -0.6180
11665TIP3    H256487   6.343   4.808  11.627  0.3097 -1.8269 -0.2941
11666TIP3   OH256488   0.170   1.512  15.229  0.3408 -0.4088  0.2856
11666TIP3    H156489   0.083   1.549  15.246  0.4583 -0.3807  0.8600
11666TIP3    H256490   0.152   1.426  15.191  0.0660 -0.0433 -0.4255
11667TIP3   OH256491   2.602   2.086  13.960 -0.8630 -0.0954 -0.0259
11667TIP3    H156492   2.670   2.026  13.930 -2.0123 -1.6363  0.2775
11667TIP3    H256493   2.555   2.036  14.027 -1.3120  1.5090  0.8952
11668TIP3   OH256494   1.517   5.216   2.127  0.1288  1.0053  0.6152
11668TIP3    H156495   1.590   5.212   2.190  0.6636  1.9428  0.0807
11668TIP3    H256496   1.559   5.238   2.044 -0.6282  0.2292  0.0097
11669TIP3   OH256497   6.554   2.410   1.539 -0.2269  0.2346  0.1468
11669TIP3    H156498   6.571   2.487   1.486 -3.3493 -0.5297 -2.2780
11669TIP3    H256499   6.464   2.423   1.572 -0.3221 -1.7423  0.8236
11670TIP3   OH256500   0.964   6.750  11.933  0.2533 -0.2302 -0.4752
11670TIP3    H156501   0.990   6.819  11.873 -2.5752 -0.2207 -1.8324
11670TIP3    H256502   1.003   6.670  11.896  0.5530  0.1242 -0.9314
11671TIP3   OH256503   0.143   3.881  16.950 -0.2014 -0.3401  0.5731
11671TIP3    H156504   0.126   3.975  16.946 -1.1955 -0.5412 -0.2623
11671TIP3    H256505   0.068   3.841  16.908  1.1424 -1.4113 -0.9197
11672TIP3   OH256506   6.223   6.320   1.168 -0.3647  0.6763  0.6551
11672TIP3    H156507   6.224   6.414   1.152 -2.4577  1.1338  2.5836
11672TIP3    H256508   6.160   6.309   1.241  0.5460 -2.0948  1.1471
11673TIP3   OH256509   5.987   1.418   0.882 -0.0260  0.1953  0.5367
11673TIP3    H156510   5.933   1.494   0.902  1.3541  1.0635  1.1206
11673TIP3    H256511   5.992   1.369   0.964 -0.5756 -0.3207  0.2696
11674TIP3   OH256512   0.061   1.772  15.706  0.3547 -0.1332 -0.0778
11674TIP3    H156513   0.092   1.862  15.707 -0.4936  0.1772  1.1412
11674TIP3    H256514   0.022   1.759  15.793 -2.0325 -0.7845 -1.1639
11675TIP3   OH256515   0.529   1.938  11.039 -0.3365  0.1079 -0.3161
11675TIP3    H156516   0.512   2.011  11.097 -0.6243  0.0224 -0.2910
11675TIP3    H256517   0.443   1.915  11.004 -0.3204 -0.5313  0.0499
11676TIP3   OH256518   0.049   0.166  16.328  0.1032 -0.1968  0.3459
11676TIP3    H156519   0.061   0.127  16.242  2.6367  0.1037  0.5087
11676TIP3    H256520   0.027   0.258  16.310  2.8145  0.4498 -0.0576
11677TIP3   OH256521   2.446   3.965   0.446  0.1875  0.3418 -0.1935
11677TIP3    H156522   2.424   3.916   0.367 -1.3952 -0.2757  0.5802
11677TIP3    H256523   2.390   3.928   0.514  2.0943  0.2592  1.4500
11678TIP3   OH256524   0.635   5.697  11.523 -0.3663  0.1849 -1.1257
11678TIP3    H156525   0.687   5.766  11.565 -1.2145 -0.7824  1.7248
11678TIP3    H256526   0.688   5.618  11.532 -0.7496 -0.1287 -1.5816
11679TIP3   OH256527   6.202   0.747   5.435  0.5414 -0.0920  0.0615
11679TIP3    H156528   6.146   0.785   5.367  0.0519 -1.1282 -0.1380
11679TIP3    H256529   6.171   0.786   5.516 -0.6188 -0.7715 -0.0229
11680TIP3   OH256530   0.112   0.974  11.057  0.0279  0.2303  0.4072
11680TIP3    H156531   0.049   0.962  11.128 -1.0357  0.9145 -0.3928
11680TIP3    H256532   0.066   1.027  10.993  1.1367  0.0189 -0.5959
11681TIP3   OH256533   6.817   0.197   3.019 -0.5987  0.1398  0.0650
11681TIP3    H156534   6.813   0.292   3.007 -1.3146  0.3126  1.4522
11681TIP3    H256535   6.873   0.185   3.096  0.1968 -0.6300 -0.6072
11682TIP3   OH256536   4.399   2.224  12.141 -0.0304  0.4210  0.7851
11682TIP3    H156537   4.320   2.264  12.104 -0.4509  1.6235  2.7766
11682TIP3    H256538   4.381   2.130  12.139  0.4215  0.2929 -2.8281
11683TIP3   OH256539   1.036   6.718  16.013 -0.1035  0.4345  0.6203
11683TIP3    H156540   0.961   6.660  16.028 -0.0217 -0.4134 -1.7361
11683TIP3    H256541   0.998   6.803  15.993 -0.7275 -0.5374 -3.0325
11684TIP3   OH256542   0.251   3.830  11.232 -0.1594  0.0105 -0.2043
11684TIP3    H156543   0.313   3.813  11.303  0.4049 -0.2271 -0.7436
11684TIP3    H256544   0.208   3.746  11.217 -0.7047  0.2015  0.2449
11685TIP3   OH256545   2.182   0.627  14.522  0.3452  0.3651 -0.1374
11685TIP3    H156546   2.194   0.721  14.510  1.5009  0.0493 -1.9705
11685TIP3    H256547   2.202   0.589  14.436 -2.6897 -1.3732 -0.2053
11686TIP3   OH256548   0.946   4.501   4.457  0.2661 -0.5746  0.7715
11686TIP3    H156549   0.960   4.429   4.395  0.3267  0.1054 -0.0173
11686TIP3    H256550   0.851   4.511   4.461  0.2995  1.2031 -1.3907
11687TIP3   OH256551   4.035   5.686  13.185  0.4914  0.2378  0.2670
11687TIP3    H156552   3.970   5.746  13.149 -0.4443 -1.9282 -1.9821
11687TIP3    H256553   4.044   5.617  13.118  0.6849 -2.7129  3.0716
11688TIP3   OH256554   0.469   4.780   4.848 -0.3636  0.3523 -0.3409
11688TIP3    H156555   0.481   4.815   4.760  0.2195 -0.3001 -0.5302
11688TIP3    H256556   0.517   4.840   4.905  0.8797 -0.2835 -0.6972
11689TIP3   OH256557   0.751   6.181   3.426  0.1119  0.8896 -0.7872
11689TIP3    H156558   0.695   6.250   3.391  0.4112  1.3300 -0.4125
11689TIP3    H256559   0.692   6.129   3.480 -0.1941  0.6319 -1.3585
11690TIP3   OH256560   4.774   5.131   0.132 -0.4324 -0.3023 -0.5243
11690TIP3    H156561   4.695   5.184   0.142 -0.4587  0.1281 -2.5341
11690TIP3    H256562   4.799   5.144   0.041  1.1755 -1.5443 -0.2906
11691TIP3   OH256563   3.644   4.366   5.689  0.1580  0.1195  0.4407
11691TIP3    H156564   3.691   4.312   5.625 -1.9069 -2.0777  0.6267
11691TIP3    H256565   3.710   4.428   5.721  2.2466 -1.1888 -1.0476
11692TIP3   OH256566   6.557   6.316   5.940 -0.3083 -0.3345 -0.3515
11692TIP3    H156567   6.629   6.369   5.974 -0.5895 -0.9116  1.2283
11692TIP3    H256568   6.509   6.374   5.882 -1.4969  1.7022  2.4554
11693TIP3   OH256569   6.521   1.862  12.504  0.7260 -0.0695  0.6909
11693TIP3    H156570   6.478   1.919  12.569  1.4640 -0.3439  1.4373
11693TIP3    H256571   6.489   1.894  12.420 -0.4715  0.1167  1.1943
11694TIP3   OH256572   3.228   4.062  15.602  0.1695 -0.2491  0.0468
11694TIP3    H156573   3.211   4.067  15.508  1.5792  0.7827 -0.1863
11694TIP3    H256574   3.211   4.150  15.635 -0.3387 -0.6109  0.7773
11695TIP3   OH256575   5.396   5.586   2.724  0.0690 -0.3540 -0.3437
11695TIP3    H156576   5.442   5.612   2.645 -3.3400  1.3781 -1.9783
11695TIP3    H256577   5.304   5.605   2.706 -1.2443 -2.4423  3.0635
11696TIP3   OH256578   4.695   5.785  15.222  1.2457 -0.2137 -0.2854
11696TIP3    H156579   4.746   5.866  15.236  0.6926  0.4613 -1.9752
11696TIP3    H256580   4.616   5.814  15.178 -0.1562 -1.3995  1.3254
11697TIP3   OH256581   3.161   1.699   1.334  0.0508  0.3022 -0.3710
11697TIP3    H156582   3.087   1.748   1.299 -1.0718 -1.1510 -0.1065
11697TIP3    H256583   3.226   1.701   1.264 -1.0856 -0.2082 -1.4796
11698TIP3   OH256584   1.076   0.902   3.945  0.0523  0.1262 -0.8730
11698TIP3    H156585   1.036   0.953   4.015 -0.9958  0.4846 -1.7122
11698TIP3    H256586   1.091   0.816   3.984 -2.2238 -0.2631 -0.7098
11699TIP3   OH256587   0.293   4.504   3.310 -0.7682 -0.2090  0.2231
11699TIP3    H156588   0.372   4.515   3.363 -1.2897  0.8894  0.8153
11699TIP3    H256589   0.277   4.410   3.310  0.5206 -0.4402  0.1103
11700TIP3   OH256590   2.259   0.734  12.374 -0.4064  0.2781 -0.5703
11700TIP3    H156591   2.182   0.700  12.419  0.5946 -0.0608  0.9680
11700TIP3    H256592   2.298   0.658  12.331 -1.0232  0.4888 -1.5304
11701TIP3   OH256593   2.025   4.195   0.482 -0.5870  0.0766 -0.2920
11701TIP3    H156594   2.118   4.213   0.468 -0.6267  1.1227  0.6059
11701TIP3    H256595   2.023   4.111   0.528 -0.0797  0.1337 -0.1589
11702TIP3   OH256596   5.821   0.449   5.974  0.1052  0.4198 -0.2965
11702TIP3    H156597   5.825   0.539   5.942 -0.1925  1.0783  1.3971
11702TIP3    H256598   5.912   0.420   5.973 -0.0776 -0.4769 -3.8904
11703TIP3   OH256599   0.602   4.121   5.282  0.7032 -0.3105  0.7300
11703TIP3    H156600   0.629   4.035   5.248 -2.5298 -1.6594  1.2024
11703TIP3    H256601   0.615   4.181   5.209  1.4055 -1.5678 -0.2118
11704TIP3   OH256602   1.749   5.208  15.215  0.3519  0.5052  0.2090
11704TIP3    H156603   1.802   5.136  15.249 -0.6109 -1.4347 -2.0720
11704TIP3    H256604   1.672   5.210  15.272 -1.2045 -2.6283 -1.5304
11705TIP3   OH256605   5.904   1.518   5.818 -0.0929  0.3688  0.5230
11705TIP3    H156606   5.939   1.483   5.900  0.5749  1.9517  0.9639
11705TIP3    H256607   5.980   1.527   5.761  0.0015  2.2357  0.8791
11706TIP3   OH256608   4.871   4.090   5.981 -0.6903 -0.7607 -0.0647
11706TIP3    H156609   4.856   4.065   6.072  0.2433 -0.0230  0.3085
11706TIP3    H256610   4.845   4.182   5.977 -0.5753 -0.7468 -0.5076
11707TIP3   OH256611   3.380   4.330   5.221 -0.8294  0.0949  0.2015
11707TIP3    H156612   3.437   4.402   5.247  0.9432 -1.4666  0.8311
11707TIP3    H256613   3.364   4.345   5.128  0.0060  0.9494  0.1813
11708TIP3   OH256614   1.835   6.017  14.187 -0.4622 -0.8276 -0.1593
11708TIP3    H156615   1.804   6.048  14.272 -2.0495 -0.3297 -0.8862
11708TIP3    H256616   1.789   6.072  14.123 -0.0616 -1.8590 -1.3687
11709TIP3   OH256617   5.599   4.144   1.265  0.3860 -0.3133  0.0230
11709TIP3    H156618   5.585   4.160   1.172  0.6827  0.1955  0.0611
11709TIP3    H256619   5.689   4.112   1.271  0.0712 -1.2190  0.0417
11710TIP3   OH256620   4.574   0.632   4.230  0.0732 -0.2375  0.1036
11710TIP3    H156621   4.505   0.635   4.296  1.6677 -3.0667  2.1520
11710TIP3    H256622   4.655   0.639   4.281  1.3651  0.9004 -1.9820
11711TIP3   OH256623   4.842   5.129   5.911 -0.0511  0.3623 -0.0259
11711TIP3    H156624   4.804   5.122   5.998 -1.0673  0.7868 -0.4129
11711TIP3    H256625   4.841   5.040   5.877  1.1561  0.0507  0.7041
11712TIP3   OH256626   0.721   6.186   4.065 -0.2882  0.4008 -0.3153
11712TIP3    H156627   0.676   6.113   4.106  2.6644 -1.5741 -0.2498
11712TIP3    H256628   0.797   6.202   4.122 -1.2774  4.2640  0.2199
11713TIP3   OH256629   1.344   0.979   0.192 -0.5044 -0.5047  0.7169
11713TIP3    H156630   1.417   0.971   0.132  0.2049 -1.0594  1.6176
11713TIP3    H256631   1.298   0.895   0.186 -0.4275 -0.5647  0.9504
11714TIP3   OH256632   1.418   2.727  15.821 -0.1366 -0.3122  0.0439
11714TIP3    H156633   1.482   2.688  15.881  1.0628 -0.8076 -1.4874
11714TIP3    H256634   1.471   2.775  15.757 -1.4622  1.8424  0.4445
11715TIP3   OH256635   4.702   6.051  15.526  0.5058 -0.2517 -0.0617
11715TIP3    H156636   4.729   5.960  15.540  0.2676 -0.5712 -1.4696
11715TIP3    H256637   4.716   6.065  15.432  0.1642  1.0479  0.0646
11716TIP3   OH256638   0.974   5.206   0.995 -0.8761 -0.0397 -0.2117
11716TIP3    H156639   0.975   5.298   0.968 -2.6662  0.0385 -0.1429
11716TIP3    H256640   0.912   5.164   0.935 -1.8265 -0.7007  1.1761
11717TIP3   OH256641   0.013   4.889   2.371  0.3938  0.1366  0.3578
11717TIP3    H156642  -0.017   4.808   2.331 -0.1157  0.3736  0.2502
11717TIP3    H256643  -0.012   4.882   2.463  0.4698  0.1149  0.3771
11718TIP3   OH256644   1.662   0.783  11.560  0.4345  0.0695  0.3795
11718TIP3    H156645   1.612   0.780  11.642  0.6883  2.2776  0.6659
11718TIP3    H256646   1.752   0.801  11.587  0.7262 -0.2932 -0.3313
11719TIP3   OH256647   5.904   2.098   4.714  0.2306  0.1620 -0.0211
11719TIP3    H156648   5.813   2.125   4.715  0.1875  0.0468 -0.6817
11719TIP3    H256649   5.927   2.088   4.807  0.4463  3.0481  0.3244
11720TIP3   OH256650   1.558   5.010   2.956  0.2080 -0.1296 -0.5210
11720TIP3    H156651   1.491   5.007   3.024  1.4374  1.1798  0.8215
11720TIP3    H256652   1.521   5.065   2.887  0.0024  0.8964  0.3774
11721TIP3   OH256653   4.079   4.132  13.513 -0.1735  0.0142 -0.9290
11721TIP3    H156654   4.108   4.221  13.532  2.2180 -0.3907 -2.3168
11721TIP3    H256655   4.109   4.080  13.587 -4.0844  0.6406  1.3725
11722TIP3   OH256656   0.734   2.076  14.874 -0.1915  0.1783  0.3864
11722TIP3    H156657   0.742   2.164  14.911 -0.2411  0.8585 -1.1170
11722TIP3    H256658   0.646   2.075  14.836  0.6372  0.3674 -1.6776
11723TIP3   OH256659   1.768   4.733  15.211  0.3199 -0.5114 -0.3169
11723TIP3    H156660   1.797   4.792  15.142 -0.0206  0.8220  0.6311
11723TIP3    H256661   1.742   4.791  15.282  1.5500 -1.8332  1.3062
11724TIP3   OH256662   2.193   1.028  15.397 -0.4021  0.7211  0.3649
11724TIP3    H156663   2.142   1.082  15.457  1.2073  1.9010  0.7230
11724TIP3    H256664   2.279   1.020  15.438  0.1857  0.0667 -0.9387
11725TIP3   OH256665   1.743   2.844   6.299  0.5539 -0.3452 -0.2395
11725TIP3    H156666   1.788   2.808   6.375 -1.1021 -0.8596  0.5378
11725TIP3    H256667   1.651   2.820   6.311  0.1870 -0.1299 -2.2271
11726TIP3   OH256668   5.504   5.378   5.746 -0.3174 -0.3781  0.3026
11726TIP3    H156669   5.468   5.347   5.663 -0.1715 -2.2866  0.8938
11726TIP3    H256670   5.443   5.347   5.812 -0.4363  1.1287  0.9288
11727TIP3   OH256671   1.619   1.505  11.770 -0.1925 -0.0074  0.1250
11727TIP3    H156672   1.621   1.413  11.744 -0.0670 -0.2617  1.0217
11727TIP3    H256673   1.708   1.523  11.800  0.3167  0.9298 -1.7600
11728TIP3   OH256674   0.698   5.206  12.758  0.4271 -0.1827 -0.5528
11728TIP3    H156675   0.761   5.157  12.705  1.3281 -0.2473  0.5472
11728TIP3    H256676   0.724   5.297  12.747 -0.1305 -0.0879 -1.1583
11729TIP3   OH256677   3.774   5.002   3.935 -0.6460  0.0362 -0.1883
11729TIP3    H156678   3.708   4.933   3.933 -0.9708  0.3467 -1.9754
11729TIP3    H256679   3.855   4.957   3.959 -0.7660 -1.0836 -1.7258
11730TIP3   OH256680   1.813   3.783   3.133 -0.0398  0.2687 -0.0191
11730TIP3    H156681   1.812   3.876   3.113 -1.1534 -0.1062 -1.9706
11730TIP3    H256682   1.722   3.762   3.155  0.4495 -0.1268  1.8022
11731TIP3   OH256683   0.469   5.106   2.457  0.3049  0.0901 -0.5085
11731TIP3    H156684   0.392   5.084   2.509  1.6340 -1.8177  0.7718
11731TIP3    H256685   0.528   5.150   2.517  1.3651 -1.0506 -0.6684
11732TIP3   OH256686   4.586   5.637   3.439 -0.2794  0.1773 -0.0046
11732TIP3    H156687   4.581   5.588   3.521 -2.7735  0.8574  0.3406
11732TIP3    H256688   4.637   5.715   3.461 -0.2207 -0.0468  0.6767
11733TIP3   OH256689   4.587   1.258  16.542  0.2942 -0.3021  0.0090
11733TIP3    H156690   4.679   1.262  16.567  0.1811  0.4020  0.3503
11733TIP3    H256691   4.540   1.290  16.619 -0.4567 -3.2297  0.8919
11734TIP3   OH256692   3.827   2.261   5.745 -0.9348 -0.0035 -0.0330
11734TIP3    H156693   3.855   2.207   5.672  0.0251  0.6845 -0.1854
11734TIP3    H256694   3.898   2.256   5.809 -0.3760  1.8189 -0.4559
11735TIP3   OH256695   4.287   3.836   4.749  0.6219 -0.2976  0.1169
11735TIP3    H156696   4.288   3.931   4.737 -0.0586 -0.3609 -0.4897
11735TIP3    H256697   4.236   3.823   4.829 -0.7352 -0.2313 -0.7203
11736TIP3   OH256698   6.739   4.176   4.029  0.0038 -0.3926 -0.2237
11736TIP3    H156699   6.789   4.253   4.002 -1.0239 -0.0373 -1.2051
11736TIP3    H256700   6.794   4.101   4.005  0.2411 -0.0065 -0.8983
11737TIP3   OH256701   5.868   1.783   4.185  0.3620  0.1958 -1.0949
11737TIP3    H156702   5.954   1.768   4.146 -0.5495 -2.3743 -2.3523
11737TIP3    H256703   5.807   1.740   4.125 -1.8677  2.1465 -0.3784
11738TIP3   OH256704   5.311   2.821   3.101  0.1104 -0.1697 -0.0605
11738TIP3    H156705   5.354   2.736   3.115 -1.2938 -0.5965  2.1549
11738TIP3    H256706   5.382   2.885   3.109  0.7809 -1.0015  1.0772
11739TIP3   OH256707   5.055   1.591   6.043  0.0755  0.0231 -0.4389
11739TIP3    H156708   5.140   1.578   6.003 -0.4148 -4.3538 -0.4899
11739TIP3    H256709   4.992   1.575   5.973 -0.7599 -1.5446  0.6300
11740TIP3   OH256710   2.790   0.439  17.022 -0.2491  0.3605 -0.9338
11740TIP3    H156711   2.745   0.504  17.076 -1.0525  0.0447 -1.2036
11740TIP3    H256712   2.719   0.387  16.983  0.2517  0.9384 -2.7505
11741TIP3   OH256713   6.459   0.249  14.304  0.4843  0.2213  0.4326
11741TIP3    H156714   6.454   0.157  14.328  0.8229  0.5781  1.9734
11741TIP3    H256715   6.407   0.256  14.224  1.4860 -1.5157 -0.4200
11742TIP3   OH256716   5.375   2.021  16.808 -0.2278  0.4179  0.3992
11742TIP3    H156717   5.357   2.062  16.892 -0.7225  1.8415 -0.3622
11742TIP3    H256718   5.463   2.052  16.784  0.5639 -1.2300  1.0856
11743TIP3   OH256719   6.795   3.119  11.125 -0.1710  0.2382  0.0146
11743TIP3    H156720   6.882   3.092  11.154  0.3651 -0.9392 -2.4323
11743TIP3    H256721   6.735   3.073  11.185  0.8665 -1.2680 -0.0461
11744TIP3   OH256722   1.509   0.669  12.811 -0.1563 -0.4153  0.3277
11744TIP3    H156723   1.518   0.692  12.719  0.4486 -0.7631  0.2982
11744TIP3    H256724   1.415   0.662  12.825 -0.2185 -1.4355 -0.5314
11745TIP3   OH256725   0.555   5.293   3.786  0.5872 -0.1064 -0.4320
11745TIP3    H156726   0.489   5.277   3.854  0.8939 -0.7849 -0.2919
11745TIP3    H256727   0.553   5.388   3.773 -0.6048 -0.1382 -0.6179
11746TIP3   OH256728   3.686   4.398   1.713  0.1208 -0.2639  0.5971
11746TIP3    H156729   3.753   4.340   1.678 -1.2392 -1.3360 -0.3490
11746TIP3    H256730   3.720   4.426   1.798  1.5210 -1.1556  0.3647
11747TIP3   OH256731   0.827   6.498   3.336  0.1647 -0.3772 -0.4690
11747TIP3    H156732   0.905   6.444   3.346  0.2633 -0.0827  0.3899
11747TIP3    H256733   0.780   6.458   3.262 -0.4436 -2.4636  0.9543
11748TIP3   OH256734   4.043   2.254  15.146 -0.7602 -0.1907  0.2709
11748TIP3    H156735   3.978   2.284  15.211 -0.2469 -1.2530  1.3085
11748TIP3    H256736   4.003   2.276  15.062 -2.9388 -1.6476  0.8189
11749TIP3   OH256737   1.666   6.208  15.084  0.0728 -0.3692  0.1351
11749TIP3    H156738   1.717   6.138  15.043 -1.1605 -0.5899 -1.0827
11749TIP3    H256739   1.731   6.262  15.129  1.4478 -0.3317 -1.7951
11750TIP3   OH256740   5.586   3.337   5.540  0.0606  0.0214  0.4552
11750TIP3    H156741   5.497   3.370   5.529 -0.0208  0.0772  1.1991
11750TIP3    H256742   5.593   3.318   5.634  0.3746 -1.3116  0.1871
11751TIP3   OH256743   3.102   5.395  10.868 -0.3782  0.0672  0.3412
11751TIP3    H156744   3.127   5.450  10.793 -2.6670  3.8141  2.0333
11751TIP3    H256745   3.030   5.342  10.835 -0.0070  0.1542 -0.6421
11752TIP3   OH256746   4.122   4.563   2.884 -0.3233 -1.6141  0.3624
11752TIP3    H156747   4.053   4.623   2.857  0.4716 -0.6663  0.3843
11752TIP3    H256748   4.202   4.597   2.842  0.8651 -0.4153  3.3262
11753TIP3   OH256749   1.548   6.250  12.942 -0.6306 -0.0340 -0.5180
11753TIP3    H156750   1.623   6.294  12.904 -0.2795 -0.0971  0.0847
11753TIP3    H256751   1.565   6.251  13.036 -0.4319 -1.7482 -0.4967
11754TIP3   OH256752   4.796   6.076   3.932 -0.0355 -0.1168  0.3622
11754TIP3    H156753   4.845   6.149   3.972  0.4562 -0.0414 -0.3558
11754TIP3    H256754   4.755   6.032   4.006  0.3871  0.3634  0.8958
11755TIP3   OH256755   3.163   2.770   5.969 -0.0889 -0.1148 -0.0435
11755TIP3    H156756   3.216   2.830   5.918 -0.6313 -0.5162 -1.1063
11755TIP3    H256757   3.180   2.794   6.060  0.4335  0.9991 -0.4253
11756TIP3   OH256758   1.200   4.115  16.651 -0.0558 -0.5541 -0.1039
11756TIP3    H156759   1.278   4.090  16.601  0.6260  0.7194  0.2666
11756TIP3    H256760   1.202   4.057  16.728  2.3275  1.4120  1.5100
11757TIP3   OH256761   0.437   6.724   4.357  0.1180  0.3200 -0.0924
11757TIP3    H156762   0.476   6.807   4.388 -0.2697  0.4937 -0.0646
11757TIP3    H256763   0.344   6.734   4.375 -0.0244  0.1565 -0.7380
11758TIP3   OH256764   0.463   2.115   2.978  0.0027  0.1317  0.6094
11758TIP3    H156765   0.430   2.031   3.012  0.0703  0.4587  1.5026
11758TIP3    H256766   0.453   2.176   3.051 -0.8471  1.1171 -0.3093
11759TIP3   OH256767   1.559   3.618  14.431 -0.3627  0.1756 -0.0128
11759TIP3    H156768   1.487   3.593  14.490 -1.2353 -1.5248 -1.6736
11759TIP3    H256769   1.515   3.638  14.348  1.0540 -0.5078 -0.9566
11760TIP3   OH256770   5.451   4.098   5.982  0.1373  0.4575 -0.5125
11760TIP3    H156771   5.419   4.027   6.038  1.2167 -0.1880 -0.6854
11760TIP3    H256772   5.411   4.177   6.019  1.4202  0.1645  1.7102
11761TIP3   OH256773   3.825   3.654   4.500  0.2701 -0.2867 -0.1215
11761TIP3    H156774   3.747   3.629   4.548 -0.7895 -0.6716 -1.9310
11761TIP3    H256775   3.895   3.603   4.539 -0.8153 -1.6926  0.0463
11762TIP3   OH256776   0.633   4.828  11.184 -0.0211 -0.1093  0.0142
11762TIP3    H156777   0.689   4.753  11.205 -0.4902 -0.2535  0.7381
11762TIP3    H256778   0.649   4.843  11.090 -0.3674 -1.4871 -0.2945
11763TIP3   OH256779   1.779   4.683   6.755 -0.0074  0.1501 -0.4354
11763TIP3    H156780   1.848   4.626   6.789  0.6892  0.9557 -0.4618
11763TIP3    H256781   1.721   4.697   6.830 -0.1692 -0.5652 -0.4228
11764TIP3   OH256782   3.050   5.782  15.666 -0.0188 -0.2099  0.1545
11764TIP3    H156783   3.065   5.866  15.709 -1.5975  0.2679 -0.1637
11764TIP3    H256784   3.088   5.793  15.578  2.9642 -1.0959  1.2034
11765TIP3   OH256785   3.142   0.039   2.460  0.2645  0.1456  0.2777
11765TIP3    H156786   3.235   0.035   2.437  0.1049 -0.8112 -0.2592
11765TIP3    H256787   3.099   0.073   2.381 -0.1788 -2.2781 -0.5860
11766TIP3   OH256788   4.039   2.058  14.743 -0.2514  0.2858  0.1417
11766TIP3    H156789   4.007   2.034  14.830 -0.2236 -1.9403 -0.3933
11766TIP3    H256790   3.960   2.077  14.693 -0.4741 -0.9406 -0.0041
11767TIP3   OH256791   5.044   2.357  17.076 -0.0087  0.3814  0.0001
11767TIP3    H156792   5.014   2.270  17.102 -0.0375  0.8605  1.7179
11767TIP3    H256793   4.990   2.417  17.128 -1.5914  1.5670 -2.7654
11768TIP3   OH256794   2.745   0.285  13.124 -0.0858  0.1552 -0.4791
11768TIP3    H156795   2.668   0.327  13.087 -0.5018 -0.0688  0.1235
11768TIP3    H256796   2.818   0.343  13.100 -0.6891  1.4089  0.6382
11769TIP3   OH256797   1.597   0.247   1.369 -0.4459  0.5834  0.6723
11769TIP3    H156798   1.528   0.308   1.396 -0.8407  0.6540 -0.4553
11769TIP3    H256799   1.656   0.300   1.316 -0.2677  0.2150  0.4993
11770TIP3   OH256800   5.648   1.753   0.840 -0.2430  0.8703  0.2226
11770TIP3    H156801   5.689   1.822   0.893  0.1248  1.5782 -0.9394
11770TIP3    H256802   5.566   1.792   0.810  0.6760  1.4662 -1.7320
11771TIP3   OH256803   6.283   3.225  14.129 -0.5004 -0.3156 -0.0191
11771TIP3    H156804   6.224   3.159  14.093 -1.1181 -0.4128  1.1204
11771TIP3    H256805   6.354   3.175  14.169  0.3319 -0.2016 -1.2766
11772TIP3   OH256806   5.967   5.162  14.505 -0.1465  0.0420 -0.3112
11772TIP3    H156807   5.937   5.238  14.554  0.0695  0.0107 -0.1296
11772TIP3    H256808   6.024   5.198  14.437 -0.2113  0.0599 -0.3558
11773TIP3   OH256809   1.043   3.997   1.665  0.2337 -0.0292  0.2694
11773TIP3    H156810   1.135   4.020   1.648  0.3507  0.8886  1.9866
11773TIP3    H256811   0.995   4.078   1.647 -0.4016 -0.7638 -1.5500
11774TIP3   OH256812   2.703   3.536   4.701  0.2979 -0.5522 -0.0517
11774TIP3    H156813   2.660   3.534   4.615  1.9000 -3.1045 -0.9108
11774TIP3    H256814   2.783   3.587   4.686  0.3345 -0.5887  0.0205
11775TIP3   OH256815   5.980   1.713  15.308  0.0206  0.4191 -0.1708
11775TIP3    H156816   6.049   1.775  15.333 -0.0508  0.2317  0.5176
11775TIP3    H256817   6.025   1.628  15.304 -0.1235  0.3266  0.0955
11776TIP3   OH256818   4.442   0.504   1.470 -0.1608  0.0564 -0.8087
11776TIP3    H156819   4.532   0.474   1.477  0.6218  2.2571 -0.6457
11776TIP3    H256820   4.419   0.534   1.558 -1.2166 -0.8761 -0.7523
11777TIP3   OH256821   1.209   6.028   6.467  0.0121  0.2879  0.1095
11777TIP3    H156822   1.251   5.967   6.406 -1.8917 -0.7416 -0.2289
11777TIP3    H256823   1.199   5.977   6.548 -2.6010 -0.3114 -0.5138
11778TIP3   OH256824   0.330   6.240  12.516  0.2834  0.3504 -0.5958
11778TIP3    H156825   0.405   6.187  12.545 -0.0510 -0.3215 -0.9528
11778TIP3    H256826   0.254   6.196  12.554  0.0783  1.1487 -0.0650
11779TIP3   OH256827   1.073   3.940   0.917  0.8961 -0.4754  0.1256
11779TIP3    H156828   0.993   3.953   0.968  1.3396  1.0714  0.4994
11779TIP3    H256829   1.072   3.848   0.893  0.1573 -1.0269  2.0787
11780TIP3   OH256830   1.995   1.413  13.608 -0.4667 -0.0871 -0.5591
11780TIP3    H156831   1.993   1.410  13.513  1.8587 -1.3359 -0.6377
11780TIP3    H256832   2.075   1.461  13.629 -1.1234  0.4680  0.7770
11781TIP3   OH256833   3.912   4.894  11.339 -0.0166 -0.4421 -0.5010
11781TIP3    H156834   3.885   4.986  11.332 -0.6170 -0.5438  0.3399
11781TIP3    H256835   3.909   4.861  11.249  3.2126  1.1650 -1.3310
11782TIP3   OH256836   2.521   3.550   6.106 -0.1386 -0.4100  0.8937
11782TIP3    H156837   2.610   3.585   6.111 -0.5082  0.4872  1.5470
11782TIP3    H256838   2.502   3.547   6.013  1.8690 -4.0984  0.4129
11783TIP3   OH256839   2.176   0.255  14.494 -0.2938  0.2770  0.0800
11783TIP3    H156840   2.222   0.173  14.513 -1.7138 -0.3337  1.0208
11783TIP3    H256841   2.185   0.265  14.399  1.1954 -0.1508  0.1380
11784TIP3   OH256842   5.077   1.268  13.340 -0.7110  0.1692 -0.3937
11784TIP3    H156843   5.084   1.351  13.293 -0.0745 -1.5741 -3.6887
11784TIP3    H256844   5.094   1.202  13.273  1.9599 -2.5783  2.6761
11785TIP3   OH256845   1.131   4.947  16.925 -0.8582 -0.4046 -0.2304
11785TIP3    H156846   1.155   4.949  17.017  0.2582 -0.1876 -0.5161
11785TIP3    H256847   1.141   4.856  16.898  2.0850  0.0454 -0.9412
11786TIP3   OH256848   5.962   4.382  11.047 -0.3383  0.6511 -0.0123
11786TIP3    H156849   5.868   4.401  11.048 -0.2832  0.9415 -0.4025
11786TIP3    H256850   5.966   4.288  11.026 -0.5436  0.6120  0.1126
11787TIP3   OH256851   4.108   3.685  12.242  0.1970 -0.1975 -0.0984
11787TIP3    H156852   4.171   3.725  12.182 -0.9658  2.2719  0.2395
11787TIP3    H256853   4.161   3.625  12.295  2.0706  0.9722 -0.5545
11788TIP3   OH256854   4.302   5.146   1.836 -0.4123 -0.4060  0.1258
11788TIP3    H156855   4.371   5.209   1.817 -1.3685  0.2991 -1.2264
11788TIP3    H256856   4.262   5.177   1.917  0.2183 -0.2708  0.3925
11789TIP3   OH256857   6.699   0.127  11.401 -0.4530 -0.3033 -0.4570
11789TIP3    H156858   6.719   0.204  11.455 -0.7778 -1.1977  1.0086
11789TIP3    H256859   6.768   0.065  11.422 -1.0835 -0.9915 -0.3889
11790TIP3   OH256860   2.659   6.386  13.032 -0.0849  0.0095  0.3678
11790TIP3    H156861   2.575   6.431  13.022 -0.5807 -0.8552  0.5839
11790TIP3    H256862   2.716   6.428  12.967  0.0190  2.2063  1.7510
11791TIP3   OH256863   0.228   5.490  11.672  0.0967  0.1821  0.2455
11791TIP3    H156864   0.227   5.510  11.765  0.1133  1.5262 -0.0171
11791TIP3    H256865   0.269   5.567  11.631  0.8968 -0.7467 -0.7895
11792TIP3   OH256866   0.145   2.249  16.834 -0.4196 -1.1226  0.5795
11792TIP3    H156867   0.128   2.275  16.924 -0.1535  3.2085 -0.3832
11792TIP3    H256868   0.240   2.243  16.828 -0.4218 -1.1390  0.5608
11793TIP3   OH256869   6.479   2.726   0.356 -0.0204 -0.5920  0.9589
11793TIP3    H156870   6.541   2.681   0.298 -1.0608 -0.4965 -0.2708
11793TIP3    H256871   6.525   2.806   0.382  0.0270 -0.0024 -0.7775
11794TIP3   OH256872   4.758   2.232   3.395  0.0411  0.3380  0.0590
11794TIP3    H156873   4.746   2.323   3.367 -1.8983 -0.2103 -1.0397
11794TIP3    H256874   4.691   2.219   3.461 -1.7859 -1.1180 -1.9545
11795TIP3   OH256875   0.316   3.128   4.727  0.6159  0.3984 -0.3271
11795TIP3    H156876   0.406   3.156   4.739 -0.4039  3.7405  0.5414
11795TIP3    H256877   0.307   3.051   4.784  2.7894  0.1923 -0.1983
11796TIP3   OH256878   3.715   4.377   0.368  0.2475 -0.6854 -0.3355
11796TIP3    H156879   3.671   4.405   0.448  0.6758  0.6679 -0.5482
11796TIP3    H256880   3.686   4.287   0.355 -2.1742  0.0301 -0.2910
11797TIP3   OH256881   1.376   0.645   2.761 -0.2253  0.3652  1.0356
11797TIP3    H156882   1.437   0.650   2.687 -0.8620 -0.7649  0.3948
11797TIP3    H256883   1.311   0.713   2.743  0.0370  0.5953  0.9473
11798TIP3   OH256884   1.839   3.948  15.059 -0.0923 -0.4476 -0.2405
11798TIP3    H156885   1.744   3.963  15.056 -0.1466 -0.5757  0.8137
11798TIP3    H256886   1.876   4.032  15.033 -0.4783  0.0625  0.8050
11799TIP3   OH256887   3.892   0.087  12.563  0.2178  0.1105  0.6708
11799TIP3    H156888   3.973   0.100  12.612  0.1957  0.1655  0.6935
11799TIP3    H256889   3.832   0.046  12.626  0.1715  0.2319  0.7065
11800TIP3   OH256890   4.608   3.767  16.975  0.3916 -0.2449 -0.7504
11800TIP3    H156891   4.684   3.711  16.991  0.2399 -0.9119 -2.1910
11800TIP3    H256892   4.594   3.763  16.880 -1.4245 -0.1405 -0.5373
11801TIP3   OH256893   5.149   1.601   2.393  0.0296  0.0672  0.6921
11801TIP3    H156894   5.211   1.665   2.359  0.1143 -0.1864  0.3627
11801TIP3    H256895   5.185   1.516   2.365  0.9526 -0.2849  2.7110
11802TIP3   OH256896   5.381   6.606  14.102 -0.0779 -1.0798 -0.2336
11802TIP3    H156897   5.459   6.592  14.155  0.0821  0.3523 -0.0608
11802TIP3    H256898   5.340   6.520  14.097 -1.1089 -1.0555  3.8484
11803TIP3   OH256899   1.483   2.802  14.589  0.4813  0.6295  0.0680
11803TIP3    H156900   1.503   2.752  14.510  2.2144  0.3737  0.6470
11803TIP3    H256901   1.482   2.738  14.659 -0.0315  1.0193  0.4301
11804TIP3   OH256902   3.298   2.088  14.939  0.0807 -0.1607  0.1363
11804TIP3    H156903   3.216   2.053  14.904  0.9774  0.2333 -2.5674
11804TIP3    H256904   3.357   2.013  14.944  0.0695 -0.1488  0.4524
11805TIP3   OH256905   3.280   6.154   4.216  0.2175  0.1706  0.4960
11805TIP3    H156906   3.194   6.174   4.253 -0.0517  1.0421 -0.5412
11805TIP3    H256907   3.294   6.061   4.235 -0.1501  0.4300  2.2353
11806TIP3   OH256908   4.967   0.742   1.223  0.1867  0.8924  0.0504
11806TIP3    H156909   4.962   0.646   1.232  0.3159  0.9569  0.9043
11806TIP3    H256910   5.044   0.757   1.168  0.1032  0.5061 -0.1778
11807TIP3   OH256911   3.338   4.848  14.612 -0.2921 -0.3477 -0.1976
11807TIP3    H156912   3.407   4.915  14.610 -0.6295  0.0008 -0.4362
11807TIP3    H256913   3.304   4.851  14.701  0.1252 -0.6519 -0.0251
11808TIP3   OH256914   0.309   0.464   2.623  0.3084  0.1311  0.0627
11808TIP3    H156915   0.395   0.442   2.659 -0.3762 -0.6488  1.3037
11808TIP3    H256916   0.276   0.533   2.679  0.4105  0.9496 -0.8598
11809TIP3   OH256917   4.945   1.318   4.686  0.2011 -0.6992  0.0488
11809TIP3    H156918   4.947   1.243   4.746  0.2996 -0.7218  0.0175
11809TIP3    H256919   4.936   1.278   4.599 -0.6041 -0.6426  0.0999
11810TIP3   OH256920   6.301   5.304   6.516  0.4703  0.1280  0.0437
11810TIP3    H156921   6.361   5.281   6.586 -0.8653  0.2525  1.2662
11810TIP3    H256922   6.354   5.354   6.454  2.2771 -2.0737 -0.3068
11811TIP3   OH256923   1.846   2.455   4.578 -0.1044  0.8140 -0.1221
11811TIP3    H156924   1.854   2.550   4.575  0.4639  0.9304  2.2908
11811TIP3    H256925   1.937   2.423   4.576 -0.2394  0.4032  0.0857
11812TIP3   OH256926   0.220   1.575  15.528 -0.3164 -0.0201 -0.3676
11812TIP3    H156927   0.257   1.663  15.519  0.0032 -0.2338 -1.2239
11812TIP3    H256928   0.270   1.522  15.466 -0.8694 -0.6898 -0.2443
11813TIP3   OH256929   1.173   3.301   5.200  0.1398 -0.8971  0.0631
11813TIP3    H156930   1.235   3.230   5.187 -1.1869 -2.6135  2.3905
11813TIP3    H256931   1.093   3.272   5.155  0.1107 -0.0202 -0.4846
11814TIP3   OH256932   2.876   3.771   4.658  0.1165  0.1234  0.2622
11814TIP3    H156933   2.931   3.816   4.722  0.8623 -2.6775  1.7793
11814TIP3    H256934   2.920   3.788   4.574  1.9180  0.0005  1.1210
11815TIP3   OH256935   1.721   2.619   0.692  0.2000 -0.3019 -0.1580
11815TIP3    H156936   1.751   2.609   0.782  0.4015  0.5197 -0.1305
11815TIP3    H256937   1.637   2.573   0.689 -0.4859  0.8595  0.8154
11816TIP3   OH256938   3.563   4.134   0.314  0.6426  0.0930  0.3910
11816TIP3    H156939   3.587   4.045   0.288 -1.5436 -0.6539  0.7625
11816TIP3    H256940   3.472   4.127   0.343  0.1311  2.6236 -0.3850
11817TIP3   OH256941   0.211   5.094  14.648 -0.2581  0.5016 -0.1770
11817TIP3    H156942   0.260   5.037  14.707  0.9583 -0.6807 -2.2105
11817TIP3    H256943   0.244   5.182  14.667 -0.5270  0.2779  1.4637
11818TIP3   OH256944   0.555   0.905  14.234  0.0820  0.3655  0.2359
11818TIP3    H156945   0.469   0.946  14.221 -0.2537  0.0250  1.3105
11818TIP3    H256946   0.569   0.853  14.155  0.4196  2.3318 -1.0830
11819TIP3   OH256947   2.838   3.701  17.012  0.3520  0.6232 -0.3417
11819TIP3    H156948   2.807   3.628  17.065 -1.8805  0.6281 -1.5298
11819TIP3    H256949   2.902   3.746  17.068  0.5672 -1.2487  1.0279
11820TIP3   OH256950   5.403   5.674  12.864  0.5431 -0.0166  0.3812
11820TIP3    H156951   5.410   5.648  12.773 -0.0797 -1.2411  0.6640
11820TIP3    H256952   5.327   5.626  12.897  1.6000 -0.6916  1.9169
11821TIP3   OH256953   6.344   1.644  14.631  0.1652 -0.0500 -0.4114
11821TIP3    H156954   6.320   1.692  14.552 -3.7309  0.9712  1.1728
11821TIP3    H256955   6.333   1.708  14.702 -1.1682 -2.1299  1.3862
11822TIP3   OH256956   0.774   3.334  16.065  0.1744 -0.4160  0.6244
11822TIP3    H156957   0.757   3.253  16.017  1.4199 -0.1087 -0.4013
11822TIP3    H256958   0.694   3.386  16.053 -0.4902 -1.3291  0.9826
11823TIP3   OH256959   3.972   4.511   2.273 -0.3706  0.5408 -0.4922
11823TIP3    H156960   3.993   4.424   2.239 -1.1156 -0.2865  1.0825
11823TIP3    H256961   3.979   4.568   2.197  1.7707 -0.6006 -1.2332
11824TIP3   OH256962   4.532   5.329  16.088  0.0608  0.2306  0.2663
11824TIP3    H156963   4.483   5.308  16.009  0.0381  2.1615 -0.2732
11824TIP3    H256964   4.469   5.372  16.145  0.6466  1.0286  0.3310
11825TIP3   OH256965   5.902   2.159  16.687  0.2664 -0.5327  0.3954
11825TIP3    H156966   5.997   2.170  16.680  0.5351 -2.5194  0.4595
11825TIP3    H256967   5.874   2.232  16.742  1.8184 -0.1830  0.7712
11826TIP3   OH256968   3.548   3.284   2.865 -0.6837 -0.1895 -0.0270
11826TIP3    H156969   3.523   3.244   2.782 -0.2603 -0.5984  0.0356
11826TIP3    H256970   3.635   3.248   2.883 -0.7511 -0.0625  0.5632
11827TIP3   OH256971   5.836   5.822  13.080  0.0568  0.0484  0.0327
11827TIP3    H156972   5.899   5.788  13.017  1.2487  0.1494  1.1129
11827TIP3    H256973   5.795   5.744  13.117 -0.1628 -0.0368 -0.3863
11828TIP3   OH256974   3.286   0.343   2.360  0.2949  0.6824  0.2749
11828TIP3    H156975   3.313   0.253   2.340 -1.0439  0.2069  0.5216
11828TIP3    H256976   3.288   0.388   2.276  0.7378  0.3565  0.1077
11829TIP3   OH256977   2.149   5.902  15.986  0.2059 -0.3548 -0.2839
11829TIP3    H156978   2.187   5.980  15.946 -1.4090  0.6103 -0.0250
11829TIP3    H256979   2.084   5.936  16.047  0.3074 -1.8912  0.7228
11830TIP3   OH256980   3.377   4.797  12.538  0.3472 -0.1442 -0.0236
11830TIP3    H156981   3.436   4.801  12.614 -0.0006 -0.1517  0.2506
11830TIP3    H256982   3.359   4.704  12.526  1.1597 -0.2245 -0.7144
11831TIP3   OH256983   6.464   3.734  12.306 -0.5869  0.0685  0.0670
11831TIP3    H156984   6.466   3.674  12.381 -0.8164  0.9337  0.7941
11831TIP3    H256985   6.379   3.777  12.314 -1.0924 -0.6202 -1.3560
11832TIP3   OH256986   5.017   2.686   4.986 -0.2448 -0.1649  0.0080
11832TIP3    H156987   5.105   2.710   4.957 -0.0141 -0.3309  0.5539
11832TIP3    H256988   4.973   2.656   4.907  0.4620 -0.8792 -0.1207
11833TIP3   OH256989   0.056   1.441  16.838  1.1611 -0.2163 -0.0350
11833TIP3    H156990  -0.033   1.469  16.858  1.7122  0.3412  1.8205
11833TIP3    H256991   0.099   1.521  16.808  0.7000 -0.7795 -2.4526
11834TIP3   OH256992   4.055   5.015  14.165  0.1054 -0.1132  0.3303
11834TIP3    H156993   4.009   5.095  14.138  0.9066 -0.5180 -2.6523
11834TIP3    H256994   4.147   5.042  14.172  0.0651 -0.2890  1.6527
11835TIP3   OH256995   1.425   5.256  11.203  0.3066  0.2380 -0.3817
11835TIP3    H156996   1.430   5.273  11.297 -0.5778  3.5310 -0.8100
11835TIP3    H256997   1.480   5.323  11.163 -0.6195 -0.0414 -2.2669
11836TIP3   OH256998   5.058   2.570   0.439 -0.1908 -0.6152 -0.2290
11836TIP3    H156999   5.108   2.652   0.440  0.6029 -0.9024  4.0935
11836TIP3    H257000   5.123   2.502   0.423  0.5026 -0.7775  2.7537
11837TIP3   OH257001   2.760   6.352   1.618  0.0051  0.3090  0.1162
11837TIP3    H157002   2.690   6.362   1.554 -1.4052 -0.0071  1.5657
11837TIP3    H257003   2.778   6.258   1.620 -1.5700 -0.0032  1.7937
11838TIP3   OH257004   1.427   4.696   3.004  0.0996 -0.7649 -0.3658
11838TIP3    H157005   1.464   4.751   2.934  0.4094 -2.4775 -1.6288
11838TIP3    H257006   1.363   4.752   3.048  0.4514  0.6150 -1.5387
11839TIP3   OH257007   6.128   3.876   6.082 -0.2449 -0.2336 -0.1495
11839TIP3    H157008   6.189   3.937   6.123  0.5441  0.8968 -2.8183
11839TIP3    H257009   6.048   3.925   6.071 -0.9623 -1.0085  1.2669
11840TIP3   OH257010   3.886   3.189  10.903  0.3225  0.1068 -0.3690
11840TIP3    H157011   3.848   3.231  10.826 -0.8205 -1.0178 -0.4445
11840TIP3    H257012   3.967   3.150  10.872 -0.0185 -0.1399 -0.9615
11841TIP3   OH257013   2.648   5.396   2.806 -0.1480  0.4932 -1.2720
11841TIP3    H157014   2.645   5.399   2.902 -1.1813  1.1384 -1.3043
11841TIP3    H257015   2.736   5.426   2.784  0.5573 -0.8947 -0.5042
11842TIP3   OH257016   1.843   1.880   3.832 -0.2291 -0.1903 -0.0195
11842TIP3    H157017   1.813   1.790   3.827 -0.7926  0.0169 -0.6848
11842TIP3    H257018   1.830   1.906   3.923  0.1130 -0.8339  0.2130
11843TIP3   OH257019   1.912   1.304   1.781 -0.8225  0.1066 -0.8906
11843TIP3    H157020   1.998   1.265   1.797 -0.2169  1.9861  1.0225
11843TIP3    H257021   1.928   1.372   1.716 -0.8747  0.3447 -0.6584
11844TIP3   OH257022   2.274   4.217   3.980  0.1330 -0.1912  0.3920
11844TIP3    H157023   2.213   4.243   3.911  1.5255  1.9614 -0.1320
11844TIP3    H257024   2.255   4.278   4.052  0.9064 -0.2267  0.6333
11845TIP3   OH257025   0.775   5.528   5.937 -0.1099  0.1172  0.2817
11845TIP3    H157026   0.708   5.465   5.911 -0.2770 -0.0650  1.1369
11845TIP3    H257027   0.822   5.485   6.008  0.4985  0.5073  0.1211
11846TIP3   OH257028   4.904   3.113  15.645  0.1745 -0.1255 -0.0167
11846TIP3    H157029   4.945   3.044  15.697  1.0395  1.6725  1.8249
11846TIP3    H257030   4.820   3.130  15.689 -0.1831 -0.2332 -0.6515
11847TIP3   OH257031   3.979   1.393  13.047  0.0296  0.2481  0.2950
11847TIP3    H157032   4.035   1.337  13.101 -1.2190 -0.2994  1.0805
11847TIP3    H257033   3.891   1.382  13.085 -0.8193  0.1925 -1.5889
11848TIP3   OH257034   2.826   1.387   1.472  0.0865 -0.5060  0.2421
11848TIP3    H157035   2.900   1.329   1.460  0.2041 -0.2349 -0.3605
11848TIP3    H257036   2.828   1.445   1.396 -1.8844 -1.7367 -0.8456
11849TIP3   OH257037   4.498   5.782   0.451  0.1296 -0.2932 -0.4654
11849TIP3    H157038   4.472   5.783   0.359 -0.7049  1.7215 -0.2634
11849TIP3    H257039   4.574   5.840   0.454  0.9968 -1.4115 -0.0653
11850TIP3   OH257040   4.011   1.960   4.074 -0.2752  0.1878 -0.7028
11850TIP3    H157041   3.965   1.910   4.007  0.7215  1.3172 -2.3044
11850TIP3    H257042   4.101   1.929   4.069  0.0063  0.9549 -0.5785
11851TIP3   OH257043   1.021   5.513   2.106 -0.0651  0.5635  0.2881
11851TIP3    H157044   1.059   5.500   2.019  1.3249  2.7297  0.5049
11851TIP3    H257045   1.064   5.447   2.161  0.1377  0.1424 -0.3675
11852TIP3   OH257046   1.326   4.966  13.097 -0.0914  0.5571  0.0254
11852TIP3    H157047   1.353   4.975  13.189 -0.3273  0.3494  0.1137
11852TIP3    H257048   1.295   5.053  13.073  0.7907  0.8420 -0.1213
11853TIP3   OH257049   4.093   1.836   1.956 -0.0536 -0.3973 -0.2431
11853TIP3    H157050   4.183   1.813   1.932 -0.1490 -0.7057 -0.3125
11853TIP3    H257051   4.040   1.764   1.922 -0.1034 -1.3904  1.7362
11854TIP3   OH257052   6.527   0.150  10.951  0.4837  0.0321 -0.5743
11854TIP3    H157053   6.553   0.127  11.040  2.8551 -0.8558 -1.4203
11854TIP3    H257054   6.569   0.234  10.935 -0.6239  0.5933 -0.5924
11855TIP3   OH257055   1.841   4.368  14.434  0.5018  0.0970  0.5379
11855TIP3    H157056   1.897   4.291  14.446 -0.5297 -0.7246  0.2062
11855TIP3    H257057   1.846   4.387  14.340 -1.2921 -1.2045  0.1299
11856TIP3   OH257058   5.551   3.591   3.362 -0.0067 -0.1095 -0.0558
11856TIP3    H157059   5.595   3.608   3.444  0.4740  1.8603 -0.6615
11856TIP3    H257060   5.615   3.615   3.295 -0.8780 -0.2861 -0.9770
11857TIP3   OH257061   4.376   6.450  15.677  0.0275 -0.1432 -0.0554
11857TIP3    H157062   4.447   6.449  15.742 -2.4988 -1.3683  2.9488
11857TIP3    H257063   4.380   6.364  15.636  0.8361  0.1672 -0.6745
11858TIP3   OH257064   0.280   1.068   6.014 -0.5522 -0.3679  0.5782
11858TIP3    H157065   0.342   1.138   6.037  0.2146 -0.7982 -0.1058
11858TIP3    H257066   0.200   1.089   6.062 -0.3285  0.9688  0.3914
11859TIP3   OH257067   6.604   4.721  11.237 -0.4957  0.3668 -0.0823
11859TIP3    H157068   6.586   4.681  11.152 -2.1363 -0.0334  0.4191
11859TIP3    H257069   6.638   4.649  11.291 -0.9150  0.2549  0.0376
11860TIP3   OH257070   4.088   2.779  15.664 -0.1570 -0.6342 -0.3559
11860TIP3    H157071   4.100   2.760  15.571  1.1348 -1.3070 -0.0731
11860TIP3    H257072   4.038   2.861  15.665 -0.2375 -0.6378 -1.6333
11861TIP3   OH257073   5.317   5.328   3.356 -0.8897  0.2644  0.2883
11861TIP3    H157074   5.263   5.383   3.300  0.4721  0.6218 -0.7152
11861TIP3    H257075   5.254   5.274   3.404 -2.1192  0.5114 -0.9873
11862TIP3   OH257076   4.041   2.229   3.974 -0.0701  0.4712 -0.6246
11862TIP3    H157077   4.040   2.133   3.977  1.0577  0.4314 -1.1677
11862TIP3    H257078   3.949   2.253   3.962 -0.4831 -0.4932  0.4003
11863TIP3   OH257079   4.767   0.856  14.229 -0.4630 -0.1721  0.0417
11863TIP3    H157080   4.728   0.826  14.147 -0.3791  0.5199 -0.2601
11863TIP3    H257081   4.855   0.885  14.205 -0.5933  0.4546  0.2873
11864TIP3   OH257082   6.484   1.497  13.575  1.0558  0.8743  0.0523
11864TIP3    H157083   6.448   1.460  13.656  3.9483  0.4386  1.2988
11864TIP3    H257084   6.424   1.469  13.507 -0.1565 -0.9515  1.7396
11865TIP3   OH257085   2.945   0.018   0.630 -0.5935 -0.1438  0.3226
11865TIP3    H157086   2.912   0.057   0.549  0.1119  0.4561  0.3077
11865TIP3    H257087   2.874  -0.038   0.661 -1.5168  0.8965  0.1614
11866TIP3   OH257088   5.956   6.570   2.488 -0.2272  0.2011  0.3541
11866TIP3    H157089   5.877   6.519   2.476 -0.7121  1.0398 -0.1150
11866TIP3    H257090   6.027   6.511   2.464 -0.7959 -0.1358 -0.5529
11867TIP3   OH257091   0.762   5.936  13.183  0.3831 -0.7560  0.1155
11867TIP3    H157092   0.778   6.028  13.200  4.3340 -1.3573  0.6998
11867TIP3    H257093   0.671   5.932  13.155  0.1501  3.3289 -0.3268
11868TIP3   OH257094   1.611   1.512  13.721  0.1486  0.1528 -0.2136
11868TIP3    H157095   1.693   1.528  13.767  1.5948 -0.7858 -2.3167
11868TIP3    H257096   1.622   1.426  13.681 -1.5685  0.3277 -1.1698
11869TIP3   OH257097   2.361   3.445  12.677 -0.4896  0.1467 -0.0207
11869TIP3    H157098   2.408   3.528  12.677 -0.0129 -0.0982 -1.1735
11869TIP3    H257099   2.421   3.384  12.634 -0.2455 -1.1700  2.0389
11870TIP3   OH257100   2.083   4.674  11.683 -0.1707  0.3594  0.2116
11870TIP3    H157101   2.093   4.611  11.612 -1.3181  1.0236 -0.5582
11870TIP3    H257102   2.171   4.681  11.721 -0.0565 -1.8282  0.4552
11871TIP3   OH257103   0.730   2.018  13.122  0.5781 -0.2253 -0.3145
11871TIP3    H157104   0.675   2.033  13.045 -0.1081  0.6290  0.3289
11871TIP3    H257105   0.791   2.092  13.124 -0.8295  0.9760  1.1532
11872TIP3   OH257106   6.336   2.923   6.494  0.0696 -0.5948 -0.0049
11872TIP3    H157107   6.399   2.853   6.507 -1.8173 -2.4153 -0.1098
11872TIP3    H257108   6.389   3.001   6.479  2.3063 -1.2824  3.3196
11873TIP3   OH257109   3.054   3.207   2.809  0.8475  0.3280  0.1827
11873TIP3    H157110   3.120   3.262   2.850 -0.1336  0.5907  1.4810
11873TIP3    H257111   2.983   3.268   2.786  0.9622  0.0324 -1.0344
11874TIP3   OH257112   1.429   2.886  13.063  0.5421 -0.1807 -0.6625
11874TIP3    H157113   1.367   2.945  13.108  0.0309  0.9462 -2.7233
11874TIP3    H257114   1.433   2.809  13.119 -3.0352 -0.4607 -0.5579
11875TIP3   OH257115   6.158   2.989  11.498  0.1778  0.3092 -0.2303
11875TIP3    H157116   6.070   2.955  11.508 -0.8395  2.5691 -0.8865
11875TIP3    H257117   6.173   2.992  11.404  1.2240 -0.6490 -0.1115
11876TIP3   OH257118   3.510   4.456  15.839 -0.1711 -0.4569  0.2477
11876TIP3    H157119   3.451   4.403  15.893  1.3194 -1.4485  0.9777
11876TIP3    H257120   3.511   4.413  15.754 -0.0103 -0.8168  0.4298
11877TIP3   OH257121   4.925   3.677  16.643 -0.2640 -0.2943 -0.7002
11877TIP3    H157122   4.834   3.648  16.637 -0.0738 -1.0541 -0.1109
11877TIP3    H257123   4.966   3.645  16.562 -0.9431  1.7382 -1.9224
11878TIP3   OH257124   5.760   2.301  14.901  0.4773  0.1638  0.0498
11878TIP3    H157125   5.842   2.263  14.933  0.7262  2.4689  2.4993
11878TIP3    H257126   5.695   2.233  14.916  2.0145 -2.4231 -3.5580
11879TIP3   OH257127   4.389   1.355   1.384  0.5117 -0.5624  0.3366
11879TIP3    H157128   4.362   1.308   1.463 -3.8882  0.9368 -0.0043
11879TIP3    H257129   4.371   1.447   1.402  0.4850 -0.0354 -1.9755
11880TIP3   OH257130   5.082   6.271   2.083  0.3174  0.6423 -0.0107
11880TIP3    H157131   5.083   6.178   2.105 -1.4336  0.5836 -0.0152
11880TIP3    H257132   5.103   6.274   1.990 -2.7418 -0.1351 -0.8681
11881TIP3   OH257133   4.484   2.346  16.559 -0.2479 -0.2904  0.0221
11881TIP3    H157134   4.507   2.254  16.562  0.2025 -0.2773  4.7920
11881TIP3    H257135   4.388   2.348  16.562 -0.2478 -0.6129  0.2030
11882TIP3   OH257136   2.917   1.484  12.297  0.0315  0.5943 -0.1609
11882TIP3    H157137   3.003   1.507  12.331 -0.5510  0.8619  1.1903
11882TIP3    H257138   2.883   1.565  12.259 -0.4726  1.0428  1.2031
11883TIP3   OH257139   1.757   0.763   4.426 -0.4483 -0.1097  0.0024
11883TIP3    H157140   1.710   0.750   4.508  2.6186 -0.2877  1.8747
11883TIP3    H257141   1.807   0.843   4.440  0.4666 -0.3798 -1.5524
11884TIP3   OH257142   6.390   2.261  12.595 -0.2809  0.2339  0.1989
11884TIP3    H157143   6.422   2.264  12.685  1.3584 -1.4696 -0.2753
11884TIP3    H257144   6.302   2.225  12.602 -0.9955  2.0370  1.2481
11885TIP3   OH257145   3.514   1.970   2.611  0.1409  0.0431  0.2093
11885TIP3    H157146   3.507   2.055   2.655 -2.1578 -0.0444  0.1528
11885TIP3    H257147   3.506   1.906   2.681 -0.3106 -0.1149  0.0136
11886TIP3   OH257148   6.010   1.680  12.793  0.0710 -0.2396  0.5742
11886TIP3    H157149   6.055   1.627  12.726 -0.5794  0.8971 -0.8173
11886TIP3    H257150   6.053   1.656  12.875  1.4899 -1.0473 -0.3612
11887TIP3   OH257151   4.985   6.280   4.007  0.1703 -0.1043  0.3629
11887TIP3    H157152   5.062   6.283   4.064 -0.3109  0.4885  1.0025
11887TIP3    H257153   5.003   6.346   3.939  0.1887  0.1001  0.5637
11888TIP3   OH257154   0.616   4.328   2.522 -0.2884 -0.2210 -0.0382
11888TIP3    H157155   0.624   4.343   2.428 -1.9153 -0.6308 -0.2833
11888TIP3    H257156   0.586   4.412   2.558  2.7629  0.7292  0.5662
11889TIP3   OH257157   3.597   1.836  11.738 -0.2671  0.3548  0.5164
11889TIP3    H157158   3.665   1.790  11.789 -2.0447 -0.7590  2.0001
11889TIP3    H257159   3.614   1.810  11.648 -0.4066 -2.2607  1.1580
11890TIP3   OH257160   1.295   4.155  11.136  0.1785 -0.3453  0.0720
11890TIP3    H157161   1.231   4.130  11.069  1.0641 -0.3614 -0.7947
11890TIP3    H257162   1.360   4.085  11.134  1.3340  0.7002 -0.5736
11891TIP3   OH257163   5.393   4.606   2.487 -0.3781 -0.0201 -0.0693
11891TIP3    H157164   5.428   4.544   2.423 -0.5017 -0.1740  0.0126
11891TIP3    H257165   5.304   4.624   2.457 -0.8337 -0.9526  0.6739
11892TIP3   OH257166   6.612   2.259  15.535  0.2134  0.0442 -0.2002
11892TIP3    H157167   6.549   2.188  15.522  0.7675 -1.1357  2.8234
11892TIP3    H257168   6.562   2.339  15.517 -1.5268 -0.9557  0.0190
11893TIP3   OH257169   5.190   2.966   5.038  0.0491  0.7660  0.3989
11893TIP3    H157170   5.274   2.969   5.084  0.2666  1.5597 -0.0342
11893TIP3    H257171   5.154   3.054   5.048 -0.5539  0.5425  0.2509
11894TIP3   OH257172   5.169   5.874   3.843 -0.1503  0.4267 -0.0065
11894TIP3    H157173   5.250   5.902   3.800  0.7827  0.0804  1.4258
11894TIP3    H257174   5.108   5.946   3.829  0.0367  0.2483 -2.0127
11895TIP3   OH257175   6.706   3.737   1.045 -0.0532 -0.4039 -0.1364
11895TIP3    H157176   6.749   3.672   0.989 -1.6034 -0.8110 -0.9279
11895TIP3    H257177   6.673   3.803   0.983  0.3396  0.4434  0.5376
11896TIP3   OH257178   0.469   1.720   3.997  0.3442  0.4452 -0.0282
11896TIP3    H157179   0.537   1.689   3.937  1.4729  2.1734  0.2686
11896TIP3    H257180   0.515   1.780   4.056 -1.5626  2.3477 -0.3474
11897TIP3   OH257181   2.296   0.501   1.399 -0.4557 -0.0786  0.2944
11897TIP3    H157182   2.276   0.437   1.467 -0.6492  0.9133  1.2046
11897TIP3    H257183   2.294   0.451   1.317 -1.3432 -1.0804  0.8998
11898TIP3   OH257184   4.464   3.172   4.371  0.2051  0.1106 -0.1372
11898TIP3    H157185   4.479   3.195   4.463  1.5758 -0.2292 -0.2502
11898TIP3    H257186   4.369   3.172   4.361  0.0718  2.1262  0.7641
11899TIP3   OH257187   3.416   3.424  15.828  0.4663 -0.2530  0.6033
11899TIP3    H157188   3.449   3.508  15.795 -0.0332 -0.3697 -0.2330
11899TIP3    H257189   3.480   3.397  15.893  0.6477  0.7653  0.8655
11900TIP3   OH257190   4.869   1.830  11.980 -0.9153  0.1726 -0.5216
11900TIP3    H157191   4.920   1.793  11.908 -0.9637 -0.6903 -0.1277
11900TIP3    H257192   4.930   1.886  12.028  0.0467 -1.8011  0.6708
11901TIP3   OH257193   4.615   0.796  14.010  0.0832 -0.0682  0.1500
11901TIP3    H157194   4.601   0.768  13.919  0.4971  0.3497 -0.0479
11901TIP3    H257195   4.538   0.765  14.057  1.3097 -3.2153  0.3325
11902TIP3   OH257196   0.824   3.475  15.646 -0.0240  0.0747  0.0478
11902TIP3    H157197   0.880   3.510  15.577 -0.2206  1.0580  0.3707
11902TIP3    H257198   0.762   3.545  15.665 -1.7124 -1.1618 -0.6398
11903TIP3   OH257199   6.652   3.563   2.973  0.6575 -0.2213  0.2651
11903TIP3    H157200   6.587   3.626   3.003  0.8099  0.1504 -0.1695
11903TIP3    H257201   6.602   3.483   2.955  0.7911 -1.0920  3.2302
11904TIP3   OH257202   6.196   5.154   5.796 -0.2065  0.3182 -0.6092
11904TIP3    H157203   6.218   5.095   5.724  0.0267 -0.4550  0.0818
11904TIP3    H257204   6.153   5.098   5.860 -0.0859  0.9274  0.0101
11905TIP3   OH257205   5.035   1.308  16.375 -0.2104 -0.5899  0.0253
11905TIP3    H157206   5.112   1.251  16.370 -0.1903 -0.4864 -1.0657
11905TIP3    H257207   5.070   1.392  16.403 -0.0765 -0.8052  0.5196
11906TIP3   OH257208   2.868   3.855  12.590 -0.5109 -0.6119  0.0401
11906TIP3    H157209   2.807   3.870  12.518 -2.2407  0.5308  1.6409
11906TIP3    H257210   2.937   3.801  12.553 -0.2000  1.6351 -3.0547
11907TIP3   OH257211   5.257   0.935   3.120 -0.0171  0.0697 -0.0471
11907TIP3    H157212   5.210   0.991   3.058  0.2521  0.5631  0.1909
11907TIP3    H257213   5.328   0.989   3.152  0.1044 -0.3316  0.3689
11908TIP3   OH257214   6.323   4.183  13.801 -0.1342  0.5003 -0.0100
11908TIP3    H157215   6.363   4.143  13.878 -1.9872  1.7906  1.7150
11908TIP3    H257216   6.237   4.142  13.795 -0.3436  1.0527 -0.9111
11909TIP3   OH257217   0.655   6.596   4.674 -0.9638  0.0597 -0.2147
11909TIP3    H157218   0.700   6.577   4.592 -0.8647  1.2359 -0.4442
11909TIP3    H257219   0.592   6.524   4.684  0.1168 -0.9682 -0.4856
11910TIP3   OH257220   4.303   0.186   2.423  0.0773 -0.5359  0.2748
11910TIP3    H157221   4.221   0.177   2.470 -0.6391 -0.7978 -0.9890
11910TIP3    H257222   4.301   0.117   2.357 -0.5235  1.8198 -2.3666
11911TIP3   OH257223   6.436   3.305   5.981  0.1271 -0.0247 -0.1161
11911TIP3    H157224   6.486   3.384   6.003 -0.0725  0.3800 -1.0303
11911TIP3    H257225   6.492   3.233   6.007  1.1213  0.4251 -0.9355
11912TIP3   OH257226   0.714   5.038   3.881 -0.3124 -0.0031  0.0195
11912TIP3    H157227   0.778   5.021   3.951  0.8129 -0.5079 -1.0926
11912TIP3    H257228   0.698   5.132   3.886 -0.5475 -0.0785  1.1813
11913TIP3   OH257229   3.841   2.822   1.455  0.4486  0.4192  0.1709
11913TIP3    H157230   3.749   2.811   1.480  0.0542 -2.4048 -1.9687
11913TIP3    H257231   3.874   2.889   1.515 -2.3847 -0.1026  2.5895
11914TIP3   OH257232   2.277   1.546   0.168 -0.7095 -0.0236 -0.4949
11914TIP3    H157233   2.369   1.549   0.143 -0.7526  2.1318 -0.5505
11914TIP3    H257234   2.230   1.582   0.092 -1.3235  1.4875  0.5597
11915TIP3   OH257235   2.947   3.783  11.848 -0.2979 -0.0533  0.4223
11915TIP3    H157236   2.927   3.712  11.787 -0.3963  0.2083  0.1494
11915TIP3    H257237   3.039   3.804  11.832 -0.7398  1.1022 -0.7800
11916TIP3   OH257238   3.172   4.673  16.622 -0.1437 -0.0405  0.3405
11916TIP3    H157239   3.224   4.660  16.543  0.2247 -0.1206  0.5933
11916TIP3    H257240   3.230   4.723  16.681  0.0310 -0.9944  1.0072
11917TIP3   OH257241   6.535   3.641  13.189  0.4604 -0.5975  0.2214
11917TIP3    H157242   6.546   3.557  13.234  1.1575 -1.6194 -1.7685
11917TIP3    H257243   6.574   3.628  13.103  0.1966  1.6544 -0.3000
11918TIP3   OH257244   0.604   2.616  10.539 -0.3808  0.5023  0.2101
11918TIP3    H157245   0.677   2.555  10.541  0.9202  1.9833  0.1566
11918TIP3    H257246   0.530   2.567  10.574  0.8119 -0.8326  0.9646
11919TIP3   OH257247   1.908   3.169  12.902  0.2827  0.0763  0.4659
11919TIP3    H157248   1.870   3.210  12.980 -0.7434 -0.6442  0.3641
11919TIP3    H257249   1.906   3.237  12.836 -0.5497  0.1497  0.5590
11920TIP3   OH257250   6.247   3.067   1.617 -0.4203  0.2217 -0.2897
11920TIP3    H157251   6.258   3.093   1.708 -0.0065  2.6131 -0.9631
11920TIP3    H257252   6.178   3.125   1.583 -0.7990 -0.8399 -1.4308
11921TIP3   OH257253   3.671   4.449   0.099  0.1208 -0.5614 -0.0866
11921TIP3    H157254   3.580   4.477   0.104 -0.5153 -2.6635  1.3342
11921TIP3    H257255   3.705   4.460   0.187  0.8875 -0.8862 -0.3315
11922TIP3   OH257256   6.083   6.748  13.671 -0.0837  0.3978  0.0823
11922TIP3    H157257   6.109   6.733  13.762  1.0317 -1.2969 -0.4627
11922TIP3    H257258   5.988   6.752  13.673 -0.1103 -0.4765  1.2171
11923TIP3   OH257259   6.174   0.256  10.739  0.4288 -0.1330 -0.4230
11923TIP3    H157260   6.171   0.284  10.647  0.8455  1.4405  0.0126
11923TIP3    H257261   6.108   0.310  10.783  0.3539 -0.7514  0.2340
11924TIP3   OH257262   4.888   5.971   4.393 -0.3534 -0.1673  0.3239
11924TIP3    H157263   4.877   5.934   4.480 -1.1758 -1.8116 -0.4360
11924TIP3    H257264   4.979   5.954   4.370 -0.4318 -0.7464  0.4326
11925TIP3   OH257265   0.421   2.053   6.269  0.0158  0.1508  0.4228
11925TIP3    H157266   0.334   2.033   6.234  0.0339 -0.6179  0.7922
11925TIP3    H257267   0.417   2.027   6.361 -0.1535  2.5145  1.1407
11926TIP3   OH257268   6.062   3.621  12.740  0.6834  0.5281  1.0913
11926TIP3    H157269   6.078   3.596  12.649 -1.1666  0.4768  0.7486
11926TIP3    H257270   6.005   3.552  12.774 -0.3444  1.6205  1.6534
11927TIP3   OH257271   6.246   2.471   0.778 -0.1984  0.0103 -0.0211
11927TIP3    H157272   6.210   2.518   0.853 -0.3114  1.4187 -0.9160
11927TIP3    H257273   6.255   2.538   0.710  1.1208 -0.9596 -0.8525
11928TIP3   OH257274   5.157   6.326  10.518 -0.1296  0.1700 -0.4602
11928TIP3    H157275   5.242   6.308  10.477 -0.4155 -1.3500 -0.4507
11928TIP3    H257276   5.161   6.281  10.602 -1.7854 -2.0452 -1.4686
11929TIP3   OH257277   5.050   0.382  12.523 -0.4452  0.5154  0.0100
11929TIP3    H157278   5.132   0.376  12.573 -0.2174  0.1248 -0.4041
11929TIP3    H257279   4.987   0.333  12.576  0.5905 -2.9374 -1.6638
11930TIP3   OH257280   0.299   2.524  15.259  0.2013 -0.1060  0.0683
11930TIP3    H157281   0.221   2.561  15.301  1.6297  1.7176  1.2643
11930TIP3    H257282   0.323   2.450  15.314 -0.7675 -0.8298 -0.4374
11931TIP3   OH257283   5.711   1.758  17.204  0.0076  0.0614 -0.5878
11931TIP3    H157284   5.679   1.841  17.238  0.5233 -0.5507  1.5722
11931TIP3    H257285   5.645   1.694  17.229  0.1604 -0.3510 -1.2157
11932TIP3   OH257286   1.632   6.334   5.001 -0.1238 -0.3797  0.3704
11932TIP3    H157287   1.665   6.423   5.006 -0.6396 -0.2093  0.7519
11932TIP3    H257288   1.623   6.306   5.092 -0.2261 -0.7211  0.2583
11933TIP3   OH257289   0.515   3.040  11.006 -0.9233 -0.0638  0.5026
11933TIP3    H157290   0.529   2.946  10.997  0.1526 -0.0993  2.0582
11933TIP3    H257291   0.440   3.048  11.065 -0.7637  0.0355  0.6959
11934TIP3   OH257292   4.935   2.416   5.745 -0.0520  0.2773 -0.4265
11934TIP3    H157293   4.850   2.398   5.786 -0.4997  1.0564 -0.9896
11934TIP3    H257294   4.978   2.478   5.804  0.7154 -1.1031  0.5504
11935TIP3   OH257295   6.607   3.580  11.615  0.4701  0.0196  0.2996
11935TIP3    H157296   6.523   3.534  11.611 -0.1603  1.2384 -1.2350
11935TIP3    H257297   6.630   3.579  11.708 -0.8259 -1.0341  0.6437
11936TIP3   OH257298   5.466   3.105   1.130  0.3307  1.1522 -0.3747
11936TIP3    H157299   5.538   3.076   1.075 -0.9650 -0.7979 -1.1459
11936TIP3    H257300   5.414   3.162   1.074  0.4517  1.3185 -0.3168
11937TIP3   OH257301   5.827   3.202  11.261  0.4359  0.9113 -0.8484
11937TIP3    H157302   5.741   3.238  11.282 -0.3071 -0.8929 -0.5923
11937TIP3    H257303   5.830   3.119  11.310  1.0742 -0.5390 -3.1791
11938TIP3   OH257304   0.012   3.581   3.193 -0.3482 -0.0001  0.1844
11938TIP3    H157305   0.051   3.495   3.204 -0.5163  0.0381  1.1616
11938TIP3    H257306  -0.040   3.574   3.113  0.9741 -0.2945 -0.6766
11939TIP3   OH257307   3.328   0.339   6.153 -0.4526  0.0890  0.5973
11939TIP3    H157308   3.245   0.363   6.110  0.2595 -0.6666 -1.2818
11939TIP3    H257309   3.316   0.247   6.178  0.3783 -0.5410 -1.1915
11940TIP3   OH257310   0.361   6.341  16.181  0.0270  0.0567 -0.1584
11940TIP3    H157311   0.329   6.431  16.184 -1.7858 -0.5621  0.4011
11940TIP3    H257312   0.422   6.335  16.255 -1.0728  0.4138  0.8066
11941TIP3   OH257313   1.134   3.069   4.480 -0.6008 -0.4240 -0.6884
11941TIP3    H157314   1.169   3.145   4.433  2.2902 -1.0460  0.2516
11941TIP3    H257315   1.090   3.107   4.556  0.6733  0.3834 -0.3115
11942TIP3   OH257316   5.003   1.812   2.579  0.2264  0.2402  0.3845
11942TIP3    H157317   4.961   1.743   2.630  1.6903  0.0878  1.4664
11942TIP3    H257318   5.020   1.773   2.493 -0.5233 -0.1490  0.4127
11943TIP3   OH257319   3.130   5.325  12.408 -0.0431 -0.0405 -0.1781
11943TIP3    H157320   3.193   5.397  12.402 -1.3973  1.1931 -0.2075
11943TIP3    H257321   3.098   5.328  12.498 -0.7328 -0.0429 -0.4144
11944TIP3   OH257322   6.667   4.659   0.484  0.0222 -0.3149 -0.2407
11944TIP3    H157323   6.622   4.684   0.403 -2.7449 -0.1379  1.2193
11944TIP3    H257324   6.618   4.583   0.516  2.4389 -1.7935  0.2110
11945TIP3   OH257325   6.103   3.972  16.905 -0.2268  0.1250  0.2317
11945TIP3    H157326   6.164   3.898  16.899  1.9582  1.7332  0.8885
11945TIP3    H257327   6.032   3.941  16.960 -0.1755 -1.9547 -0.7953
11946TIP3   OH257328   2.301   3.712  14.639 -0.0058 -0.4393  0.1059
11946TIP3    H157329   2.327   3.665  14.718  0.4912 -1.2896 -0.5519
11946TIP3    H257330   2.258   3.646  14.584 -2.2994  0.5922  0.5305
11947TIP3   OH257331   6.540   4.342  13.181 -0.0356  0.3812  0.1904
11947TIP3    H157332   6.511   4.433  13.174  0.3735  0.4255 -1.1567
11947TIP3    H257333   6.487   4.295  13.118 -0.9678 -0.5291  1.6078
11948TIP3   OH257334   4.735   5.944   4.166 -0.2374  0.5070  0.1400
11948TIP3    H157335   4.650   5.958   4.209 -1.0312  0.3935 -1.3042
11948TIP3    H257336   4.800   5.962   4.234 -1.3911  1.7769  0.9642
11949TIP3   OH257337   0.106   1.786   4.734  0.2440  0.3884 -0.3344
11949TIP3    H157338   0.068   1.703   4.704  0.4904  0.0972  0.1518
11949TIP3    H257339   0.120   1.773   4.828  2.1130  0.2750 -0.6046
11950TIP3   OH257340   5.713   4.510  16.647  0.3259  0.1608  0.1306
11950TIP3    H157341   5.786   4.530  16.705  0.2214  0.7625  0.0615
11950TIP3    H257342   5.752   4.504  16.560  0.6376 -1.6546  0.3496
11951TIP3   OH257343   6.188   3.380   0.778 -0.8587 -0.1037 -0.0718
11951TIP3    H157344   6.175   3.343   0.866  1.9928 -0.5376  0.2750
11951TIP3    H257345   6.186   3.304   0.720  4.4712 -1.1520  0.5843
11952TIP3   OH257346   2.982   3.544  12.003 -0.7025  0.4630 -0.6874
11952TIP3    H157347   2.912   3.572  11.943 -2.6093 -0.1410  1.1270
11952TIP3    H257348   2.939   3.536  12.088  1.6979  0.3994  0.6063
11953TIP3   OH257349   6.111   3.267  12.895 -0.3414  0.3138  0.4479
11953TIP3    H157350   6.181   3.329  12.878 -0.2516 -0.1978 -1.1684
11953TIP3    H257351   6.117   3.203  12.824 -0.6571 -1.3568  1.8511
11954TIP3   OH257352   5.385   2.441  16.520  0.1665  0.0221  0.1282
11954TIP3    H157353   5.325   2.514  16.506 -0.0416 -0.3656 -1.1913
11954TIP3    H257354   5.354   2.400  16.601  0.5092  1.5763  1.0849
11955TIP3   OH257355   0.734   1.446   6.674 -0.1209 -0.4788  0.1549
11955TIP3    H157356   0.724   1.486   6.588  0.0716 -0.7786 -0.0095
11955TIP3    H257357   0.803   1.496   6.716  0.6484 -1.1044 -0.3361
11956TIP3   OH257358   4.240   5.871   5.082 -0.1852  0.0740 -0.3533
11956TIP3    H157359   4.184   5.847   5.008 -0.4404 -0.2503 -0.0580
11956TIP3    H257360   4.329   5.860   5.049 -0.2750  1.5243 -1.1320
11957TIP3   OH257361   0.377   0.551  16.851 -0.2127 -0.7153 -0.3937
11957TIP3    H157362   0.418   0.479  16.899  0.1059 -1.2294 -1.4006
11957TIP3    H257363   0.417   0.547  16.764  0.0618  0.8915 -0.3776
11958TIP3   OH257364   3.590   4.417   1.351  0.3906  0.5517  0.5789
11958TIP3    H157365   3.537   4.471   1.408 -1.7104 -0.1752 -0.5856
11958TIP3    H257366   3.680   4.435   1.378 -0.3278  3.0038  1.5981
11959TIP3   OH257367   2.061   6.519   0.533 -0.2895  0.4031  0.4628
11959TIP3    H157368   2.045   6.591   0.472  0.8880 -0.1473 -0.5390
11959TIP3    H257369   1.983   6.517   0.588 -1.0807  1.3788 -0.5614
11960TIP3   OH257370   3.487   4.807  13.581 -0.4099 -0.0516  0.2052
11960TIP3    H157371   3.519   4.759  13.505 -1.1140 -0.4670  0.1631
11960TIP3    H257372   3.448   4.887  13.545  0.9061  0.6689  0.2875
11961TIP3   OH257373   5.921   6.138   4.650  0.2808 -0.1121 -0.4982
11961TIP3    H157374   5.901   6.224   4.686  0.5327 -0.5191  0.6522
11961TIP3    H257375   5.915   6.078   4.725  0.4615 -1.0458 -1.2027
11962TIP3   OH257376   3.343   0.679  15.101  0.1569 -0.5800 -0.4128
11962TIP3    H157377   3.353   0.773  15.086 -0.4951 -0.3656  0.4613
11962TIP3    H257378   3.266   0.654  15.051  0.2828 -0.6424 -0.5791
11963TIP3   OH257379   1.268   5.198   3.576 -0.0815  0.3160  0.1148
11963TIP3    H157380   1.269   5.180   3.482 -0.9471  1.4622 -0.1237
11963TIP3    H257381   1.177   5.185   3.603  0.3577 -1.1223  1.0438
11964TIP3   OH257382   1.846   4.593   4.433  0.4156 -0.5349 -0.1409
11964TIP3    H157383   1.788   4.524   4.467 -0.2753 -0.4826 -1.1725
11964TIP3    H257384   1.796   4.674   4.444  0.7173 -0.3597 -0.0704
11965TIP3   OH257385   4.343   6.363   5.421 -0.1626  0.3486 -0.0340
11965TIP3    H157386   4.387   6.435   5.466  0.0396  1.4185 -1.8274
11965TIP3    H257387   4.369   6.373   5.329 -0.2059 -1.9787 -0.3595
11966TIP3   OH257388   0.648   4.763   3.293 -0.7901  0.8543 -0.0299
11966TIP3    H157389   0.586   4.817   3.342 -2.9310 -1.0443 -0.4715
11966TIP3    H257390   0.641   4.795   3.203  0.7854  2.2516  0.2956
11967TIP3   OH257391   2.604   0.875  13.349  0.3575 -0.1624 -0.1672
11967TIP3    H157392   2.698   0.882  13.334  0.0752  0.2725 -1.9519
11967TIP3    H257393   2.587   0.936  13.421  1.5013 -0.6309  0.5275
11968TIP3   OH257394   6.249   4.350   6.249  0.2977  0.2356  0.3703
11968TIP3    H157395   6.213   4.430   6.289  0.7089  2.1550 -2.7890
11968TIP3    H257396   6.344   4.359   6.260  0.4501  1.0097 -1.2255
11969TIP3   OH257397   2.478   1.620  15.982  0.8553 -0.6450 -1.2360
11969TIP3    H157398   2.402   1.561  15.985  0.7511 -0.5202 -1.3842
11969TIP3    H257399   2.539   1.583  16.045 -0.5966  1.0153  1.3114
11970TIP3   OH257400   1.724   1.689   1.857 -0.3418  0.2643  0.1460
11970TIP3    H157401   1.720   1.616   1.795  1.7653 -0.1369  0.4045
11970TIP3    H257402   1.665   1.663   1.927 -0.8804 -0.4181 -0.5314
11971TIP3   OH257403   3.570   0.486   5.577 -0.2822 -0.0160  0.1296
11971TIP3    H157404   3.499   0.437   5.534  0.9423 -1.1829 -0.6485
11971TIP3    H257405   3.567   0.572   5.536 -1.1325 -0.1026 -0.0204
11972TIP3   OH257406   6.066   2.001  14.051 -0.3000  0.0764 -0.1588
11972TIP3    H157407   5.989   2.037  14.007 -0.7074 -1.7850 -1.0666
11972TIP3    H257408   6.093   2.070  14.111 -2.2898  1.0382 -0.2684
11973TIP3   OH257409   5.710   3.021   3.311  0.4300  0.3361 -0.3550
11973TIP3    H157410   5.761   2.945   3.340 -0.4647 -0.3658 -0.5687
11973TIP3    H257411   5.757   3.097   3.347  1.8139 -0.2547 -0.8461
11974TIP3   OH257412   4.324   2.392   2.726  0.2005  0.2816 -0.3591
11974TIP3    H157413   4.348   2.304   2.755  1.3176  0.0299 -1.9629
11974TIP3    H257414   4.399   2.422   2.675 -0.6948  1.6754 -0.9071
11975TIP3   OH257415   2.870   1.343  11.318 -0.4586 -0.2675  0.4974
11975TIP3    H157416   2.779   1.355  11.291 -0.3422  0.9521  0.6033
11975TIP3    H257417   2.916   1.420  11.283  0.0186  0.5395  2.7705
11976TIP3   OH257418   5.725   1.960   2.422  0.0204 -0.7713 -0.1447
11976TIP3    H157419   5.649   1.934   2.474 -0.2980  0.2356 -0.0776
11976TIP3    H257420   5.703   1.932   2.333  0.6811 -2.7396  0.2598
11977TIP3   OH257421   0.199   6.213   4.171  0.3813  0.0277  0.1631
11977TIP3    H157422   0.229   6.220   4.080  2.6621  0.0130  0.8570
11977TIP3    H257423   0.203   6.303   4.204  1.3313 -0.2112  0.7397
11978TIP3   OH257424   1.394   3.502   1.553 -0.0947  0.2380 -0.2975
11978TIP3    H157425   1.485   3.499   1.583  0.0051 -0.3925 -0.6433
11978TIP3    H257426   1.363   3.588   1.580  0.9233  0.8901 -1.0931
11979TIP3   OH257427   0.209   5.268  17.130 -0.1652 -0.7928 -0.5347
11979TIP3    H157428   0.172   5.202  17.189 -1.4680 -0.2899 -0.7662
11979TIP3    H257429   0.245   5.334  17.188  1.0090 -1.6071 -0.3029
11980TIP3   OH257430   4.115   6.003  11.998  0.0316  0.1643  0.1388
11980TIP3    H157431   4.054   6.004  11.924  0.4471 -0.2043 -0.2203
11980TIP3    H257432   4.148   5.913  12.000  1.1339  0.5386 -0.1556
11981TIP3   OH257433   3.251   2.148   5.059 -0.0362 -0.3986  0.0267
11981TIP3    H157434   3.236   2.211   5.130  2.0119  0.7584 -0.4972
11981TIP3    H257435   3.345   2.129   5.063 -0.6671 -3.9848  0.5668
11982TIP3   OH257436   4.270   0.717   5.838  0.4020 -0.0798  0.0767
11982TIP3    H157437   4.362   0.693   5.840 -0.4851 -4.5074 -0.6184
11982TIP3    H257438   4.251   0.730   5.745  0.1322 -0.0293  0.1372
11983TIP3   OH257439   0.606   6.225   1.738 -0.2034  0.1156  0.4104
11983TIP3    H157440   0.639   6.149   1.785 -0.7458  0.6353  1.6737
11983TIP3    H257441   0.622   6.299   1.798  0.5517  1.0478 -0.8853
11984TIP3   OH257442   3.688   0.642  12.462 -0.0041  0.5578 -0.8963
11984TIP3    H157443   3.685   0.567  12.402  0.1046 -0.6216  0.5130
11984TIP3    H257444   3.634   0.708  12.420 -0.0390 -0.2736 -2.2319
11985TIP3   OH257445   0.817   1.613   6.468  0.1174  0.5100  0.1405
11985TIP3    H157446   0.868   1.641   6.392  2.3898 -0.5323  1.1919
11985TIP3    H257447   0.799   1.694   6.516  2.5461  0.7585  0.7490
11986TIP3   OH257448   5.844   5.605  12.410  0.3683 -0.1679  0.2602
11986TIP3    H157449   5.831   5.586  12.317 -0.8266 -0.4751  0.4680
11986TIP3    H257450   5.935   5.634  12.417  0.0810  1.2341 -1.2368
11987TIP3   OH257451   4.182   4.769   0.074 -0.4182 -0.0934  0.1060
11987TIP3    H157452   4.102   4.761   0.022 -0.3387  1.7053 -0.3472
11987TIP3    H257453   4.190   4.862   0.093  2.7238  0.2023 -1.8067
11988TIP3   OH257454   4.343   6.274  13.908 -0.4392 -0.5616  0.0666
11988TIP3    H157455   4.320   6.346  13.967 -0.0705  0.1485 -0.6343
11988TIP3    H257456   4.406   6.312  13.847 -0.0847 -1.5388 -0.1993
11989TIP3   OH257457   6.759   6.549   5.498 -0.4039 -0.1200  0.5313
11989TIP3    H157458   6.672   6.529   5.533 -0.4214  0.0106  0.5636
11989TIP3    H257459   6.752   6.529   5.405 -0.0555 -1.4732  0.7646
11990TIP3   OH257460   4.879   4.261  15.519 -0.4963  0.4180 -0.1774
11990TIP3    H157461   4.948   4.299  15.573  0.6207 -0.3842 -1.0096
11990TIP3    H257462   4.835   4.198  15.577  2.7450 -2.8913 -0.9073
11991TIP3   OH257463   3.357   3.566   1.228  0.4359 -0.3937 -0.4915
11991TIP3    H157464   3.382   3.475   1.246 -0.6212 -0.5424  0.2936
11991TIP3    H257465   3.440   3.610   1.208  1.6314 -0.4767  3.5487
11992TIP3   OH257466   2.703   2.016   4.133  0.4375 -0.5486  0.4043
11992TIP3    H157467   2.685   1.958   4.208  2.3655  0.4394  1.7253
11992TIP3    H257468   2.799   2.015   4.126  0.3697  0.7006 -0.9942
11993TIP3   OH257469   4.150   2.714   1.041 -0.2486 -0.1952 -0.2219
11993TIP3    H157470   4.238   2.740   1.070 -0.9909  1.4894  0.6517
11993TIP3    H257471   4.110   2.795   1.009 -2.3862 -0.3593  1.8109
11994TIP3   OH257472   4.841   1.760  16.296 -0.4693  0.1572  0.2804
11994TIP3    H157473   4.895   1.697  16.249 -0.7144  1.1517 -1.3916
11994TIP3    H257474   4.825   1.830  16.233 -2.6885  0.4923  1.1429
11995TIP3   OH257475   0.492   1.036   4.436 -0.0810 -0.1010 -0.4229
11995TIP3    H157476   0.485   1.040   4.531  0.2172 -4.6504  0.0157
11995TIP3    H257477   0.409   1.072   4.405 -1.9385 -2.0378  1.8566
11996TIP3   OH257478   5.139   2.306   4.212  0.3645  0.2268 -0.3826
11996TIP3    H157479   5.047   2.328   4.227  0.3820  0.6659 -0.8870
11996TIP3    H257480   5.181   2.320   4.297  0.0258  0.3556 -0.2338
11997TIP3   OH257481   2.364   5.486   3.007 -0.0407  0.8873 -0.1879
11997TIP3    H157482   2.283   5.520   3.045  0.1429  1.5364 -0.3608
11997TIP3    H257483   2.391   5.416   3.067 -0.0412  1.5379  0.5981
11998TIP3   OH257484   0.626   6.551   0.916  0.5067 -0.4848  0.0502
11998TIP3    H157485   0.661   6.636   0.890 -0.4968 -0.4979 -1.4772
11998TIP3    H257486   0.561   6.571   0.984  1.0310 -0.1480  0.4571
11999TIP3   OH257487   4.001   5.208  13.486  0.5401 -0.1400 -0.3145
11999TIP3    H157488   4.035   5.227  13.574 -2.2124  0.0313  0.8135
11999TIP3    H257489   3.907   5.197  13.499 -0.1565  1.0737 -3.4368
12000TIP3   OH257490   0.420   1.312   5.238  0.3787  0.6836 -0.4448
12000TIP3    H157491   0.366   1.363   5.177 -1.4868 -0.9193 -0.2082
12000TIP3    H257492   0.386   1.334   5.325 -0.3180 -0.7735 -0.3281
12001TIP3   OH257493   5.722   4.803  17.134  0.5176 -0.5587  0.0101
12001TIP3    H157494   5.732   4.807  17.229 -0.8910 -0.7520  0.1920
12001TIP3    H257495   5.807   4.773  17.102  2.0945  2.4732  0.9154
12002TIP3   OH257496   2.645   3.419  12.861  0.4030  0.2856 -0.4011
12002TIP3    H157497   2.667   3.504  12.901 -0.1540 -0.6444  2.0253
12002TIP3    H257498   2.729   3.373  12.857  0.4056  0.2414  0.0830
12003TIP3   OH257499   0.368   1.648  12.097  0.1217 -0.2270  0.1164
12003TIP3    H157500   0.428   1.712  12.135  0.3436 -0.4130  0.0780
12003TIP3    H257501   0.288   1.656  12.150 -0.8466  1.9659 -1.4779
12004TIP3   OH257502   0.063   3.189   1.017  0.3212  0.1524  0.4384
12004TIP3    H157503   0.000   3.117   1.026 -0.0470  0.4308  0.1249
12004TIP3    H257504   0.140   3.159   1.065 -0.8669  0.7586  2.9141
12005TIP3   OH257505   3.521   3.549  12.459  0.4586  0.9208  0.9564
12005TIP3    H157506   3.514   3.606  12.535 -0.5740 -0.4304  1.9206
12005TIP3    H257507   3.551   3.465  12.494  1.2306  0.6285 -0.3232
12006TIP3   OH257508   3.806   0.711  14.967 -0.6334  0.4105 -1.3829
12006TIP3    H157509   3.811   0.657  15.046  1.2482 -1.1881 -2.5111
12006TIP3    H257510   3.780   0.797  14.998 -2.7751 -0.8490  0.6195
12007TIP3   OH257511   6.788   4.583   0.808 -0.1272 -0.1781  0.1594
12007TIP3    H157512   6.718   4.541   0.759  0.0277 -0.5038  0.2180
12007TIP3    H257513   6.747   4.611   0.890 -0.1125 -0.6491  0.3274
12008TIP3   OH257514   4.539   0.722   0.587  0.8091  0.3250  0.0004
12008TIP3    H157515   4.552   0.643   0.640  1.3268  0.7219  0.4887
12008TIP3    H257516   4.459   0.706   0.538 -0.3088  0.3589  1.7164
12009TIP3   OH257517   3.480   4.707  12.284  0.3863 -0.3329  0.2438
12009TIP3    H157518   3.398   4.692  12.237  0.6162 -0.4245 -0.1341
12009TIP3    H257519   3.459   4.689  12.375  0.1088 -0.8298  0.0821
12010TIP3   OH257520   1.813   0.680  10.610 -0.3802 -0.3639 -0.4145
12010TIP3    H157521   1.846   0.662  10.698  1.5041 -0.1377 -1.0252
12010TIP3    H257522   1.884   0.652  10.552 -0.3160  2.2611 -1.7282
12011TIP3   OH257523   1.494   0.196   2.897  0.3607 -0.2549  0.0438
12011TIP3    H157524   1.495   0.177   2.991  1.7924  0.9875  0.3225
12011TIP3    H257525   1.584   0.178   2.868  0.1390  0.1325 -0.9252
12012TIP3   OH257526   2.464   0.924   3.655  0.5118 -0.3780 -0.0351
12012TIP3    H157527   2.464   0.862   3.728  2.0543  0.3609  0.6532
12012TIP3    H257528   2.463   1.010   3.697  0.8786  0.0538 -0.8892
12013TIP3   OH257529   2.240   0.777   0.304  0.2984  0.1438  0.2584
12013TIP3    H157530   2.271   0.757   0.392  3.8783  3.1086 -0.0759
12013TIP3    H257531   2.199   0.863   0.313  1.6487  0.9610 -1.0709
12014TIP3   OH257532   1.049   0.551   5.152 -0.1260 -0.8059 -0.4734
12014TIP3    H157533   1.137   0.555   5.188 -0.6423  1.7545  0.6992
12014TIP3    H257534   0.995   0.520   5.224 -0.5903  0.4949 -0.2433
12015TIP3   OH257535   4.970   2.964  13.712  0.1107  0.0592  0.4402
12015TIP3    H157536   4.955   3.058  13.703 -0.1410 -0.0254 -0.0844
12015TIP3    H257537   5.034   2.944  13.644  0.5842 -0.0588  0.9098
12016TIP3   OH257538   2.471   1.067   0.063  0.0139  0.2099  0.3167
12016TIP3    H157539   2.547   1.013   0.083  0.6102  0.4013 -1.2513
12016TIP3    H257540   2.507   1.153   0.041 -0.6598  0.3852 -0.1696
12017TIP3   OH257541   6.184   5.524   6.275 -0.2320  0.1990 -0.5630
12017TIP3    H157542   6.139   5.564   6.349  1.0242 -1.6976  1.3845
12017TIP3    H257543   6.275   5.513   6.306  0.6318  0.4013 -2.8539
12018TIP3   OH257544   2.527   0.357  16.984 -0.1570 -0.5718 -0.1763
12018TIP3    H157545   2.502   0.286  17.044 -0.2460 -0.4297 -0.0454
12018TIP3    H257546   2.450   0.372  16.931 -2.2405  3.1799  3.3643
12019TIP3   OH257547   0.385   2.165  16.742  0.1617  0.6008 -0.3020
12019TIP3    H157548   0.451   2.142  16.677  1.1157 -0.1057  0.8805
12019TIP3    H257549   0.395   2.100  16.811 -0.7553  1.3837  0.6114
12020TIP3   OH257550   6.733   2.088   0.361 -0.3300  0.0646 -0.0731
12020TIP3    H157551   6.788   2.149   0.312 -2.5424  1.0110 -1.5241
12020TIP3    H257552   6.684   2.143   0.422 -2.1578 -0.1952 -1.2103
12021TIP3   OH257553   2.205   5.293  16.062  0.6285 -0.2098  0.1403
12021TIP3    H157554   2.265   5.229  16.024  1.2431  0.6169 -0.3072
12021TIP3    H257555   2.184   5.352  15.990 -2.6388 -1.7955 -0.4088
12022TIP3   OH257556   4.411   1.657   2.702 -0.0240 -0.4964 -0.0906
12022TIP3    H157557   4.473   1.697   2.640  0.3993  0.1780  0.7348
12022TIP3    H257558   4.412   1.564   2.680 -0.1715 -0.2296 -1.3312
12023TIP3   OH257559   0.778   2.309   5.077  0.3590  0.2834 -0.1299
12023TIP3    H157560   0.747   2.311   5.167 -1.3758  0.5862 -0.6779
12023TIP3    H257561   0.704   2.273   5.027  2.3079 -2.6882 -1.0945
12024TIP3   OH257562   4.632   1.725   2.564 -0.7436 -0.0780 -0.0053
12024TIP3    H157563   4.716   1.771   2.568 -0.9288  0.1685  2.3248
12024TIP3    H257564   4.636   1.675   2.483  2.3997 -1.4324  0.8250
12025TIP3   OH257565   6.389   1.126  15.296  0.2845 -0.1062 -0.3089
12025TIP3    H157566   6.306   1.153  15.335  0.9833  3.2953 -0.9188
12025TIP3    H257567   6.444   1.103  15.371 -0.5826 -0.6159  0.1954
12026TIP3   OH257568   0.257   2.089   1.671 -0.5886 -0.6533 -0.1595
12026TIP3    H157569   0.187   2.045   1.623 -0.6628 -0.5443 -0.1513
12026TIP3    H257570   0.227   2.090   1.762 -0.4223 -0.9096 -0.1033
12027TIP3   OH257571   5.456   1.213   1.903  0.3720 -0.4328 -0.3377
12027TIP3    H157572   5.361   1.209   1.914  0.2994 -0.3433 -0.8748
12027TIP3    H257573   5.489   1.248   1.985 -0.1826  0.9213 -0.6647
12028TIP3   OH257574   0.606   5.765  10.714  0.4138 -0.7062 -0.8357
12028TIP3    H157575   0.663   5.742  10.640  1.2122  0.7561 -0.7060
12028TIP3    H257576   0.579   5.855  10.696  0.2425 -0.4967  0.4154
12029TIP3   OH257577   3.109   0.373  13.362  0.1433 -0.2176  0.0221
12029TIP3    H157578   3.034   0.348  13.416  1.7158 -1.6130  1.6921
12029TIP3    H257579   3.079   0.448  13.312 -2.3701 -0.7730  0.5908
12030TIP3   OH257580   2.181   5.369  12.757  0.1964  0.2955 -0.3536
12030TIP3    H157581   2.093   5.402  12.737  0.6209  0.4770 -2.0347
12030TIP3    H257582   2.167   5.309  12.831 -1.4619 -0.3121 -1.0945
12031TIP3   OH257583   5.709   5.802  12.756  0.2810  0.0086  0.7372
12031TIP3    H157584   5.669   5.850  12.828 -1.1835  2.5622 -1.5869
12031TIP3    H257585   5.658   5.721  12.751 -0.0056  0.0730  2.1313
12032TIP3   OH257586   6.127   5.445  11.611 -0.2390 -0.0586  0.0480
12032TIP3    H157587   6.208   5.496  11.607  0.8557 -1.7530 -0.0448
12032TIP3    H257588   6.089   5.454  11.523 -1.8714  3.2672  0.8903
12033TIP3   OH257589   1.705   2.000  13.390  0.9080 -0.2036 -0.0203
12033TIP3    H157590   1.764   1.964  13.324  0.2771  1.9417 -1.8879
12033TIP3    H257591   1.641   2.050  13.340 -0.6186  0.1481  2.1510
12034TIP3   OH257592   5.918   2.554   0.337 -0.2437 -0.1890  0.0284
12034TIP3    H157593   5.840   2.577   0.387  0.6796  0.5434  1.1600
12034TIP3    H257594   5.933   2.461   0.358  0.2406  0.1541  1.3030
12035TIP3   OH257595   4.891   0.195   1.863  0.0453 -0.4513 -0.4074
12035TIP3    H157596   4.973   0.226   1.902 -0.5995  0.7302  0.0397
12035TIP3    H257597   4.827   0.201   1.934 -0.5294 -0.9671 -0.8717
12036TIP3   OH257598   1.107   1.527   2.333 -0.1887 -0.4037 -0.2055
12036TIP3    H157599   1.121   1.460   2.401 -0.9536 -0.5875 -0.2138
12036TIP3    H257600   1.012   1.537   2.329 -0.0527  1.8877  0.9441
12037TIP3   OH257601   0.891   4.893   1.092  0.5279  0.0112  0.6727
12037TIP3    H157602   0.896   4.852   1.178 -1.8734  0.6177  1.1620
12037TIP3    H257603   0.798   4.894   1.071  0.8876  1.6169 -1.0842
12038TIP3   OH257604   2.025   2.946   6.013 -0.0518  0.6943  0.2950
12038TIP3    H157605   1.976   2.975   5.936 -0.6672  1.7123  1.0514
12038TIP3    H257606   2.016   2.850   6.011 -0.8859  0.7671 -0.3632
12039TIP3   OH257607   3.497   2.320  13.288 -0.1395 -0.6582  0.1501
12039TIP3    H157608   3.403   2.321  13.310 -0.3997  0.1436 -0.9187
12039TIP3    H257609   3.527   2.233  13.315 -1.0990 -0.7823  0.8699
12040TIP3   OH257610   1.962   1.862   4.752  0.7921 -1.0570  0.6332
12040TIP3    H157611   2.056   1.868   4.736  0.8251 -2.3649  0.1858
12040TIP3    H257612   1.954   1.822   4.838  0.6343 -0.4672  0.8981
12041TIP3   OH257613   2.384   4.254  10.855 -0.2995  0.5641 -0.0924
12041TIP3    H157614   2.475   4.225  10.861 -0.4030 -0.2762 -2.0094
12041TIP3    H257615   2.332   4.176  10.875 -0.5806  0.2955 -1.7883
12042TIP3   OH257616   2.565   6.495  11.495  0.6038 -0.2223  0.5356
12042TIP3    H157617   2.578   6.477  11.401  0.3741 -2.5837  0.8907
12042TIP3    H257618   2.653   6.516  11.527  0.6276  1.0047 -0.2386
12043TIP3   OH257619   0.886   0.587  17.144 -0.9420 -0.4670 -0.3712
12043TIP3    H157620   0.973   0.550  17.157  0.6777  2.0356 -2.9401
12043TIP3    H257621   0.854   0.604  17.233  1.2946 -1.2013  0.6516
12044TIP3   OH257622   4.536   3.896  11.022  0.4492  0.9688  0.0392
12044TIP3    H157623   4.586   3.814  11.015  0.3089  0.9456 -0.8546
12044TIP3    H257624   4.548   3.938  10.937  0.6505  1.9590  0.5499
12045TIP3   OH257625   2.867   0.560  11.663  0.1706 -0.1785  0.1061
12045TIP3    H157626   2.949   0.607  11.677 -0.2040  0.4717  0.1559
12045TIP3    H257627   2.802   0.609  11.712 -1.0482  1.8007 -3.1689
12046TIP3   OH257628   1.405   2.692  13.954  0.1152  0.2082  0.1250
12046TIP3    H157629   1.463   2.654  14.020 -0.0860 -0.4470 -0.0681
12046TIP3    H257630   1.430   2.649  13.872 -0.6985 -0.1503  0.0570
12047TIP3   OH257631   1.356   4.942   5.873 -0.0684 -0.2171  0.4111
12047TIP3    H157632   1.339   4.853   5.904 -2.2310  0.1080  0.2765
12047TIP3    H257633   1.386   4.930   5.783  0.7320 -0.8513  0.7484
12048TIP3   OH257634   4.296   3.133   5.791 -0.3057 -0.1023 -1.0067
12048TIP3    H157635   4.257   3.049   5.770  0.4074 -0.8599  0.5147
12048TIP3    H257636   4.234   3.175   5.850  0.1098 -0.3287 -0.3936
12049TIP3   OH257637   4.850   6.616   4.472 -0.1983 -0.5213  0.2080
12049TIP3    H157638   4.933   6.664   4.483 -1.5712  2.3333 -0.8618
12049TIP3    H257639   4.839   6.570   4.555  1.0006  1.5303  1.6099
12050TIP3   OH257640   0.751   3.276   5.617  0.3059  0.0570  0.3205
12050TIP3    H157641   0.734   3.344   5.682  1.1392 -0.7325  1.3995
12050TIP3    H257642   0.677   3.216   5.625  0.5474 -0.1913  0.7675
12051TIP3   OH257643   4.466   2.952   0.978 -0.0208 -0.5487  1.0297
12051TIP3    H157644   4.481   2.871   1.026  0.3558 -1.0369  0.1199
12051TIP3    H257645   4.543   3.006   0.998 -0.5817 -0.1204  2.1646
12052TIP3   OH257646   4.133   6.203   4.771 -0.0246  0.4516 -0.3240
12052TIP3    H157647   4.204   6.139   4.760  0.1516  0.9344 -2.3381
12052TIP3    H257648   4.054   6.153   4.755 -0.1923 -0.0285  1.6756
12053TIP3   OH257649   6.104   1.577   3.499  0.0699 -0.0633  0.6949
12053TIP3    H157650   6.054   1.598   3.578  0.7381  2.0199  0.6335
12053TIP3    H257651   6.145   1.493   3.518 -2.1069 -1.0682  1.3650
12054TIP3   OH257652   3.192   6.114  12.000 -0.1506 -0.4905 -0.5491
12054TIP3    H157653   3.258   6.046  11.995  0.1475 -0.2757  0.3321
12054TIP3    H257654   3.232   6.183  12.053 -0.5569  0.2485 -1.1622
12055TIP3   OH257655   6.253   5.272   4.018 -0.2070 -0.3910  0.3773
12055TIP3    H157656   6.343   5.251   3.996  0.2446  0.1094  1.6451
12055TIP3    H257657   6.209   5.188   4.025 -0.0305 -0.6079 -0.9665
12056TIP3   OH257658   4.853   2.225   5.033 -0.6762  0.1181 -0.0761
12056TIP3    H157659   4.823   2.303   5.080  0.3527 -0.9380  2.5565
12056TIP3    H257660   4.927   2.255   4.980  0.5300  0.7899  1.8831
12057TIP3   OH257661   3.614   4.891   4.458  0.0214 -1.0651 -0.2402
12057TIP3    H157662   3.555   4.869   4.531  0.0635 -0.5804 -0.0541
12057TIP3    H257663   3.701   4.887   4.497 -0.0546  1.0850  0.2593
12058TIP3   OH257664   6.078   4.235  11.320  0.3730 -0.2481 -0.1942
12058TIP3    H157665   6.147   4.270  11.264 -0.1907 -0.0968 -0.8173
12058TIP3    H257666   6.107   4.147  11.342  0.4628 -0.4318 -0.9997
12059TIP3   OH257667   0.414   4.938   1.630  0.2587 -0.0771 -0.1417
12059TIP3    H157668   0.382   4.916   1.718 -1.5496  3.9950  0.4841
12059TIP3    H257669   0.492   4.992   1.646 -1.1388  2.2897 -0.7620
12060TIP3   OH257670   6.813   0.658   3.780 -0.3613  0.2032 -0.1330
12060TIP3    H157671   6.778   0.580   3.736 -0.6393  0.7310 -0.8759
12060TIP3    H257672   6.850   0.711   3.709  2.0565 -0.3613  0.6281
12061TIP3   OH257673   2.649   3.291   1.859  0.1953 -0.3327 -0.0521
12061TIP3    H157674   2.633   3.361   1.796 -0.6059 -1.3016 -0.9714
12061TIP3    H257675   2.564   3.275   1.899  0.2594 -1.0809 -0.1915
12062TIP3   OH257676   3.406   5.634   6.172  0.0732 -0.7537 -0.6280
12062TIP3    H157677   3.388   5.559   6.114  0.4284 -1.1486 -0.2345
12062TIP3    H257678   3.501   5.631   6.185 -0.0194 -0.7425  0.0745
12063TIP3   OH257679   0.265   0.294   4.018 -0.7247  0.5404 -0.1491
12063TIP3    H157680   0.260   0.386   4.042 -0.7137  0.9031 -1.4562
12063TIP3    H257681   0.359   0.274   4.016 -0.7542 -0.0384  1.9643
12064TIP3   OH257682   1.065   5.071   1.833 -0.5787 -0.0303  0.9768
12064TIP3    H157683   1.082   5.031   1.918  0.3141  2.0682  1.8585
12064TIP3    H257684   1.029   5.157   1.853 -0.2318  0.5675 -0.7647
12065TIP3   OH257685   6.264   4.993  15.822 -0.6205 -0.2607  0.3055
12065TIP3    H157686   6.273   5.086  15.841 -1.5628 -0.1590  0.2990
12065TIP3    H257687   6.200   4.989  15.750  0.6238 -0.8239 -0.8199
12066TIP3   OH257688   1.708   4.027  15.532 -0.0255  0.8943 -0.0198
12066TIP3    H157689   1.709   3.961  15.601 -1.1684  0.7763 -0.1041
12066TIP3    H257690   1.767   3.991  15.465  0.7050  0.7817  0.6630
12067TIP3   OH257691   6.362   6.759   5.474 -0.1484 -0.1269  0.1771
12067TIP3    H157692   6.417   6.812   5.416 -0.4507  0.1144  0.1118
12067TIP3    H257693   6.343   6.815   5.549  0.0017 -0.3390  0.3751
12068TIP3   OH257694   3.997   1.120   3.146  0.1188  0.3160 -0.1905
12068TIP3    H157695   3.983   1.206   3.187 -0.5201  0.1324 -0.0113
12068TIP3    H257696   3.983   1.057   3.217 -0.6376  0.0114 -0.6007
12069TIP3   OH257697   2.381   4.695  11.685  0.6797 -0.0658 -0.5827
12069TIP3    H157698   2.351   4.605  11.678  1.5521 -0.3719 -0.5242
12069TIP3    H257699   2.391   4.725  11.595 -1.1998  0.5458 -0.6364
12070TIP3   OH257700   4.160   3.180  14.600  0.0264  0.6028 -0.5249
12070TIP3    H157701   4.128   3.207  14.514 -1.1163 -1.5427 -0.8312
12070TIP3    H257702   4.192   3.090  14.587  0.3049  0.4183  1.1829
12071TIP3   OH257703   1.241   2.539   5.173  0.1493 -0.0705 -0.0141
12071TIP3    H157704   1.287   2.469   5.219  0.1132  1.2764  2.2510
12071TIP3    H257705   1.158   2.500   5.147 -0.3019 -0.6667  2.0829
12072TIP3   OH257706   5.066   4.692   4.438  0.3720  0.0424  0.5283
12072TIP3    H157707   5.153   4.668   4.405  0.0940 -2.4831  1.4093
12072TIP3    H257708   5.006   4.661   4.371  0.0935  2.6535 -0.5472
12073TIP3   OH257709   4.274   6.784   3.300 -0.0398 -0.7157  0.5258
12073TIP3    H157710   4.348   6.830   3.261  0.6036 -0.5412  1.8992
12073TIP3    H257711   4.295   6.691   3.288 -0.0842 -0.6614  0.0283
12074TIP3   OH257712   3.861   5.386  14.440  0.5878  0.7312  0.1749
12074TIP3    H157713   3.844   5.417  14.350 -0.0782 -0.8291 -0.2624
12074TIP3    H257714   3.951   5.414  14.458  0.7115  1.1316 -0.9496
12075TIP3   OH257715   4.620   1.667   1.308  0.5324 -0.2176 -0.8935
12075TIP3    H157716   4.657   1.752   1.329 -0.3121 -0.1271  0.3648
12075TIP3    H257717   4.529   1.685   1.285  0.3942 -0.7499 -0.7863
12076TIP3   OH257718   0.679   3.866   3.706 -0.4505  0.4413  0.3791
12076TIP3    H157719   0.595   3.855   3.750 -0.6284 -2.1622 -0.4437
12076TIP3    H257720   0.740   3.810   3.754  0.4724  1.1126  0.0438
12077TIP3   OH257721   2.817   0.103   5.691  0.5270 -0.0704  0.0354
12077TIP3    H157722   2.902   0.117   5.648  0.4134 -0.6576 -0.3980
12077TIP3    H257723   2.753   0.132   5.626  0.4035  0.8787  0.5673
12078TIP3   OH257724   5.170   4.445  13.991  0.3185 -0.3561 -0.2843
12078TIP3    H157725   5.184   4.532  13.953  0.3943 -0.5209 -0.6368
12078TIP3    H257726   5.134   4.393  13.920 -0.3914 -0.4333  0.1173
12079TIP3   OH257727   3.615   3.770  11.556 -0.1603 -0.1352 -0.5092
12079TIP3    H157728   3.617   3.709  11.482  1.6619  1.1615 -1.6080
12079TIP3    H257729   3.555   3.840  11.528 -0.8322 -0.4874  0.0040
12080TIP3   OH257730   4.152   0.095  14.697 -0.1519 -0.1715  0.4502
12080TIP3    H157731   4.154   0.002  14.676 -1.1262  0.2094 -1.5972
12080TIP3    H257732   4.070   0.106  14.745 -1.1773 -0.0595 -1.2492
12081TIP3   OH257733   3.059   3.281  12.926 -0.3432 -0.2189  1.0238
12081TIP3    H157734   3.152   3.265  12.941 -0.0726 -0.5792 -0.8414
12081TIP3    H257735   3.028   3.203  12.880 -0.8199  1.1891 -1.1922
12082TIP3   OH257736   4.306   2.027  17.236 -0.0762  0.4381  0.5756
12082TIP3    H157737   4.340   2.105  17.190 -3.2227  1.5223 -0.1534
12082TIP3    H257738   4.266   1.975  17.167 -2.3678  0.6729  1.6486
12083TIP3   OH257739   4.153   3.027   1.751  0.6109 -0.1906 -0.2246
12083TIP3    H157740   4.207   2.950   1.771  0.8517  0.3998  1.5208
12083TIP3    H257741   4.163   3.084   1.827 -0.3343  1.1530 -1.0674
12084TIP3   OH257742   6.203   1.215  13.634 -0.1262 -0.1543  0.1762
12084TIP3    H157743   6.190   1.309  13.644  1.5615  0.1234  0.0766
12084TIP3    H257744   6.208   1.201  13.540 -1.2587 -0.4897  0.1586
12085TIP3   OH257745   5.256   0.441   2.510 -0.1095 -0.7426  0.0665
12085TIP3    H157746   5.287   0.525   2.545  1.1155 -1.1669  0.0519
12085TIP3    H257747   5.264   0.380   2.583 -1.0165 -0.8598  0.0829
12086TIP3   OH257748   1.607   4.550  11.561  0.1689  0.5921 -0.1992
12086TIP3    H157749   1.578   4.565  11.471 -1.6492  0.5902  0.3465
12086TIP3    H257750   1.551   4.606  11.614  0.7291  0.0600  0.9986
12087TIP3   OH257751   0.554   3.449   1.486 -0.7917 -0.0551 -0.3617
12087TIP3    H157752   0.489   3.515   1.508 -0.4154  0.4805 -0.8320
12087TIP3    H257753   0.634   3.478   1.530 -0.1699  0.7450 -1.9148
12088TIP3   OH257754   2.168   5.661  12.139  0.5816 -0.1119 -0.9134
12088TIP3    H157755   2.231   5.646  12.209 -1.8498 -3.9268  0.7742
12088TIP3    H257756   2.110   5.729  12.173  2.0042  1.3407 -1.2717
12089TIP3   OH257757   5.530   3.894  13.438  0.0979 -0.1610  0.3556
12089TIP3    H157758   5.443   3.933  13.429 -0.5629 -0.9566  2.5425
12089TIP3    H257759   5.534   3.864  13.529  3.1453  0.9265  0.7025
12090TIP3   OH257760   5.027   0.817   2.871  0.4637 -0.0220 -0.3170
12090TIP3    H157761   4.953   0.831   2.812 -0.9946 -1.3713  1.0845
12090TIP3    H257762   5.052   0.906   2.899 -2.1137  0.4488  0.8457
12091TIP3   OH257763   2.098   5.771  14.319  0.1448 -0.5920  0.1680
12091TIP3    H157764   2.094   5.689  14.368  2.4641 -0.9586 -0.1409
12091TIP3    H257765   2.055   5.751  14.236 -3.0815 -0.1976  1.5694
12092TIP3   OH257766   3.052   3.425  11.469  0.0804 -0.0180  0.0530
12092TIP3    H157767   3.025   3.453  11.381  0.7895 -0.5832 -0.3677
12092TIP3    H257768   2.988   3.357  11.492 -0.8064  0.9420  0.4848
12093TIP3   OH257769   0.859   2.128   1.109  0.3749  0.1141 -0.0802
12093TIP3    H157770   0.834   2.071   1.181 -2.2270  0.6749 -0.4339
12093TIP3    H257771   0.881   2.067   1.037  1.2645 -0.4221  0.6250
12094TIP3   OH257772   5.872   4.988  15.912  0.0939  0.0996 -0.0566
12094TIP3    H157773   5.932   5.055  15.944 -0.7728  1.3308 -0.9138
12094TIP3    H257774   5.798   5.037  15.877 -1.8158 -1.3479  1.6717
12095TIP3   OH257775   3.714   1.371  12.636  0.4130 -0.4330  0.8342
12095TIP3    H157776   3.796   1.398  12.595  0.5323 -0.8927  0.7556
12095TIP3    H257777   3.659   1.344  12.562  0.1165  0.0744  0.8708
12096TIP3   OH257778   0.821   1.814  14.367  0.8389  0.4452 -0.0602
12096TIP3    H157779   0.770   1.895  14.373  0.7095  0.2934  0.9619
12096TIP3    H257780   0.867   1.808  14.451 -0.2292 -1.2399  0.4407
12097TIP3   OH257781   3.161   0.799   4.950  0.0787  0.3994  0.7579
12097TIP3    H157782   3.206   0.741   5.012  1.3022  0.5992  0.0812
12097TIP3    H257783   3.169   0.755   4.865  0.8063  1.4190  0.2793
12098TIP3   OH257784   4.132   3.476   5.198 -0.2407  0.0913 -0.4041
12098TIP3    H157785   4.043   3.511   5.191  0.0288  1.0921  0.8246
12098TIP3    H257786   4.152   3.480   5.291  0.7598 -0.9978 -0.5544
12099TIP3   OH257787   5.235   3.831   6.143 -0.3190 -0.6197  0.1380
12099TIP3    H157788   5.166   3.833   6.076 -0.8583 -1.5991  0.6451
12099TIP3    H257789   5.208   3.896   6.208  0.7986  1.2082 -1.1024
12100TIP3   OH257790   6.166   2.471   5.929 -0.0020  0.1344  0.0257
12100TIP3    H157791   6.222   2.461   5.852 -0.2403 -0.8014 -0.0374
12100TIP3    H257792   6.097   2.405   5.918 -1.8511  2.0489 -0.5020
12101TIP3   OH257793   4.326   4.489   4.185  0.0407 -0.4390 -0.3368
12101TIP3    H157794   4.326   4.518   4.276 -0.0230 -0.2415 -0.3990
12101TIP3    H257795   4.261   4.544   4.142 -2.1203 -2.4619  0.1029
12102TIP3   OH257796   5.736   4.005   0.598 -0.5346 -0.9200  0.2664
12102TIP3    H157797   5.686   4.001   0.516 -1.0928 -0.5873  0.5877
12102TIP3    H257798   5.816   3.956   0.579  0.7557  1.6370 -1.4640
12103TIP3   OH257799   3.321   6.651  12.138  0.0103  0.0477  0.1396
12103TIP3    H157800   3.285   6.722  12.085  0.2058 -0.3374 -0.5152
12103TIP3    H257801   3.404   6.628  12.095  0.9406  0.7598  1.4753
12104TIP3   OH257802   0.519   5.318   1.841  0.0564 -0.0878  0.4835
12104TIP3    H157803   0.613   5.311   1.854  0.3196  1.9954  0.0975
12104TIP3    H257804   0.486   5.355   1.922 -0.3793 -0.4992  0.4960
12105TIP3   OH257805   5.522   2.139   2.231 -0.0635  0.0154 -0.0728
12105TIP3    H157806   5.606   2.095   2.213 -0.0076 -0.1505  0.5782
12105TIP3    H257807   5.525   2.219   2.178 -0.1955 -0.7871 -1.3306
12106TIP3   OH257808   3.934   1.939   0.659  0.3090  0.1976 -0.0467
12106TIP3    H157809   3.884   1.879   0.603  0.6439 -0.2576  0.1438
12106TIP3    H257810   4.026   1.919   0.639  0.4312 -0.0491  0.7556
12107TIP3   OH257811   1.724   3.383   2.823  0.1137 -0.1893  0.1164
12107TIP3    H157812   1.788   3.414   2.759 -0.6267 -0.5031 -0.8013
12107TIP3    H257813   1.729   3.446   2.894  0.3291  0.6721 -0.6433
12108TIP3   OH257814   1.001   3.022  10.362  0.3936 -0.4723 -0.4775
12108TIP3    H157815   1.000   3.005  10.268 -2.3643 -1.6315 -0.3210
12108TIP3    H257816   1.086   2.989  10.391  0.9234 -0.9362 -2.4031
12109TIP3   OH257817   5.726   2.694  12.116  0.1361  0.1505 -0.3430
12109TIP3    H157818   5.811   2.696  12.072 -0.1359 -2.7591 -1.1895
12109TIP3    H257819   5.662   2.689  12.045 -0.6977  1.1294  0.3102
12110TIP3   OH257820   6.043   4.766  11.307 -0.1077  0.0125  0.4205
12110TIP3    H157821   6.002   4.778  11.222  1.7859  0.3233 -0.5122
12110TIP3    H257822   6.098   4.844  11.319 -1.2341  0.5719  2.5041
12111TIP3   OH257823   4.654   3.262  13.094  1.0975 -0.1225 -0.8304
12111TIP3    H157824   4.559   3.275  13.090  0.8237 -1.7813 -0.2634
12111TIP3    H257825   4.666   3.168  13.088  2.5636 -0.1345  1.2818
12112TIP3   OH257826   5.919   6.387   5.638 -0.2384 -0.3317 -0.0777
12112TIP3    H157827   5.871   6.468   5.624 -0.9605 -0.7905 -0.3747
12112TIP3    H257828   5.971   6.402   5.716 -1.5509 -0.0987  0.7859
12113TIP3   OH257829   1.176   0.257   1.973  0.4744  0.4874 -0.3043
12113TIP3    H157830   1.178   0.345   1.936 -0.1381  1.2490  1.3384
12113TIP3    H257831   1.225   0.265   2.056  0.2526 -0.6713 -0.0422
12114TIP3   OH257832   1.511   3.819  15.613  0.0304 -0.0717 -0.2842
12114TIP3    H157833   1.553   3.868  15.684 -1.2976  1.3572 -0.4279
12114TIP3    H257834   1.418   3.817  15.637 -0.2619 -0.5885 -1.4067
12115TIP3   OH257835   3.085   5.274   0.698 -0.2730  0.1548  0.1858
12115TIP3    H157836   3.068   5.367   0.684  1.0951  0.3506 -0.3857
12115TIP3    H257837   3.093   5.264   0.792  2.6392  1.2621  0.1456
12116TIP3   OH257838   2.658   2.427   2.494 -0.0838  0.3812  0.0494
12116TIP3    H157839   2.724   2.434   2.563 -0.2764 -0.9909  0.3955
12116TIP3    H257840   2.629   2.336   2.497 -0.8353  0.5538 -1.1729
12117TIP3   OH257841   0.509   1.607   0.623 -0.0732 -0.5308  0.1742
12117TIP3    H157842   0.445   1.646   0.563  0.4274 -0.1021 -0.0850
12117TIP3    H257843   0.523   1.674   0.690 -0.3183 -0.8473  0.5449
12118TIP3   OH257844   6.621   2.057  11.471 -0.5043 -0.0774 -0.3901
12118TIP3    H157845   6.712   2.029  11.461  0.0869  2.1222 -1.7676
12118TIP3    H257846   6.600   2.100  11.388 -2.2386  0.9952  0.5576
12119TIP3   OH257847   1.156   5.080  16.369  0.2429 -0.5376 -0.1693
12119TIP3    H157848   1.139   5.174  16.373 -2.6524 -0.9260 -1.0293
12119TIP3    H257849   1.128   5.047  16.455 -0.6987 -0.8301 -0.5742
12120TIP3   OH257850   0.819   6.314  15.432  0.5372 -0.1474  0.1411
12120TIP3    H157851   0.727   6.316  15.459 -0.1818  0.1369 -2.0886
12120TIP3    H257852   0.852   6.402  15.450 -0.5605  0.7294 -1.7795
12121TIP3   OH257853   1.518   6.089  12.563 -0.2677  0.3193  0.2529
12121TIP3    H157854   1.481   6.077  12.650 -0.8948  0.5896  0.0301
12121TIP3    H257855   1.467   6.031  12.507 -0.4906  0.8413 -0.0911
12122TIP3   OH257856   3.488   3.003  11.315  0.5745 -0.2259 -0.2355
12122TIP3    H157857   3.545   2.987  11.391  2.0892  1.2551 -0.9983
12122TIP3    H257858   3.521   2.944  11.247  0.8376  0.2286 -0.5041
12123TIP3   OH257859   6.195   2.466   4.601 -0.5683  0.2017  0.3311
12123TIP3    H157860   6.198   2.503   4.513  1.4895 -0.6585 -0.0304
12123TIP3    H257861   6.103   2.444   4.615 -1.2209  1.9688 -0.8820
12124TIP3   OH257862   2.861   3.820   3.940  0.7145 -0.8203  0.1029
12124TIP3    H157863   2.814   3.898   3.912 -0.2910 -2.2210 -2.4720
12124TIP3    H257864   2.792   3.758   3.965  1.2468 -2.0304 -1.2689
12125TIP3   OH257865   2.734   3.667  12.948  0.0801  0.4982 -0.2331
12125TIP3    H157866   2.672   3.725  12.992 -1.2465  0.1795 -1.5924
12125TIP3    H257867   2.771   3.721  12.877  0.7509  0.4224  0.0445
12126TIP3   OH257868   5.428   4.989  16.269 -0.3350 -0.1545 -0.1005
12126TIP3    H157869   5.411   4.921  16.334  0.0966 -1.1896 -1.0382
12126TIP3    H257870   5.523   4.986  16.256 -0.5144 -0.5726 -1.4068
12127TIP3   OH257871   4.251   0.214   4.008  0.0426 -0.1519 -0.0990
12127TIP3    H157872   4.236   0.134   3.959 -2.3571  0.2257 -0.0986
12127TIP3    H257873   4.165   0.257   4.011  1.2633  2.5225 -0.2851
12128TIP3   OH257874   6.058   0.525  14.350 -0.0382  0.6817 -0.1467
12128TIP3    H157875   6.035   0.487  14.265  0.5530 -0.1418  0.0529
12128TIP3    H257876   6.105   0.605  14.328 -1.0368  1.1751 -0.5788
12129TIP3   OH257877   0.930   5.232  16.868 -0.6408  0.1420  0.0456
12129TIP3    H157878   0.940   5.150  16.916 -1.5702 -1.6577 -2.6224
12129TIP3    H257879   0.854   5.274  16.908 -2.0169 -1.7807 -0.4250
12130TIP3   OH257880   0.273   1.253  11.645 -0.0862 -0.4260 -0.5598
12130TIP3    H157881   0.321   1.335  11.632  0.3267 -0.7416 -1.0834
12130TIP3    H257882   0.182   1.280  11.659  0.2845  0.1918  0.7715
12131TIP3   OH257883   4.000   4.350  15.079  0.3176 -0.1801 -0.3598
12131TIP3    H157884   3.981   4.442  15.099  0.7196 -0.0631 -0.5231
12131TIP3    H257885   3.982   4.305  15.162  0.4741  0.0947 -0.1724
12132TIP3   OH257886   0.842   0.826  15.506 -0.1451  0.0471 -0.5649
12132TIP3    H157887   0.825   0.734  15.485  0.9108 -0.4819  0.7117
12132TIP3    H257888   0.918   0.850  15.453 -0.7498  0.3596 -1.2997
12133TIP3   OH257889   4.000   4.126   4.949  0.1686 -0.3798 -0.4288
12133TIP3    H157890   4.091   4.101   4.930  0.4789 -0.3089  0.8789
12133TIP3    H257891   3.987   4.207   4.900  1.5944  0.8866  1.1697
12134TIP3   OH257892   3.625   4.145   2.345  0.1203 -0.5277  0.0399
12134TIP3    H157893   3.643   4.079   2.278 -0.6225  0.4727 -1.2008
12134TIP3    H257894   3.653   4.105   2.427  1.7245 -1.5361 -0.9468
12135TIP3   OH257895   6.058   1.590  12.348  0.1605 -0.2964 -0.3850
12135TIP3    H157896   6.017   1.518  12.397 -0.4085 -1.0243 -1.8493
12135TIP3    H257897   6.056   1.560  12.257  3.6642 -0.2248 -0.6102
12136TIP3   OH257898   2.497   2.784   1.519  0.0714 -0.8066 -0.2104
12136TIP3    H157899   2.438   2.760   1.591  1.0461 -2.8191 -0.0044
12136TIP3    H257900   2.439   2.807   1.447 -0.9336  0.2605  0.8966
12137TIP3   OH257901   3.711   3.365  14.304 -0.2314 -0.0814  0.5228
12137TIP3    H157902   3.747   3.373  14.392 -1.3231  0.4980  0.9410
12137TIP3    H257903   3.713   3.454  14.269 -0.9910 -0.0768  0.4675
12138TIP3   OH257904   5.703   4.454   4.103 -0.5138  0.0435 -0.6321
12138TIP3    H157905   5.722   4.376   4.154 -1.0466  0.8455  0.8413
12138TIP3    H257906   5.675   4.420   4.018  0.2339 -1.3276 -0.3618
12139TIP3   OH257907   5.948   2.347   2.333 -0.0930  0.1326 -0.4545
12139TIP3    H157908   5.903   2.359   2.417  0.1143 -0.1331 -0.3072
12139TIP3    H257909   5.971   2.254   2.330  0.1635  0.2007 -0.6745
12140TIP3   OH257910   1.454   5.821   2.295  0.1822 -0.3338 -0.3613
12140TIP3    H157911   1.398   5.744   2.287 -0.7210  0.3308 -0.6201
12140TIP3    H257912   1.402   5.893   2.258  1.2372  0.2914 -0.6775
12141TIP3   OH257913   6.191   5.839  14.749 -0.4056  0.8309  0.3040
12141TIP3    H157914   6.098   5.847  14.767 -0.5162  0.4953 -0.1193
12141TIP3    H257915   6.199   5.852  14.655 -0.3013 -1.3837 -0.0362
12142TIP3   OH257916   0.633   3.362   1.132  0.1139  0.1229 -0.3007
12142TIP3    H157917   0.539   3.355   1.146  0.2507  1.2221  1.4380
12142TIP3    H257918   0.669   3.280   1.166 -0.1724 -0.1872 -0.7313
12143TIP3   OH257919   5.734   5.703   0.271 -0.0520 -0.0798  0.2073
12143TIP3    H157920   5.785   5.677   0.348 -0.0907  0.4226  0.4036
12143TIP3    H257921   5.763   5.792   0.252 -0.5608  0.0600  0.0709
12144TIP3   OH257922   4.942   2.000  13.452 -0.3802 -0.3128  0.2455
12144TIP3    H157923   4.929   2.001  13.357  0.4332  1.2379  0.1145
12144TIP3    H257924   4.987   2.082  13.471 -0.0354 -0.8428  1.9156
12145TIP3   OH257925   1.058   0.421  16.850  0.7352 -0.4744  0.0734
12145TIP3    H157926   0.967   0.440  16.876  1.0569  2.4512 -0.5871
12145TIP3    H257927   1.110   0.441  16.927  1.1428  2.3703 -0.8219
12146TIP3   OH257928   0.533   0.777  13.151 -0.6152  0.4408  0.1202
12146TIP3    H157929   0.443   0.808  13.144 -0.5837  0.4897 -0.0660
12146TIP3    H257930   0.587   0.855  13.134 -0.4629 -0.3313 -4.0367
12147TIP3   OH257931   5.596   4.137   1.709 -0.3647  0.2430 -0.2476
12147TIP3    H157932   5.512   4.137   1.663 -0.3714 -0.0600 -0.2309
12147TIP3    H257933   5.588   4.069   1.775  0.3166 -0.5987 -1.0143
12148TIP3   OH257934   3.230   5.090   1.166 -0.3473  0.6826  0.6283
12148TIP3    H157935   3.304   5.093   1.228 -0.5134 -0.4326  0.8931
12148TIP3    H257936   3.267   5.122   1.084 -0.1609  2.3680  1.3082
12149TIP3   OH257937   3.054   1.225   3.875  0.1117 -0.1935 -0.1221
12149TIP3    H157938   3.009   1.226   3.791  0.9636 -1.4456 -0.6194
12149TIP3    H257939   3.062   1.132   3.897 -2.1453  0.0900  2.4849
12150TIP3   OH257940   3.770   0.730  13.416 -0.5339  0.4864  0.3461
12150TIP3    H157941   3.684   0.772  13.423 -0.3388  1.0265 -0.3730
12150TIP3    H257942   3.770   0.690  13.329 -0.1104  0.3646  0.4007
12151TIP3   OH257943   4.224   0.572   3.592 -0.0265 -0.3445  0.1690
12151TIP3    H157944   4.302   0.527   3.624 -1.9610 -3.7442  0.5574
12151TIP3    H257945   4.194   0.624   3.666  0.0961 -1.6128  1.1335
12152TIP3   OH257946   4.889   4.238   5.546 -0.3627  0.0886 -0.0196
12152TIP3    H157947   4.970   4.187   5.554 -0.8616 -0.4940  1.9651
12152TIP3    H257948   4.844   4.199   5.471  1.1501  0.3918 -1.1240
12153TIP3   OH257949   3.633   6.642   2.064  0.1691  0.1645 -0.0078
12153TIP3    H157950   3.602   6.699   2.135 -3.1479 -1.5354  0.0860
12153TIP3    H257951   3.572   6.658   1.992  0.3152 -1.8312 -0.6280
12154TIP3   OH257952   3.391   5.592  12.964 -0.0381  0.1435  0.3491
12154TIP3    H157953   3.477   5.607  12.926 -0.4053 -3.6029 -2.4124
12154TIP3    H257954   3.409   5.550  13.048  1.0043 -2.6478 -1.1529
12155TIP3   OH257955   6.548   4.429   1.565  0.5019 -0.3814  0.2633
12155TIP3    H157956   6.542   4.355   1.504 -1.5989 -1.3441  1.5051
12155TIP3    H257957   6.499   4.499   1.521  2.9167  0.5308 -1.1387
12156TIP3   OH257958   6.039   3.219   6.268 -0.4064 -0.2966 -0.2420
12156TIP3    H157959   6.022   3.312   6.251 -0.7622 -0.5258 -1.1784
12156TIP3    H257960   6.090   3.219   6.349 -1.9775  0.6210  0.8006
12157TIP3   OH257961   0.161   3.311   0.772  0.7445  0.2946  0.4800
12157TIP3    H157962   0.117   3.295   0.689  0.3132  0.7094  0.6288
12157TIP3    H257963   0.114   3.257   0.836  2.5623 -1.9536  0.0607
12158TIP3   OH257964   0.792   3.728  15.512 -0.1870  0.1449  0.3511
12158TIP3    H157965   0.782   3.690  15.424  0.8548  2.1210 -0.6894
12158TIP3    H257966   0.709   3.773  15.527 -0.3265 -0.1078  0.3531
12159TIP3   OH257967   0.514   2.259  12.325  0.1376  0.2943 -0.2736
12159TIP3    H157968   0.538   2.340  12.371  3.3842 -0.5853 -0.1463
12159TIP3    H257969   0.487   2.288  12.238  1.0572  1.5793 -0.1751
12160TIP3   OH257970   6.002   0.437  14.604 -0.0968 -0.0738 -0.1594
12160TIP3    H157971   5.966   0.507  14.659 -0.5076 -0.1879 -0.2720
12160TIP3    H257972   6.008   0.476  14.516  0.0456 -0.0581 -0.1423
12161TIP3   OH257973   6.374   2.509  14.055 -0.3287  0.4426  0.0674
12161TIP3    H157974   6.346   2.430  14.100  0.3060  1.4839  2.4498
12161TIP3    H257975   6.298   2.567  14.056 -0.4890  0.2660 -0.7753
12162TIP3   OH257976   4.395   6.721  13.193 -0.0647 -0.0442 -0.1654
12162TIP3    H157977   4.380   6.627  13.185 -0.9707 -0.0550  1.2435
12162TIP3    H257978   4.340   6.760  13.125 -1.0307 -0.4692  0.3472
12163TIP3   OH257979   4.797   5.220   5.306 -0.0277 -0.4040 -0.3712
12163TIP3    H157980   4.834   5.279   5.372  1.5209 -0.5304 -1.0778
12163TIP3    H257981   4.830   5.134   5.331  0.0242 -0.5465 -0.9338
12164TIP3   OH257982   2.727   4.754  15.216  0.2450 -0.3037  0.0615
12164TIP3    H157983   2.729   4.780  15.308  0.7653 -0.7200  0.1769
12164TIP3    H257984   2.679   4.823  15.172  0.7626  0.3490  0.5097
12165TIP3   OH257985   3.194   0.988   4.466 -0.7785  0.1271 -0.3608
12165TIP3    H157986   3.290   0.988   4.466 -0.7246  1.9932 -1.2301
12165TIP3    H257987   3.170   0.924   4.399 -0.0828  0.5865 -1.0786
12166TIP3   OH257988   0.052   6.794  15.426 -0.1876 -0.5013 -0.0902
12166TIP3    H157989   0.125   6.852  15.406 -1.7150  1.2746 -0.7990
12166TIP3    H257990   0.072   6.759  15.513  0.6485  1.3433  0.5074
12167TIP3   OH257991   6.004   1.479  15.007  0.3399  0.0289  0.2454
12167TIP3    H157992   6.074   1.545  15.003  0.5181 -0.1739 -0.1058
12167TIP3    H257993   5.928   1.526  15.040  0.5847  0.3058  0.4234
12168TIP3   OH257994   2.937   5.767   4.165 -0.2257  0.5445  0.3775
12168TIP3    H157995   2.851   5.752   4.204 -0.4485  1.0950  0.1205
12168TIP3    H257996   2.988   5.689   4.187 -1.2828 -0.5317 -0.8329
12169TIP3   OH257997   2.290   5.208  16.435 -0.1558  0.4036  0.2969
12169TIP3    H157998   2.281   5.124  16.389  0.3149  0.2182  0.5301
12169TIP3    H257999   2.216   5.260  16.405 -0.0200  0.1856 -0.4561
12170TIP3   OH258000   3.181   3.657   4.341  0.6170  0.4457 -0.6463
12170TIP3    H158001   3.183   3.605   4.261  0.4089  0.7613 -0.8590
12170TIP3    H258002   3.230   3.736   4.319  0.3976  0.6161 -0.5244
12171TIP3   OH258003   1.431   3.261   4.804  0.6655 -0.2859 -0.2174
12171TIP3    H158004   1.499   3.210   4.849 -0.9455  0.6094  3.6378
12171TIP3    H258005   1.356   3.202   4.798 -0.5109  0.7765  2.3632
12172TIP3   OH258006   2.208   3.718  12.906  0.5791 -0.5499  0.1846
12172TIP3    H158007   2.128   3.754  12.945  0.9194  0.3724  0.0681
12172TIP3    H258008   2.273   3.787  12.919  0.7043 -0.1707 -2.0261
12173TIP3   OH258009   3.204   2.819  11.854 -0.2754 -0.5610 -0.6929
12173TIP3    H158010   3.236   2.856  11.936  0.6702  1.1046 -1.7535
12173TIP3    H258011   3.266   2.851  11.788 -2.5708  0.5307 -2.4630
12174TIP3   OH258012   2.607   4.145   3.550  0.0749  0.1125  0.5067
12174TIP3    H158013   2.608   4.050   3.540  0.0764  0.2036 -0.3932
12174TIP3    H258014   2.526   4.163   3.599  0.3976 -0.3961  1.2366
12175TIP3   OH258015   0.873   0.727  14.466 -0.3787 -0.4543 -0.1765
12175TIP3    H158016   0.853   0.767  14.551 -0.6014  0.2505 -0.5532
12175TIP3    H258017   0.966   0.744  14.452 -0.5045  0.0663 -0.4003
12176TIP3   OH258018   0.681   6.822   0.889  0.3851 -0.3443 -0.1847
12176TIP3    H158019   0.752   6.865   0.938  0.8950 -0.1045 -1.1067
12176TIP3    H258020   0.601   6.847   0.936  0.7429  0.9739 -0.2228
12177TIP3   OH258021   1.215   2.585  11.766  0.3721 -0.1348  0.0240
12177TIP3    H158022   1.125   2.619  11.764 -0.6461 -2.0548  3.5061
12177TIP3    H258023   1.249   2.614  11.851  3.2294  0.7661 -1.3298
12178TIP3   OH258024   1.186   1.737   1.739 -0.0147 -0.6297  0.4263
12178TIP3    H158025   1.271   1.748   1.783 -0.3272  1.3045  0.6418
12178TIP3    H258026   1.150   1.656   1.776  0.8711 -0.4174  1.8172
12179TIP3   OH258027   0.835   2.988   4.292  0.2371  0.1052 -0.0027
12179TIP3    H158028   0.928   2.967   4.302  0.2797  0.6646  0.9637
12179TIP3    H258029   0.817   3.049   4.364 -0.8457  0.1133 -0.2657
12180TIP3   OH258030   6.383   3.598   5.131 -0.1595 -0.5280  0.1357
12180TIP3    H158031   6.345   3.649   5.203 -2.5368 -0.5260 -1.0407
12180TIP3    H258032   6.427   3.525   5.175  2.5826  1.9089  1.8128
12181TIP3   OH258033   4.637   1.885  16.095 -0.3952  1.1300 -0.0567
12181TIP3    H158034   4.602   1.887  16.006  0.3188  1.1790 -0.3409
12181TIP3    H258035   4.561   1.901  16.151 -0.7420  1.7929 -0.6929
12182TIP3   OH258036   2.373   1.339   0.592 -0.6811  0.2082  0.9914
12182TIP3    H158037   2.353   1.425   0.557  2.6041  0.1895 -1.4107
12182TIP3    H258038   2.338   1.278   0.527  3.0137  0.0958 -1.1544
12183TIP3   OH258039   5.613   5.364  12.804  0.4079 -0.4521 -0.8754
12183TIP3    H158040   5.633   5.392  12.894 -0.8800 -0.7170 -0.4887
12183TIP3    H258041   5.679   5.407  12.751 -0.7206  2.3706 -0.1772
12184TIP3   OH258042   3.340   4.569   4.502  0.4686 -0.4953 -0.0583
12184TIP3    H158043   3.271   4.590   4.564  1.7006 -0.4990  1.3798
12184TIP3    H258044   3.343   4.473   4.501 -0.2987 -0.5266 -1.0266
12185TIP3   OH258045   0.062   1.111   2.110  0.2221  0.2295 -0.1823
12185TIP3    H158046   0.122   1.154   2.048  0.7501 -1.3220 -0.7911
12185TIP3    H258047   0.119   1.073   2.176 -0.1657 -0.3140 -0.1527
12186TIP3   OH258048   1.907   2.890   3.029 -0.0154  0.2211 -0.1537
12186TIP3    H158049   1.998   2.863   3.042  0.2294  0.6820 -0.8510
12186TIP3    H258050   1.858   2.838   3.093  0.8165  0.5538  0.7876
12187TIP3   OH258051   4.514   4.143  16.401 -0.0481  0.1425 -0.0709
12187TIP3    H158052   4.461   4.156  16.322  0.3767  0.9678 -0.2231
12187TIP3    H258053   4.584   4.084  16.372  1.0147  1.6654 -0.7506
12188TIP3   OH258054   4.905   3.312  16.609 -1.0621 -0.2426 -0.0244
12188TIP3    H158055   4.966   3.365  16.660 -1.9473  0.0036  0.8000
12188TIP3    H258056   4.823   3.316  16.658 -1.6061 -0.9779 -0.8528
12189TIP3   OH258057   5.810   2.402   2.578  0.4327 -0.2256  0.0307
12189TIP3    H158058   5.746   2.474   2.584  1.1061  0.4395 -0.5628
12189TIP3    H258059   5.762   2.325   2.606 -0.4379  0.3868  0.2613
12190TIP3   OH258060   5.591   0.733   1.298 -0.1455  0.0495  0.3633
12190TIP3    H158061   5.685   0.730   1.311 -0.0686  0.6230 -0.0031
12190TIP3    H258062   5.558   0.652   1.336  0.5045 -0.1904  0.4193
12191TIP3   OH258063   4.092   4.626  16.099  0.1241  0.2765 -0.0652
12191TIP3    H158064   4.097   4.695  16.034  0.0790 -0.3122 -0.7029
12191TIP3    H258065   4.184   4.606  16.119  0.1496  0.0400 -0.4052
12192TIP3   OH258066   3.581   5.691   5.860 -0.5795  0.0148 -0.1084
12192TIP3    H158067   3.552   5.709   5.949  2.0031  1.7240  0.4851
12192TIP3    H258068   3.626   5.606   5.865  0.5475  0.6291  0.5131
12193TIP3   OH258069   0.478   3.670   0.627  0.4005  0.1118 -0.5568
12193TIP3    H158070   0.485   3.676   0.531 -0.8033 -1.2990 -0.7768
12193TIP3    H258071   0.529   3.592   0.650 -1.0212 -0.8012 -0.3388
12194TIP3   OH258072   1.016   3.510   2.686  0.1249  0.2806  0.1017
12194TIP3    H158073   1.067   3.570   2.631  0.2588  1.3163  1.2849
12194TIP3    H258074   1.019   3.550   2.773 -0.9217 -0.7702  0.6512
12195TIP3   OH258075   4.975   6.438  16.788  0.5621  0.0992  0.0363
12195TIP3    H158076   4.977   6.408  16.879 -1.3362 -0.0200  0.0884
12195TIP3    H258077   4.941   6.363  16.739 -1.1204  1.0225 -0.3114
12196TIP3   OH258078   3.316   6.010  11.342  0.5200  0.2262 -0.1782
12196TIP3    H158079   3.394   5.975  11.298  0.6383  0.3484 -0.0643
12196TIP3    H258080   3.243   5.976  11.290  0.6688  0.6997 -0.7147
12197TIP3   OH258081   4.621   4.731  10.704  0.5129 -0.1794 -0.2436
12197TIP3    H158082   4.668   4.724  10.621 -0.2186 -3.4830 -0.5237
12197TIP3    H258083   4.650   4.655  10.755 -0.6502  0.5747  1.6562
12198TIP3   OH258084   1.948   2.119   4.513 -0.0984 -0.2713  0.0546
12198TIP3    H158085   2.006   2.195   4.521  1.0917 -1.2547  0.9321
12198TIP3    H258086   1.989   2.065   4.445 -2.5416  1.2153 -2.8566
12199TIP3   OH258087   4.231   1.102   2.367  0.5172  0.1526  0.0496
12199TIP3    H158088   4.203   1.013   2.390 -2.2152  0.8975 -0.0694
12199TIP3    H258089   4.186   1.158   2.431  1.5236  1.5227 -0.4016
12200TIP3   OH258090   6.041   0.450  10.907 -0.4484 -0.1794  0.2243
12200TIP3    H158091   6.080   0.534  10.882  0.6013 -0.8914 -0.6354
12200TIP3    H258092   5.959   0.473  10.949 -0.6674  1.2392 -0.9049
12201TIP3   OH258093   5.721   0.475   6.444 -0.9956 -0.6655  0.1445
12201TIP3    H158094   5.787   0.415   6.480 -2.0900 -1.3788  1.0606
12201TIP3    H258095   5.639   0.443   6.481 -1.5850  1.6434  0.9987
12202TIP3   OH258096   2.879   4.605  17.156  0.0264  0.0575 -0.1680
12202TIP3    H158097   2.880   4.513  17.180  0.0693  0.3114  0.9005
12202TIP3    H258098   2.841   4.649  17.233  1.4962  1.0985  0.0044
12203TIP3   OH258099   0.069   1.995  15.079 -0.0877  0.4032  0.4019
12203TIP3    H158100   0.081   2.079  15.122 -0.5050  0.1837  0.9574
12203TIP3    H258101   0.117   1.933  15.133  0.0600  0.2545  0.1008
12204TIP3   OH258102   6.276   5.084  15.497 -0.0261  0.2119 -0.4360
12204TIP3    H158103   6.335   5.143  15.543 -1.5753  1.2769  0.2572
12204TIP3    H258104   6.189   5.118  15.515 -0.8728 -1.3213 -1.4168
12205TIP3   OH258105   3.308   0.813   1.593 -0.1941  0.5585  0.2226
12205TIP3    H158106   3.338   0.839   1.506  2.9274 -2.0864  0.3051
12205TIP3    H258107   3.279   0.895   1.634  2.9099  2.7943 -1.6094
12206TIP3   OH258108   2.358   0.635   4.866 -0.0412 -0.1740  0.4944
12206TIP3    H158109   2.361   0.554   4.815  3.2842 -1.0102  1.7646
12206TIP3    H258110   2.376   0.704   4.802  0.1562 -0.7747 -0.1162
12207TIP3   OH258111   5.266   6.359   4.888  0.6722  0.0357 -0.9346
12207TIP3    H158112   5.299   6.449   4.888 -0.5244  0.4959  0.0410
12207TIP3    H258113   5.335   6.308   4.931 -0.0869  1.1082  1.7446
12208TIP3   OH258114   2.542   2.462  16.918 -0.4264  0.2474  0.6571
12208TIP3    H158115   2.486   2.517  16.862  0.2406  1.1696  0.8629
12208TIP3    H258116   2.577   2.523  16.983  1.5563 -0.0740 -0.0239
12209TIP3   OH258117   5.422   3.974   3.235  0.3288 -0.5895  0.0814
12209TIP3    H158118   5.407   3.938   3.322 -1.5866 -1.2614 -0.4635
12209TIP3    H258119   5.339   3.960   3.189  1.0191  0.4934 -1.5912
12210TIP3   OH258120   2.350   3.613  13.587  0.3098 -0.7640  0.1209
12210TIP3    H158121   2.314   3.701  13.601  0.7787 -0.6709  0.7530
12210TIP3    H258122   2.440   3.629  13.557  0.2076 -1.0187 -0.3276
12211TIP3   OH258123   3.332   1.735  12.127  0.0079 -0.0746  0.1878
12211TIP3    H158124   3.418   1.734  12.086  0.2495  0.0463  0.6787
12211TIP3    H258125   3.280   1.794  12.073 -0.1387 -1.1189 -0.8346
12212TIP3   OH258126   0.844   5.464  14.303 -0.0598 -0.3345  0.3396
12212TIP3    H158127   0.801   5.505  14.378 -0.9377 -0.9337  0.1764
12212TIP3    H258128   0.793   5.385  14.287  0.9759 -0.9476 -0.0066
12213TIP3   OH258129   0.138   3.070   6.522  0.0359  0.7863 -0.5321
12213TIP3    H158130   0.226   3.056   6.556  0.2305 -0.1982 -1.3899
12213TIP3    H258131   0.151   3.082   6.427 -0.9739 -2.2148 -1.1372
12214TIP3   OH258132   2.710   6.573   0.041  0.6969  0.4221 -0.2525
12214TIP3    H158133   2.695   6.650   0.094 -2.4741  0.2587 -0.7092
12214TIP3    H258134   2.710   6.500   0.103 -1.7749  0.3500 -0.2395
12215TIP3   OH258135   4.584   3.580  13.500 -0.2954 -0.7846 -0.3022
12215TIP3    H158136   4.657   3.518  13.506  0.6330  0.3835  1.7434
12215TIP3    H258137   4.516   3.542  13.556 -0.0417 -0.3802  0.2899
12216TIP3   OH258138   0.109   5.597   2.908  0.0651  0.1234 -0.4573
12216TIP3    H158139   0.092   5.542   2.985 -0.1140  0.4145 -0.2891
12216TIP3    H258140   0.036   5.659   2.906  0.7707  0.9913 -0.0831
12217TIP3   OH258141   4.789   6.259  13.117 -0.2270  0.3305 -0.1099
12217TIP3    H158142   4.839   6.339  13.134 -1.4518  0.5993  3.0360
12217TIP3    H258143   4.828   6.222  13.038  2.9341  2.0207  0.4798
12218TIP3   OH258144   2.334   0.409  13.662 -0.2585  0.7995  0.4999
12218TIP3    H158145   2.395   0.398  13.589  0.0626  1.2496  0.6974
12218TIP3    H258146   2.389   0.435  13.736 -0.6791  1.1148  0.7054
12219TIP3   OH258147   3.864   3.383  11.564 -0.3751  0.5298  0.5035
12219TIP3    H158148   3.779   3.385  11.518 -0.2526  0.2961  0.2673
12219TIP3    H258149   3.849   3.436  11.643 -1.5069 -1.6181  1.8097
12220TIP3   OH258150   3.319   5.824  16.002  0.3010 -0.0988 -0.3402
12220TIP3    H158151   3.379   5.790  15.936  2.1927  1.4339  0.5157
12220TIP3    H258152   3.334   5.768  16.079 -0.6479 -0.7863 -0.6310
12221TIP3   OH258153   5.909   0.557   0.085 -0.1361  0.8613  0.3992
12221TIP3    H158154   5.930   0.547   0.178  1.2639 -2.7881 -0.1583
12221TIP3    H258155   5.831   0.504   0.072  0.3512  0.3811 -0.6883
12222TIP3   OH258156   1.063   1.253   5.825 -0.8227 -0.1648 -0.1000
12222TIP3    H158157   1.017   1.251   5.741  1.4829  0.8652 -1.4955
12222TIP3    H258158   1.091   1.344   5.834  2.4268 -1.0408 -0.2551
12223TIP3   OH258159   6.618   2.401   5.150 -0.4081 -0.2350 -0.0146
12223TIP3    H158160   6.627   2.307   5.168 -0.4279 -0.7040 -2.2561
12223TIP3    H258161   6.525   2.419   5.164 -0.3387 -0.4526  0.7796
12224TIP3   OH258162   6.366   1.169   0.894  0.5742  0.1555 -0.3387
12224TIP3    H158163   6.283   1.180   0.848  0.9577  0.9072 -0.8794
12224TIP3    H258164   6.354   1.215   0.977  0.4126  0.1644 -0.3680
12225TIP3   OH258165   6.682   2.448   2.749 -0.0300 -0.0850 -0.5952
12225TIP3    H158166   6.721   2.533   2.730  1.0505  0.0771  1.9834
12225TIP3    H258167   6.752   2.399   2.792 -0.5609 -2.4041 -2.2097
12226TIP3   OH258168   3.281   5.294  13.679 -0.0039  0.1616 -0.7874
12226TIP3    H158169   3.361   5.329  13.640  0.3792  0.2235  0.0281
12226TIP3    H258170   3.210   5.344  13.638  0.5662  2.5174  0.9092
12227TIP3   OH258171   3.097   3.866   4.809  0.1852 -0.0662 -0.3430
12227TIP3    H158172   3.124   3.785   4.851  0.6917  0.2952  0.0398
12227TIP3    H258173   3.041   3.909   4.874  0.2973  0.1051 -0.3581
12228TIP3   OH258174   5.506   4.542  14.256  0.4617  0.2587 -0.4044
12228TIP3    H158175   5.511   4.611  14.190 -0.0880  0.4742 -0.2295
12228TIP3    H258176   5.460   4.470  14.212  0.0515  0.4203 -0.2532
12229TIP3   OH258177   2.257   3.593   0.180  0.4790 -0.3418 -0.4475
12229TIP3    H158178   2.222   3.540   0.109 -0.2545  0.4786 -0.7103
12229TIP3    H258179   2.352   3.588   0.169  0.3735 -0.2694 -1.4457
12230TIP3   OH258180   1.859   6.161   3.657 -0.1860 -0.3435  0.1757
12230TIP3    H158181   1.845   6.108   3.578 -1.2263  1.3800 -0.8627
12230TIP3    H258182   1.953   6.180   3.657 -0.1906 -0.2557 -0.7535
12231TIP3   OH258183   5.433   5.178   0.765 -0.5044 -0.0294  0.1064
12231TIP3    H158184   5.431   5.236   0.842 -2.5261  1.0388 -0.6988
12231TIP3    H258185   5.369   5.110   0.785 -0.2398 -0.3697 -0.1943
12232TIP3   OH258186   0.545   1.611   2.555 -0.2904  0.1187 -0.4695
12232TIP3    H158187   0.594   1.531   2.535  1.1355  0.9220 -0.3438
12232TIP3    H258188   0.547   1.618   2.650 -1.7835 -0.4888 -0.3621
12233TIP3   OH258189   1.677   6.255   5.861  0.1948 -0.4764  0.6057
12233TIP3    H158190   1.768   6.284   5.855 -0.3549  1.1621 -0.5799
12233TIP3    H258191   1.634   6.325   5.911 -0.3470 -1.4620  1.5573
12234TIP3   OH258192   6.443   1.381  14.723  0.2777 -0.5450 -0.4660
12234TIP3    H158193   6.468   1.404  14.812 -0.9518 -2.5890  0.4719
12234TIP3    H258194   6.402   1.460  14.688  0.4876  0.1834  0.8846
12235TIP3   OH258195   5.125   6.437  13.690 -0.4801 -0.2729  0.0194
12235TIP3    H158196   5.192   6.497  13.658 -0.9622 -0.4455 -1.3673
12235TIP3    H258197   5.156   6.410  13.777  2.2352 -1.7870 -1.2934
12236TIP3   OH258198   0.499   1.944  14.179 -1.1569  0.0828  0.4675
12236TIP3    H158199   0.557   1.946  14.102 -0.1755 -0.1564  1.1866
12236TIP3    H258200   0.453   2.028  14.176 -1.1059  0.0941 -0.3569
12237TIP3   OH258201   3.422   4.977  12.900  1.1003  0.0475 -0.4223
12237TIP3    H158202   3.448   4.958  12.990  1.6576  1.1612 -0.3254
12237TIP3    H258203   3.491   4.939  12.846 -0.0389 -2.0369 -0.5033
12238TIP3   OH258204   4.211   1.681  14.172 -0.0407  0.1076  0.1244
12238TIP3    H158205   4.201   1.769  14.208  0.2108  0.3876 -0.4773
12238TIP3    H258206   4.151   1.627  14.224  0.0460  0.5652  0.7143
12239TIP3   OH258207   5.640   4.710   4.600  0.0547 -0.2306  0.5651
12239TIP3    H158208   5.718   4.681   4.553  1.1546  0.2602  2.0055
12239TIP3    H258209   5.627   4.800   4.571 -0.2662 -0.4609 -0.0224
12240TIP3   OH258210   4.319   2.447  12.567  0.1746 -0.2610 -0.1707
12240TIP3    H158211   4.317   2.526  12.621 -0.1606  0.3814 -1.0910
12240TIP3    H258212   4.369   2.384  12.618 -0.9671 -0.0115  1.3330
12241TIP3   OH258213   4.353   0.587  14.613  0.6000 -0.0736 -0.0436
12241TIP3    H158214   4.308   0.508  14.583  1.3712  0.3497 -2.5605
12241TIP3    H258215   4.441   0.558  14.636  0.4838 -0.1494  0.3085
12242TIP3   OH258216   5.944   1.387   2.011 -0.1262  0.3262  0.3229
12242TIP3    H158217   6.000   1.439   1.955 -0.7868  2.4046  1.4949
12242TIP3    H258218   5.991   1.381   2.094 -0.0182 -1.0696  0.1937
12243TIP3   OH258219   6.020   5.941   3.040 -0.2717 -0.0130  0.4949
12243TIP3    H158220   6.014   5.989   2.957  1.3375  1.2563  1.0673
12243TIP3    H258221   6.010   5.849   3.015 -1.0394  0.4351 -0.9447
12244TIP3   OH258222   6.357   6.241  13.732 -0.0808 -0.2570 -0.1875
12244TIP3    H158223   6.442   6.262  13.771 -0.5756  0.0955  0.7224
12244TIP3    H258224   6.378   6.177  13.664  0.8319 -0.8047  0.5676
12245TIP3   OH258225   1.491   5.376   3.363 -0.0641  0.4405 -0.5757
12245TIP3    H158226   1.471   5.287   3.335  0.6840  0.0851 -0.0215
12245TIP3    H258227   1.427   5.431   3.318 -2.1658 -0.6094  0.9939
12246TIP3   OH258228   1.968   2.611  13.270  0.3200 -0.5349  0.3443
12246TIP3    H158229   1.962   2.682  13.207 -0.0084 -1.7643 -1.0739
12246TIP3    H258230   2.038   2.638  13.330  2.3246 -0.3120 -1.9140
12247TIP3   OH258231   5.047   0.823  13.140  0.0753 -0.1661 -0.5186
12247TIP3    H158232   5.033   0.854  13.230 -0.2224  0.0487 -0.6371
12247TIP3    H258233   5.066   0.730  13.150 -0.0009 -0.1551 -0.2356
12248TIP3   OH258234   2.495   3.297   2.208 -0.4188 -0.1297 -0.1955
12248TIP3    H158235   2.445   3.216   2.199 -0.5298  0.1006 -2.1718
12248TIP3    H258236   2.496   3.335   2.120 -1.7309  2.8555  0.9338
12249TIP3   OH258237   0.638   2.074   1.713  0.0525 -0.3422 -0.1751
12249TIP3    H158238   0.622   2.132   1.639  0.6475 -1.2003 -1.0011
12249TIP3    H258239   0.730   2.089   1.736 -0.4659  0.8583  1.2424
12250TIP3   OH258240   6.550   0.460   2.117  0.3519  0.0058 -0.5712
12250TIP3    H158241   6.538   0.398   2.045 -1.9575 -1.4719  0.9190
12250TIP3    H258242   6.603   0.412   2.180 -2.1680 -0.9799  0.9726
12251TIP3   OH258243   5.704   0.315  15.198  0.2168 -0.0687  0.0829
12251TIP3    H158244   5.668   0.226  15.205  0.9148 -0.2659  1.7333
12251TIP3    H258245   5.692   0.339  15.106 -0.2499 -1.7607 -0.3351
12252TIP3   OH258246   5.350   4.031  16.313 -1.0120 -0.1189 -0.0460
12252TIP3    H158247   5.390   3.952  16.278 -0.9904 -1.1058  2.0688
12252TIP3    H258248   5.256   4.016  16.306 -1.0085 -0.5624  0.8308
12253TIP3   OH258249   0.852   1.122   5.656 -0.1706  0.1927 -0.0780
12253TIP3    H158250   0.897   1.151   5.577 -2.3984  1.8144 -0.8334
12253TIP3    H258251   0.886   1.034   5.672  1.0692  0.2186 -2.2411
12254TIP3   OH258252   5.924   4.805   2.245  0.5998  0.3517  0.6744
12254TIP3    H158253   5.933   4.894   2.277 -0.4901  0.1039  1.7534
12254TIP3    H258254   5.841   4.805   2.196 -0.0569 -0.3312  1.7353
12255TIP3   OH258255   0.047   2.501  13.953  0.6341  0.2635  0.2132
12255TIP3    H158256   0.057   2.534  13.863 -4.4538 -1.2543 -1.2429
12255TIP3    H258257  -0.029   2.546  13.987 -1.3408 -3.5029  1.3257
12256TIP3   OH258258   1.619   0.790   2.174  0.6062 -0.5021 -0.1612
12256TIP3    H158259   1.690   0.826   2.121 -0.2235  1.8658  0.2079
12256TIP3    H258260   1.661   0.758   2.254  1.2844  0.8632  0.0529
12257TIP3   OH258261   6.475   5.250  13.431 -0.3102  0.2185  0.5911
12257TIP3    H158262   6.513   5.167  13.402 -0.4165 -0.0811  1.3046
12257TIP3    H258263   6.548   5.312  13.426  0.1635 -0.2533  1.5170
12258TIP3   OH258264   2.839   0.127   5.157 -0.4685  0.1912 -0.0409
12258TIP3    H158265   2.817   0.061   5.223  1.1140  0.4072  0.7589
12258TIP3    H258266   2.778   0.110   5.085  0.7009 -3.0277 -0.4416
12259TIP3   OH258267   2.180   2.166  15.969 -0.0595  0.0410  0.2983
12259TIP3    H158268   2.248   2.098  15.975 -0.6039 -0.5904 -0.5517
12259TIP3    H258269   2.218   2.242  16.013  0.6537 -0.7415  1.0637
12260TIP3   OH258270   6.537   5.692  12.874 -0.1795 -0.2407  0.0002
12260TIP3    H158271   6.565   5.761  12.814  1.9436 -1.3778 -0.3834
12260TIP3    H258272   6.559   5.726  12.961  0.2210 -0.1593 -0.1323
12261TIP3   OH258273   2.270   3.967  12.464  0.3496  0.0458  0.1774
12261TIP3    H158274   2.247   3.875  12.475  2.1361 -0.8865 -2.7030
12261TIP3    H258275   2.192   4.008  12.428 -0.2265 -0.5021  0.7851
12262TIP3   OH258276   4.419   3.221  12.215  0.5864 -0.6644 -0.2751
12262TIP3    H158277   4.514   3.228  12.215  0.5315  0.5606 -1.5341
12262TIP3    H258278   4.391   3.270  12.292  0.8954  1.5568 -1.4744
12263TIP3   OH258279   4.145   5.257  10.732  0.7842 -0.0921  0.3153
12263TIP3    H158280   4.177   5.217  10.651 -1.1496  0.2678 -0.7006
12263TIP3    H258281   4.189   5.342  10.737  1.1021 -0.2228 -0.2326
12264TIP3   OH258282   3.427   0.253  13.448 -0.4640 -0.1483 -0.1492
12264TIP3    H158283   3.463   0.339  13.425  0.7856 -0.6562 -0.2119
12264TIP3    H258284   3.370   0.230  13.375  1.1195 -0.4286 -1.3505
12265TIP3   OH258285   2.438   1.784   2.281 -0.1888 -0.3368 -0.0683
12265TIP3    H158286   2.426   1.751   2.192 -1.7301  2.7758 -1.1499
12265TIP3    H258287   2.389   1.723   2.336 -0.2592 -1.6051 -1.4690
12266TIP3   OH258288   4.686   0.551  12.194  0.3841  0.1421 -0.1411
12266TIP3    H158289   4.648   0.617  12.136 -0.1574 -0.8102 -0.8971
12266TIP3    H258290   4.690   0.472  12.141  0.3635 -0.6192  0.9660
12267TIP3   OH258291   2.085   2.680   5.851  0.2497  0.4412 -0.3197
12267TIP3    H158292   2.161   2.649   5.901  0.7307  0.6397 -0.9172
12267TIP3    H258293   2.010   2.640   5.895  0.6447  0.7987  0.7076
12268TIP3   OH258294   3.695   2.876  11.481 -0.2929 -0.1720 -0.8132
12268TIP3    H158295   3.706   2.837  11.394  0.3571 -0.0186 -0.8005
12268TIP3    H258296   3.764   2.837  11.535 -1.5108 -1.2860  0.0018
12269TIP3   OH258297   5.651   3.033   6.781 -0.1720  0.1503 -0.0271
12269TIP3    H158298   5.726   3.078   6.742 -0.2055 -0.1870 -0.4893
12269TIP3    H258299   5.685   2.948   6.808 -0.4519 -0.1205 -0.5081
12270TIP3   OH258300   5.244   5.677   5.515  0.1558 -0.0720  0.3360
12270TIP3    H158301   5.200   5.707   5.436  0.0633 -0.5849  0.1905
12270TIP3    H258302   5.174   5.673   5.581 -0.0935 -1.2098  0.0175
12271TIP3   OH258303   3.376   4.532  12.474 -0.4774  0.2320  0.2585
12271TIP3    H158304   3.293   4.501  12.437  0.0406  0.0356 -0.7992
12271TIP3    H258305   3.435   4.458  12.463  0.4553  1.1284 -1.1887
12272TIP3   OH258306   2.532   6.013   1.056 -0.3491  0.7850  0.0461
12272TIP3    H158307   2.441   6.008   1.085 -0.6800  0.4109 -1.0086
12272TIP3    H258308   2.575   5.939   1.099 -0.7825  0.3522 -0.2524
12273TIP3   OH258309   6.319   6.162   2.652  0.9422 -0.0126 -0.1796
12273TIP3    H158310   6.385   6.193   2.590  0.0883  0.2670 -0.9820
12273TIP3    H258311   6.333   6.067   2.658  0.5130 -0.1826 -1.4798
12274TIP3   OH258312   6.566   5.770   1.434  0.3755  0.3321  0.3947
12274TIP3    H158313   6.579   5.817   1.517  0.4763  1.5805 -0.2957
12274TIP3    H258314   6.654   5.757   1.399  0.3549 -0.5004  0.6288
12275TIP3   OH258315   3.917   4.290  17.233 -0.1001  0.1625  0.0629
12275TIP3    H158316   3.857   4.354  17.273  0.8307  0.5952  0.8216
12275TIP3    H258317   4.005   4.323  17.255  0.4099 -0.8884 -0.3284
12276TIP3   OH258318   1.883   2.728  11.278 -0.4977  0.5940 -0.4175
12276TIP3    H158319   1.866   2.778  11.199 -1.4890 -0.8148 -1.1357
12276TIP3    H258320   1.828   2.650  11.270 -1.5284  0.9577  2.2271
12277TIP3   OH258321   5.808   6.362  14.031  0.1788 -0.1110  0.2926
12277TIP3    H158322   5.763   6.442  14.058 -0.2782 -0.0369 -0.6626
12277TIP3    H258323   5.845   6.383  13.945 -0.4102 -1.1024 -0.2129
12278TIP3   OH258324   2.054   3.523   5.973 -0.2563 -0.9314 -0.5130
12278TIP3    H158325   2.097   3.443   5.944 -0.9427 -1.7297  0.5848
12278TIP3    H258326   2.126   3.586   5.983  0.1635 -1.0639 -2.3885
12279TIP3   OH258327   2.411   1.760  13.030  0.2583  0.3942  0.1078
12279TIP3    H158328   2.365   1.708  13.096  1.7328  0.2596  1.0900
12279TIP3    H258329   2.351   1.832  13.010 -0.0666  0.6834  1.9382
12280TIP3   OH258330   6.424   1.382   3.888  0.0507  0.1243  0.1674
12280TIP3    H158331   6.517   1.377   3.912  0.5250  1.0417 -1.3368
12280TIP3    H258332   6.379   1.336   3.959  1.6186 -0.0885  1.0868
12281TIP3   OH258333   2.311   5.170   5.897  0.1686  0.0747  0.3623
12281TIP3    H158334   2.244   5.165   5.829  0.7635 -0.7680 -0.1653
12281TIP3    H258335   2.347   5.082   5.903  2.6507  0.9115 -0.8065
12282TIP3   OH258336   6.404   6.299  15.449  0.4883  0.2398  0.1017
12282TIP3    H158337   6.336   6.274  15.511  0.1291 -0.6010 -0.6156
12282TIP3    H258338   6.357   6.325  15.370  0.9226  1.6638  0.2708
12283TIP3   OH258339   1.795   1.402  15.765  0.3153  0.6511 -0.3437
12283TIP3    H158340   1.761   1.353  15.840 -0.2518  1.1784 -0.2477
12283TIP3    H258341   1.879   1.437  15.796  1.1014 -0.8921 -0.6763
12284TIP3   OH258342   5.373   5.234  16.054 -0.5905  0.5410  0.4089
12284TIP3    H158343   5.339   5.271  16.135  0.5816  3.1200 -0.1330
12284TIP3    H258344   5.456   5.281  16.040 -0.5022 -0.1969 -1.9906
12285TIP3   OH258345   4.619   2.928   3.314  0.2266 -0.1883  0.2883
12285TIP3    H158346   4.597   3.018   3.338 -0.9971 -0.0128 -1.3614
12285TIP3    H258347   4.588   2.875   3.388  0.0893  0.6389  0.8361
12286TIP3   OH258348   4.966   0.521   2.171 -0.1711 -0.2483 -0.1967
12286TIP3    H158349   4.875   0.491   2.165 -0.0884 -0.3156 -1.5186
12286TIP3    H258350   4.983   0.561   2.086  1.0896 -0.3940 -0.0243
12287TIP3   OH258351   4.945   6.502   3.833  0.2559 -0.2219 -0.4991
12287TIP3    H158352   4.953   6.590   3.797  2.6342 -0.0097  0.3633
12287TIP3    H258353   4.979   6.445   3.763 -0.2593 -0.3519 -0.6456
12288TIP3   OH258354   3.718   2.414  16.553 -0.2177  0.7293  0.1835
12288TIP3    H158355   3.763   2.366  16.623 -1.3348  0.0982  0.5031
12288TIP3    H258356   3.632   2.371  16.546 -0.1113  0.7434 -1.6276
12289TIP3   OH258357   0.981   1.925   5.012 -0.0202  0.2602  0.1630
12289TIP3    H158358   1.039   1.873   4.956  1.5201  1.6322  0.3934
12289TIP3    H258359   0.949   1.994   4.955  2.6122  2.4679  1.1366
12290TIP3   OH258360   0.329   2.331  12.768 -0.6331 -0.0259  0.3122
12290TIP3    H158361   0.280   2.363  12.844 -2.4184  0.6566 -1.0666
12290TIP3    H258362   0.350   2.409  12.718 -0.8764 -0.6025 -0.7085
12291TIP3   OH258363   3.248   2.407  11.484 -0.2180 -0.1359 -0.0795
12291TIP3    H158364   3.260   2.435  11.574 -0.1135 -1.0165  0.1880
12291TIP3    H258365   3.288   2.477  11.431  0.0347  0.2080  0.5603
12292TIP3   OH258366   2.693   2.084   4.630  0.3244  0.0575  0.0561
12292TIP3    H158367   2.660   2.103   4.542 -0.0927 -0.8308  0.0196
12292TIP3    H258368   2.719   2.170   4.664  1.9498  0.2506 -1.5098
12293TIP3   OH258369   5.359   2.196   1.258 -0.6791 -0.2279  0.1905
12293TIP3    H158370   5.350   2.104   1.234 -2.2381  0.0472 -0.4299
12293TIP3    H258371   5.290   2.209   1.324 -1.2998  0.7702 -0.6339
12294TIP3   OH258372   5.927   4.482   4.310 -0.3921  0.1223  0.1515
12294TIP3    H158373   5.876   4.492   4.230 -0.7884 -0.6790  0.2969
12294TIP3    H258374   6.018   4.494   4.282 -0.5804  0.5620 -0.2844
12295TIP3   OH258375   1.864   1.326   4.987  0.1793 -0.9878  0.1913
12295TIP3    H158376   1.912   1.247   5.011 -0.9219 -2.3317 -1.7013
12295TIP3    H258377   1.931   1.388   4.961  1.0006 -2.1356 -0.5277
12296TIP3   OH258378   4.123   0.823  11.984  0.6024 -0.0555  0.3418
12296TIP3    H158379   4.100   0.783  12.067  0.0564 -2.1867 -0.7559
12296TIP3    H258380   4.150   0.749  11.929 -2.1645  0.7958 -2.4095
12297TIP3   OH258381   6.354   6.101   0.045  0.4837 -1.0271  0.1872
12297TIP3    H158382   6.405   6.147  -0.021 -1.2977 -0.9627 -1.2159
12297TIP3    H258383   6.303   6.169   0.088 -0.5258 -1.3896 -0.3958
12298TIP3   OH258384   3.355   1.484  13.166 -0.3378  0.7647  0.1791
12298TIP3    H158385   3.293   1.418  13.196  1.8210 -1.1994  0.5743
12298TIP3    H258386   3.367   1.465  13.072  0.2839  0.5549  0.2929
12299TIP3   OH258387   4.672   3.239  17.034  0.1160  0.6002 -0.5594
12299TIP3    H158388   4.648   3.285  17.114 -1.3571  2.2744 -1.8821
12299TIP3    H258389   4.611   3.165  17.029 -0.1967  0.8497 -0.4386
12300TIP3   OH258390   5.645   5.807   3.135 -0.4932  0.4970 -0.5448
12300TIP3    H158391   5.592   5.740   3.178 -1.2437  2.1397  1.2061
12300TIP3    H258392   5.714   5.757   3.090 -0.1659 -1.4245  1.8285
12301TIP3   OH258393   4.625   4.028  13.052 -0.2720  0.2364  0.3673
12301TIP3    H158394   4.574   3.976  13.115 -0.6507 -0.4322 -0.4644
12301TIP3    H258395   4.576   4.021  12.970  0.7030  0.3066 -0.2406
12302TIP3   OH258396   3.231   3.107   2.176  0.1044  0.1347 -0.4926
12302TIP3    H158397   3.312   3.069   2.142  0.9181 -0.6038  2.0665
12302TIP3    H258398   3.242   3.201   2.166  1.5777  0.0812  0.3662
12303TIP3   OH258399   1.581   5.759   2.533  0.5349  0.7151  0.2624
12303TIP3    H158400   1.558   5.775   2.441  2.0526 -0.3190 -0.3268
12303TIP3    H258401   1.538   5.675   2.554  2.2050 -0.3384 -0.3159
12304TIP3   OH258402   4.094   3.013   4.551 -0.5242  0.2284 -0.3081
12304TIP3    H158403   4.135   2.932   4.581 -0.4553 -0.2599 -1.6302
12304TIP3    H258404   4.000   2.996   4.557 -0.5369  0.6022  0.7899
12305TIP3   OH258405   1.166   3.412   3.843  0.0418  0.2553 -0.0502
12305TIP3    H158406   1.073   3.431   3.856  0.1475  0.0864  1.0635
12305TIP3    H258407   1.187   3.348   3.911  0.8767 -0.0298 -0.5606
12306TIP3   OH258408   3.727   4.503   2.848  0.3046 -0.0362 -0.2614
12306TIP3    H158409   3.718   4.450   2.769  0.6804  0.6260 -0.7525
12306TIP3    H258410   3.763   4.586   2.818 -2.5790  1.4859  0.1276
12307TIP3   OH258411   4.873   2.344  14.344  0.0989 -0.3969 -0.1134
12307TIP3    H158412   4.827   2.372  14.424  1.7768  2.4694 -0.0576
12307TIP3    H258413   4.914   2.261  14.369 -1.3279 -0.7537  1.2232
12308TIP3   OH258414   1.409   2.337  15.266  0.3867 -0.3922 -0.5892
12308TIP3    H158415   1.351   2.262  15.281  0.5127 -0.5126 -0.6916
12308TIP3    H258416   1.364   2.389  15.200  0.3391 -0.4245 -0.5828
12309TIP3   OH258417   1.709   3.038  13.127  0.2758  0.1063  0.2408
12309TIP3    H158418   1.642   3.044  13.060  0.7189  0.0729 -0.2138
12309TIP3    H258419   1.746   3.126  13.132 -0.5750  0.4259  1.3200
12310TIP3   OH258420   0.551   5.195  13.220 -0.5958 -0.3777 -0.1834
12310TIP3    H158421   0.499   5.141  13.160  0.7910 -1.3004 -0.6148
12310TIP3    H258422   0.636   5.151  13.223 -0.3360  0.1632  1.7624
12311TIP3   OH258423   3.281   6.032   0.432 -0.5978 -0.0298  0.3990
12311TIP3    H158424   3.270   6.126   0.416 -0.4155 -0.1103 -0.2357
12311TIP3    H258425   3.213   6.010   0.496 -0.0752  0.7012  1.2165
12312TIP3   OH258426   6.511   0.240   0.832 -0.2945 -0.6163  0.3197
12312TIP3    H158427   6.456   0.319   0.824 -1.0998 -1.3144 -1.6600
12312TIP3    H258428   6.589   0.270   0.879 -0.3916  1.4837 -0.7349
12313TIP3   OH258429   0.107   3.534   4.434  0.2781  0.1688 -0.1792
12313TIP3    H158430   0.067   3.579   4.508  0.7866  2.0029 -0.9693
12313TIP3    H258431   0.040   3.472   4.404 -0.6838  0.8197  0.5715
12314TIP3   OH258432   4.645   0.949   4.234 -0.2416  0.2046  0.3377
12314TIP3    H158433   4.558   0.911   4.221 -0.2975 -0.5860  2.5052
12314TIP3    H258434   4.629   1.039   4.262 -0.3062  0.3749 -0.2368
12315TIP3   OH258435   2.625   4.766   2.298 -0.5951 -0.2178  0.1518
12315TIP3    H158436   2.577   4.735   2.375  1.3930  2.0309  2.4433
12315TIP3    H258437   2.592   4.854   2.283  0.3316  0.0382 -0.4280
12316TIP3   OH258438   0.343   0.652   0.886 -0.0788 -0.7175 -0.2859
12316TIP3    H158439   0.270   0.654   0.947  1.5955  0.6276  1.8507
12316TIP3    H258440   0.409   0.709   0.926  1.5066 -0.5106 -2.9293
12317TIP3   OH258441   4.942   0.627  15.292  0.5956  0.6685  0.2576
12317TIP3    H158442   4.889   0.688  15.240  0.8380  1.1788  0.6009
12317TIP3    H258443   4.956   0.552  15.234  0.1890  0.8820 -0.1277
12318TIP3   OH258444   5.439   6.358   0.572  0.3465 -0.3615  0.0807
12318TIP3    H158445   5.495   6.406   0.633 -1.5881  1.4720  0.5530
12318TIP3    H258446   5.421   6.420   0.502  1.0326 -1.8206 -1.4577
12319TIP3   OH258447   0.277   1.474   4.364 -0.1231  0.0444 -0.0025
12319TIP3    H158448   0.307   1.435   4.282  0.2775  0.1839  0.0759
12319TIP3    H258449   0.276   1.568   4.346  0.5598  0.1226  0.3422
12320TIP3   OH258450   0.271   3.843  11.896 -0.0964  0.1080 -0.0271
12320TIP3    H158451   0.207   3.796  11.949 -0.1267  0.9838  0.7342
12320TIP3    H258452   0.250   3.935  11.909  0.0876  0.3530 -1.3324
12321TIP3   OH258453   5.622   0.560  15.716 -0.1639 -0.1105  0.5666
12321TIP3    H158454   5.637   0.650  15.686  0.5043 -0.4591 -0.1899
12321TIP3    H258455   5.574   0.519  15.645 -1.3484 -0.0863  1.3401
12322TIP3   OH258456   6.450   1.538   4.200 -0.8160  0.2034  0.7494
12322TIP3    H158457   6.397   1.501   4.271  0.5340 -1.0951  1.1455
12322TIP3    H258458   6.524   1.580   4.245  1.1083 -2.3115  0.1474
12323TIP3   OH258459   0.122   5.790   0.464  0.2114 -0.4698  0.1516
12323TIP3    H158460   0.110   5.884   0.477  0.9322 -0.1533 -1.2578
12323TIP3    H258461   0.092   5.751   0.545  0.6637  1.0439  1.0998
12324TIP3   OH258462   6.753   6.676   2.595 -0.1654 -0.2829 -0.3698
12324TIP3    H158463   6.804   6.595   2.583  3.2260  1.6939 -0.5251
12324TIP3    H258464   6.811   6.732   2.647 -1.9493  2.4379 -1.1739
12325TIP3   OH258465   4.121   4.725   0.399  0.4274 -0.0151  0.5643
12325TIP3    H158466   4.200   4.702   0.351  0.7299  1.8635  0.0534
12325TIP3    H258467   4.143   4.807   0.443 -0.9580  0.0866  1.1222
12326TIP3   OH258468   2.504   2.146   4.871  0.1437 -0.0713 -0.0539
12326TIP3    H158469   2.566   2.094   4.819  1.5809  2.5770 -1.1785
12326TIP3    H258470   2.542   2.149   4.959 -0.1022 -1.0986  0.0971
12327TIP3   OH258471   2.768   6.632   2.765 -0.3133  0.4744  0.2795
12327TIP3    H158472   2.783   6.540   2.740  2.2923  0.7733  0.4866
12327TIP3    H258473   2.712   6.666   2.696 -1.1073 -1.1994  0.0418
12328TIP3   OH258474   2.950   0.053  11.666 -0.0877 -0.0761 -0.3874
12328TIP3    H158475   3.019   0.045  11.732 -0.8625 -1.1167  0.3283
12328TIP3    H258476   2.990   0.104  11.596  0.8037  0.9984  0.8379
12329TIP3   OH258477   6.183   2.871  15.420 -0.1390 -0.1655 -0.5393
12329TIP3    H158478   6.172   2.908  15.333 -1.0828 -0.3391 -0.5056
12329TIP3    H258479   6.139   2.933  15.478  0.4451 -0.0732 -0.1778
12330TIP3   OH258480   6.223   4.069  12.889  0.5426 -0.0387 -0.0400
12330TIP3    H158481   6.257   3.987  12.853  0.9863  0.7933 -1.6011
12330TIP3    H258482   6.143   4.085  12.839  0.2924  0.3372  0.4759
12331TIP3   OH258483   3.029   5.045   5.747 -0.3882  0.0177  0.3278
12331TIP3    H158484   2.939   5.012   5.750 -0.2989 -0.2319  0.2310
12331TIP3    H258485   3.084   4.967   5.754 -0.1521  0.3434  3.3093
12332TIP3   OH258486   4.150   2.660  11.091  0.5562  0.4275 -0.2521
12332TIP3    H158487   4.100   2.691  11.016  1.1899  1.0532 -0.4348
12332TIP3    H258488   4.094   2.595  11.133 -0.4671  1.2351 -0.3455
12333TIP3   OH258489   6.397   5.886  10.788  0.7414  0.3573  0.9731
12333TIP3    H158490   6.379   5.879  10.694  0.7111 -0.3102  1.0269
12333TIP3    H258491   6.453   5.811  10.807  1.2761  0.8461  1.3638
12334TIP3   OH258492   3.435   5.776   0.198 -0.0244 -0.2868 -0.1676
12334TIP3    H158493   3.448   5.770   0.292 -0.0648 -3.0229 -0.2560
12334TIP3    H258494   3.517   5.811   0.164  0.4499 -0.4569  0.7811
12335TIP3   OH258495   1.207   2.888  13.904 -0.1578  0.2544  0.0912
12335TIP3    H158496   1.192   2.874  13.810  1.5732  0.4809 -0.2552
12335TIP3    H258497   1.262   2.814  13.930 -1.2176 -0.2102  1.1309
12336TIP3   OH258498   5.013   6.622   6.287  0.2535  0.9759 -0.1554
12336TIP3    H158499   4.957   6.544   6.287  2.6725 -1.0068  2.5064
12336TIP3    H258500   5.068   6.612   6.209  0.8544 -0.3591  0.3893
12337TIP3   OH258501   3.193   2.791   6.303  0.1653  0.2942  0.5188
12337TIP3    H158502   3.172   2.704   6.338  2.0070  0.6479  2.7560
12337TIP3    H258503   3.117   2.844   6.324 -0.4222 -0.4732  0.3640
12338TIP3   OH258504   3.030   6.636   2.540  0.3948  0.2247 -0.4494
12338TIP3    H158505   3.121   6.607   2.549  0.7244  0.6303 -2.1375
12338TIP3    H258506   3.037   6.728   2.517 -0.3081 -0.1868 -2.6003
12339TIP3   OH258507   5.616   2.991  16.106  0.4748 -0.4444 -0.2594
12339TIP3    H158508   5.699   3.001  16.059 -0.8228 -0.0949 -2.6283
12339TIP3    H258509   5.594   3.080  16.133  0.1389 -0.2887 -1.0146
12340TIP3   OH258510   3.600   2.987   1.661  0.2260 -0.2128  0.1057
12340TIP3    H158511   3.575   2.914   1.604  1.6184 -0.3337 -0.3959
12340TIP3    H258512   3.642   2.945   1.736 -1.1250 -0.0223  1.0105
12341TIP3   OH258513   5.989   0.768  15.845  0.9943 -0.3414 -0.2047
12341TIP3    H158514   6.025   0.692  15.800  1.2008  0.8661 -2.2398
12341TIP3    H258515   6.060   0.833  15.843  0.3028  0.4460  0.0310
12342TIP3   OH258516   1.184   1.533   6.237  0.0987  0.4814  0.1387
12342TIP3    H158517   1.102   1.580   6.252  0.1211  0.3288  0.7524
12342TIP3    H258518   1.252   1.598   6.252  0.1433  0.1586  1.3994
12343TIP3   OH258519   6.196   1.570   3.248  0.3245 -0.5896  0.4495
12343TIP3    H158520   6.287   1.566   3.279  0.0649  0.9826  1.5420
12343TIP3    H258521   6.145   1.589   3.327 -0.9287 -1.1337 -0.2032
12344TIP3   OH258522   2.151   0.175  16.432 -0.6015 -0.3102 -0.2312
12344TIP3    H158523   2.218   0.222  16.381 -1.3055  1.4015  0.3615
12344TIP3    H258524   2.160   0.084  16.404 -0.1296  0.3595 -2.5051
12345TIP3   OH258525   5.940   5.458   1.974  0.5429  0.3743  0.1744
12345TIP3    H158526   5.863   5.415   1.935 -0.6300  1.6128  1.0278
12345TIP3    H258527   6.014   5.419   1.928 -0.5749 -0.9321 -0.6282
12346TIP3   OH258528   5.688   5.661   0.979 -0.2372  0.0274  0.6789
12346TIP3    H158529   5.715   5.750   1.003 -1.2623  0.3842  0.5711
12346TIP3    H258530   5.670   5.618   1.063  1.9789 -0.6786  0.8409
12347TIP3   OH258531   2.790   3.343   1.276  0.2921 -0.2633 -0.3352
12347TIP3    H158532   2.775   3.261   1.229 -0.3725  0.2913 -1.1353
12347TIP3    H258533   2.752   3.410   1.219  1.7152  0.7200 -0.1791
12348TIP3   OH258534   0.839   3.102   4.564  0.3497  0.6964 -0.2836
12348TIP3    H158535   0.816   3.031   4.623 -1.4528  0.5008 -1.1751
12348TIP3    H258536   0.896   3.159   4.616  1.3592 -1.0591  0.6209
12349TIP3   OH258537   2.831   0.538  16.639 -0.4741  0.2786 -0.4369
12349TIP3    H158538   2.883   0.614  16.664 -0.0931 -0.4911  1.2171
12349TIP3    H258539   2.746   0.552  16.682  0.0795 -0.9009  1.1266
12350TIP3   OH258540   4.430   0.162  14.760 -0.1749  0.3411  0.3264
12350TIP3    H158541   4.343   0.196  14.783 -0.9250  1.9772 -3.9392
12350TIP3    H258542   4.489   0.201  14.824 -2.4018 -0.1090  2.8185
12351TIP3   OH258543   2.272   0.043   0.113 -0.3042  0.4496  0.6514
12351TIP3    H158544   2.185   0.081   0.106 -0.3882  0.2815  0.7740
12351TIP3    H258545   2.309   0.079   0.194 -0.3457  0.3467  0.7160
12352TIP3   OH258546   1.618   2.777  16.210 -0.1622  0.1480 -0.1343
12352TIP3    H158547   1.656   2.732  16.285  3.4048  0.6806 -1.4376
12352TIP3    H258548   1.597   2.707  16.148 -2.3892 -0.2264  0.9441
12353TIP3   OH258549   5.165   2.599  16.328 -0.2388 -0.0601  0.5014
12353TIP3    H158550   5.077   2.563  16.316 -0.4465  0.4549  0.4836
12353TIP3    H258551   5.223   2.528  16.300 -0.6659  0.3143 -1.4522
12354TIP3   OH258552   4.709   5.038   0.924 -0.3225  0.4660 -0.2989
12354TIP3    H158553   4.622   5.034   0.964  0.2512 -0.8101  0.8644
12354TIP3    H258554   4.703   4.980   0.848  0.0523 -1.2868  0.9420
12355TIP3   OH258555   2.687   6.692   6.389 -0.0349  0.0953 -0.2770
12355TIP3    H158556   2.777   6.664   6.373  1.4256  3.3857  1.1450
12355TIP3    H258557   2.696   6.767   6.448 -3.6748  1.0816 -0.7562
12356TIP3   OH258558   4.028   0.411  15.886  0.1196 -0.6001  0.2302
12356TIP3    H158559   3.934   0.416  15.868 -0.3034 -0.2733  2.2888
12356TIP3    H258560   4.055   0.502  15.899  0.6372 -0.7266  0.0677
12357TIP3   OH258561   6.780   6.280   3.596 -0.3328  0.7073 -0.1773
12357TIP3    H158562   6.805   6.311   3.684  1.3453 -0.4750 -0.1974
12357TIP3    H258563   6.776   6.359   3.543 -0.5909  1.3564  0.7822
12358TIP3   OH258564   1.943   2.471   3.916 -0.3011  0.1595  0.1425
12358TIP3    H158565   1.996   2.464   3.996 -0.0169  1.2830  0.0693
12358TIP3    H258566   1.864   2.516   3.944 -0.3390  0.2750 -0.1526
12359TIP3   OH258567   1.286   3.937   0.023 -0.4831 -0.5908 -0.0146
12359TIP3    H158568   1.321   4.023   0.046 -0.1980 -0.7205  0.0403
12359TIP3    H258569   1.200   3.955  -0.014  0.0134 -0.1833 -1.0251
12360TIP3   OH258570   6.073   3.323   4.260 -0.5623 -0.4900  0.3401
12360TIP3    H158571   6.118   3.264   4.199  0.1126  0.9175 -0.5696
12360TIP3    H258572   6.051   3.400   4.207  0.1780  0.8524  1.8990
12361TIP3   OH258573   0.793   2.599   5.424 -0.1861  0.0575  0.1410
12361TIP3    H158574   0.844   2.654   5.483 -0.7711 -0.2107  0.9165
12361TIP3    H258575   0.765   2.658   5.354 -0.8873  0.7794  1.0092
12362TIP3   OH258576   3.325   6.349  12.675  0.1534  0.2503  0.1359
12362TIP3    H158577   3.343   6.302  12.594 -1.4644 -0.0944 -0.0391
12362TIP3    H258578   3.412   6.371  12.709  0.9064 -1.3774 -0.6298
12363TIP3   OH258579   6.155   1.801   5.792  0.0711  0.2506  0.2911
12363TIP3    H158580   6.216   1.810   5.719  0.7511  1.6415  0.9839
12363TIP3    H258581   6.205   1.829   5.869 -1.7911  2.9159  0.6974
12364TIP3   OH258582   5.723   6.016  13.868 -0.3040  0.0320 -0.4096
12364TIP3    H158583   5.816   6.011  13.844  0.1385  1.6087  0.7777
12364TIP3    H258584   5.685   6.076  13.804 -0.3546 -0.1358 -0.5345
12365TIP3   OH258585   3.401   1.099  15.882  0.7947  0.0439  0.1109
12365TIP3    H158586   3.370   1.027  15.936 -1.8719  0.4837 -0.7259
12365TIP3    H258587   3.371   1.079  15.794  3.4606  0.2647 -0.9655
12366TIP3   OH258588   2.503   4.127   5.406 -0.2009  0.8085  0.0929
12366TIP3    H158589   2.484   4.037   5.382  1.7475  0.5908 -0.8117
12366TIP3    H258590   2.474   4.135   5.497 -0.4496 -0.6970  0.1604
12367TIP3   OH258591   1.236   3.251   3.088  0.2279 -0.0805 -0.1977
12367TIP3    H158592   1.301   3.316   3.060 -0.3446  0.9199  0.6887
12367TIP3    H258593   1.232   3.188   3.016  1.5029  0.3386 -0.6659
12368TIP3   OH258594   6.049   4.743  13.562 -0.1852 -0.1315 -0.3938
12368TIP3    H158595   6.129   4.692  13.550 -0.5626 -0.7326 -0.3899
12368TIP3    H258596   6.024   4.728  13.653 -1.0412 -1.0405 -0.7699
12369TIP3   OH258597   3.988   2.047  13.056 -0.4066 -0.2170 -0.1163
12369TIP3    H158598   3.964   1.956  13.071  0.8263 -0.7199 -1.0563
12369TIP3    H258599   4.062   2.043  12.996  0.8702  1.3496  1.2706
12370TIP3   OH258600   6.678   3.813  15.094  0.4579 -0.4167  0.0776
12370TIP3    H158601   6.651   3.833  15.184 -0.4523 -0.3238 -0.2105
12370TIP3    H258602   6.676   3.898  15.050  3.5438  0.0592  0.5980
12371TIP3   OH258603   5.395   0.602   1.951 -0.1637 -0.0473  0.5361
12371TIP3    H158604   5.415   0.680   2.003  0.5153  0.9012 -1.1019
12371TIP3    H258605   5.404   0.630   1.860 -0.4522 -1.9008 -0.1065
12372TIP3   OH258606   5.277   6.521   3.403  0.2312 -0.2412  0.2807
12372TIP3    H158607   5.372   6.535   3.402  0.2213  0.0877 -2.5163
12372TIP3    H258608   5.240   6.609   3.411  0.2007 -0.0603 -1.5133
12373TIP3   OH258609   0.013   2.401   4.711  0.0999  0.1262  0.1416
12373TIP3    H158610  -0.038   2.334   4.758  0.1968  0.0648  0.1592
12373TIP3    H258611   0.103   2.387   4.739  0.0914  0.3972  0.3020
12374TIP3   OH258612   1.981   2.883  13.588 -0.0389  0.1065 -0.6761
12374TIP3    H158613   2.065   2.929  13.589  0.1698 -0.2675 -0.7187
12374TIP3    H258614   2.003   2.794  13.562 -0.2368 -0.4233  0.8947
12375TIP3   OH258615   0.874   0.917  13.499 -0.7286  0.4294 -0.4985
12375TIP3    H158616   0.908   0.898  13.587 -1.0200  1.6490 -0.0997
12375TIP3    H258617   0.849   0.832  13.464  0.3752 -0.1947  0.1827
12376TIP3   OH258618   3.916   2.420  16.909  0.1195 -0.4019  0.5774
12376TIP3    H158619   3.948   2.473  16.983  0.3884 -0.2129  0.3276
12376TIP3    H258620   3.946   2.467  16.831  2.3209 -2.0614  0.3331
12377TIP3   OH258621   2.701   6.657   6.049  0.3851 -0.3355 -0.2728
12377TIP3    H158622   2.664   6.743   6.065  1.7053  0.1539  0.3164
12377TIP3    H258623   2.708   6.651   5.954  1.4338  0.7397 -0.2853
12378TIP3   OH258624   1.518   2.379   3.570 -0.6373  0.3465  0.4773
12378TIP3    H158625   1.558   2.465   3.553  0.6701 -0.3668 -0.2024
12378TIP3    H258626   1.546   2.325   3.496 -3.5511 -0.0166 -0.4791
12379TIP3   OH258627   3.405   0.980  17.041  0.2508 -0.0724 -0.0427
12379TIP3    H158628   3.470   1.020  17.098  0.8983 -0.6033 -0.3885
12379TIP3    H258629   3.341   1.049  17.024  0.1417  0.1365  1.1736
12380TIP3   OH258630   1.899   2.755  13.025  0.4775 -0.1951  0.4786
12380TIP3    H158631   1.830   2.813  12.992  0.7317 -0.6055 -0.8243
12380TIP3    H258632   1.862   2.667  13.019  0.8872 -0.3612  0.3584
12381TIP3   OH258633   3.240   1.146  14.377  0.1391  0.2161 -0.1248
12381TIP3    H158634   3.301   1.152  14.303  1.7593 -1.0096  1.0460
12381TIP3    H258635   3.169   1.091  14.345  1.1759 -0.9042 -0.5828
12382TIP3   OH258636   1.460   5.934  13.687 -0.5437 -0.2432  0.1025
12382TIP3    H158637   1.497   5.905  13.771 -0.1894 -0.0340  0.0203
12382TIP3    H258638   1.486   6.026  13.680  0.8313 -0.6825 -0.9986
12383TIP3   OH258639   0.683   4.252   3.055  0.1753 -0.2770 -0.9249
12383TIP3    H158640   0.674   4.224   3.146  0.3518  0.3925 -0.6960
12383TIP3    H258641   0.633   4.187   3.005  0.3652 -0.8474 -0.3885
12384TIP3   OH258642   3.645   1.419   5.544 -0.0352 -0.6504  0.0428
12384TIP3    H158643   3.674   1.402   5.634 -3.0059 -1.2653  1.0026
12384TIP3    H258644   3.605   1.337   5.516 -1.2882  0.2321 -0.8998
12385TIP3   OH258645   1.868   1.462  15.305 -0.2842  0.3233  0.1362
12385TIP3    H158646   1.897   1.457  15.214 -1.9878  0.7436 -0.4604
12385TIP3    H258647   1.852   1.372  15.331 -0.5386  0.2546 -0.2489
12386TIP3   OH258648   6.315   4.502   3.363  0.1966 -0.1895 -0.1807
12386TIP3    H158649   6.310   4.582   3.311 -1.0887 -1.2859 -1.8374
12386TIP3    H258650   6.225   4.469   3.366  0.7531 -1.8030  0.0974
12387TIP3   OH258651   0.637   1.385  14.564  0.5242 -0.2633 -0.1980
12387TIP3    H158652   0.562   1.338  14.529 -0.7564  1.1637  0.5242
12387TIP3    H258653   0.643   1.465  14.511  2.3874 -0.9509 -1.1210
12388TIP3   OH258654   0.454   0.146   1.559  0.9385 -0.1465  1.2589
12388TIP3    H158655   0.494   0.095   1.489  0.7461 -1.6402  2.1678
12388TIP3    H258656   0.461   0.237   1.531  0.0164 -0.7387 -1.1258
12389TIP3   OH258657   5.909   6.401   1.392  0.0761  0.3792  0.2713
12389TIP3    H158658   5.890   6.376   1.483 -1.8558  0.0480 -0.1938
12389TIP3    H258659   5.953   6.325   1.355 -0.5814 -0.1140  0.4881
12390TIP3   OH258660   6.002   5.041  14.114  0.4519 -0.0059  0.0164
12390TIP3    H158661   6.077   4.983  14.126 -0.7714 -1.9821 -1.3065
12390TIP3    H258662   5.948   5.028  14.191 -0.0097 -0.9524 -0.4585
12391TIP3   OH258663   1.287   2.438   4.424  0.5000  0.0008  0.7434
12391TIP3    H158664   1.338   2.461   4.347  0.1375 -0.2098  0.4370
12391TIP3    H258665   1.342   2.465   4.498  0.7743  0.3608  0.4136
12392TIP3   OH258666   2.383   3.123   5.028 -0.2028 -0.4296 -0.4188
12392TIP3    H158667   2.419   3.212   5.024  2.5364 -1.4775 -2.2075
12392TIP3    H258668   2.393   3.089   4.939 -1.7081 -2.3891  0.0730
12393TIP3   OH258669   1.841   2.844   5.523 -0.5186  0.1087  0.6558
12393TIP3    H158670   1.766   2.785   5.516  0.4637 -1.1483  0.4344
12393TIP3    H258671   1.814   2.923   5.477 -2.0266  0.0244  1.3308
12394TIP3   OH258672   5.952   0.813  15.515 -0.0076  0.3886 -0.3323
12394TIP3    H158673   5.950   0.902  15.552  0.7217  0.2639  0.0167
12394TIP3    H258674   6.033   0.774  15.550 -0.2761 -0.3821 -0.5600
12395TIP3   OH258675   2.573   2.872   4.835 -0.0050  0.0280  0.1976
12395TIP3    H158676   2.519   2.818   4.892  0.3251  0.3945  0.8764
12395TIP3    H258677   2.623   2.928   4.895  0.2752  0.4976 -0.4532
12396TIP3   OH258678   0.265   2.252  11.481 -0.2100 -0.2906  0.1515
12396TIP3    H158679   0.211   2.330  11.497 -1.1907 -0.8733 -0.2084
12396TIP3    H258680   0.267   2.243  11.386  0.0352 -0.6069  0.1844
12397TIP3   OH258681   1.045   0.351   0.956  0.4530 -0.2257 -0.0541
12397TIP3    H158682   1.079   0.400   0.881 -2.2004  2.6368  0.4026
12397TIP3    H258683   1.084   0.394   1.032  1.6147 -1.8761  0.3477
12398TIP3   OH258684   5.382   0.910   1.542 -0.8158  0.0907  1.0700
12398TIP3    H158685   5.439   0.968   1.593 -1.1464 -0.2172  1.8007
12398TIP3    H258686   5.391   0.825   1.584 -1.7020  0.0101  1.1034
12399TIP3   OH258687   1.173   5.380  12.153  0.1509  0.1202 -0.0417
12399TIP3    H158688   1.116   5.420  12.088  0.4333 -2.7165 -2.2195
12399TIP3    H258689   1.261   5.384  12.114  0.6705  0.1356  1.0798
12400TIP3   OH258690   1.253   3.112  13.154  0.1662  0.3921  0.4042
12400TIP3    H158691   1.241   3.205  13.135  0.5907  0.6321  1.2814
12400TIP3    H258692   1.170   3.072  13.128  0.1001  0.9593 -0.2894
12401TIP3   OH258693   5.863   3.852  12.396  0.5332 -0.5587 -0.1029
12401TIP3    H158694   5.793   3.810  12.446 -0.5032  0.0546 -1.0093
12401TIP3    H258695   5.818   3.902  12.328  1.9035 -1.4417 -1.7312
12402TIP3   OH258696   5.713   6.701  16.029  0.0366 -0.5187  0.1122
12402TIP3    H158697   5.801   6.731  16.054 -0.4132  1.2532 -0.2949
12402TIP3    H258698   5.706   6.722  15.936  0.0223 -2.8598 -0.4593
12403TIP3   OH258699   1.369   1.185  11.802  0.2526  0.1995  0.5504
12403TIP3    H158700   1.455   1.223  11.786  0.0502  0.3715 -0.1905
12403TIP3    H258701   1.307   1.254  11.777 -0.1089 -0.4599 -0.4341
12404TIP3   OH258702   1.161   3.666   0.314  0.1598  0.3159  0.7477
12404TIP3    H158703   1.158   3.605   0.387  1.3621  0.6577  1.1045
12404TIP3    H258704   1.179   3.751   0.355 -1.5369  0.9379  0.2684
12405TIP3   OH258705   5.847   5.100   0.003 -0.3547  0.2995  0.3021
12405TIP3    H158706   5.881   5.185   0.030 -0.1768  0.6340 -0.8896
12405TIP3    H258707   5.923   5.055  -0.035 -0.8278  0.3131 -0.6750
12406TIP3   OH258708   2.255   6.165  12.569  0.3732 -0.0744  0.2105
12406TIP3    H158709   2.214   6.126  12.492  0.2185 -0.1972  0.3564
12406TIP3    H258710   2.291   6.091  12.618  0.8690  0.0393  0.0289
12407TIP3   OH258711   6.198   6.570  12.607  0.7837  0.3300 -0.1681
12407TIP3    H158712   6.227   6.648  12.560 -1.5791  1.1479 -0.4067
12407TIP3    H258713   6.156   6.516  12.540 -1.0532  0.7016  0.6159
12408TIP3   OH258714   1.329   4.519   3.845 -0.6172 -0.2803  0.3993
12408TIP3    H158715   1.253   4.533   3.901 -0.8463  0.6612 -0.1202
12408TIP3    H258716   1.396   4.578   3.879 -0.4109 -0.4717  0.3291
12409TIP3   OH258717   3.172   5.146  14.066  0.6928  0.4690  0.0384
12409TIP3    H158718   3.158   5.169  14.158  0.9831 -0.4786  0.3289
12409TIP3    H258719   3.091   5.104  14.038 -0.0262  2.2224 -0.6372
12410TIP3   OH258720   6.367   3.770  15.060  0.5071  0.2600  0.0945
12410TIP3    H158721   6.408   3.729  14.984 -0.5459  0.0452 -0.3698
12410TIP3    H258722   6.413   3.732  15.135  0.7642 -0.4243 -0.3947
12411TIP3   OH258723   0.986   6.275  11.005  0.0639 -0.4133 -0.0949
12411TIP3    H158724   0.964   6.356  11.051  0.2217 -0.6103  0.3363
12411TIP3    H258725   0.965   6.293  10.913 -0.6317 -0.1434  0.1063
12412TIP3   OH258726   3.246   0.630  13.504 -0.5386 -0.2830 -0.1889
12412TIP3    H158727   3.286   0.629  13.591  0.2098  0.1732 -0.5153
12412TIP3    H258728   3.229   0.538  13.485 -0.7922 -0.3834  0.4704
12413TIP3   OH258729   5.775   1.766  11.772  0.0656 -0.0421  0.3431
12413TIP3    H158730   5.862   1.730  11.754  0.3288  0.2624  0.9814
12413TIP3    H258731   5.725   1.694  11.809  0.3885  0.0607  0.9977
12414TIP3   OH258732   1.562   2.123  15.611  0.8393 -0.2528 -0.1157
12414TIP3    H158733   1.629   2.056  15.615 -0.6612 -2.0411 -2.4003
12414TIP3    H258734   1.572   2.163  15.525 -0.2866  0.2534 -0.0391
12415TIP3   OH258735   2.664   6.110   2.749  0.2872 -0.1904 -0.5273
12415TIP3    H158736   2.759   6.099   2.751  0.4034  0.8247  0.8547
12415TIP3    H258737   2.632   6.030   2.707  1.5674 -1.8932  1.5507
12416TIP3   OH258738   6.382   4.386  13.642  0.7122 -0.0767  0.5086
12416TIP3    H158739   6.414   4.455  13.701  0.9891 -0.4735  0.8245
12416TIP3    H258740   6.368   4.310  13.699  0.3507 -0.2656  0.1712
12417TIP3   OH258741   4.023   4.049   5.387 -0.2213 -0.2735 -0.5554
12417TIP3    H158742   3.978   3.974   5.426 -0.8867  0.5202  0.2690
12417TIP3    H258743   4.113   4.020   5.374  0.3205 -0.2938  2.5615
12418TIP3   OH258744   0.671   4.473  17.193 -0.0110 -0.3821  0.2468
12418TIP3    H158745   0.619   4.482  17.113  1.3108 -0.7923 -0.6904
12418TIP3    H258746   0.610   4.494  17.264 -1.5196 -1.1240 -0.7788
12419TIP3   OH258747   4.768   0.661   0.392 -0.0400 -0.7646  0.1397
12419TIP3    H158748   4.709   0.695   0.458  2.0034 -0.2505  1.8004
12419TIP3    H258749   4.829   0.733   0.374  1.6606 -2.0489  0.4420
12420TIP3   OH258750   3.051   2.384   4.702  0.3839  0.5461 -0.5488
12420TIP3    H158751   3.027   2.293   4.683 -1.1502  0.7105  0.4873
12420TIP3    H258752   3.130   2.377   4.756  0.6547 -0.1269 -1.0127
12421TIP3   OH258753   4.888   3.825  12.584  0.0258  0.1965 -0.1138
12421TIP3    H158754   4.888   3.822  12.679  2.8808 -0.4524 -0.0570
12421TIP3    H258755   4.958   3.886  12.561 -0.2759 -0.0397 -1.8228
12422TIP3   OH258756   1.589   4.498   4.452  0.1231 -0.4493  0.2177
12422TIP3    H158757   1.565   4.564   4.387 -1.7279 -1.1874  0.0837
12422TIP3    H258758   1.605   4.418   4.400  0.7561 -0.5100  0.5014
12423TIP3   OH258759   0.531   6.094  12.613 -0.2911  0.3078  0.4665
12423TIP3    H158760   0.620   6.127  12.627  0.7573 -1.4040 -1.5741
12423TIP3    H258761   0.516   6.036  12.688  0.0129  1.1474  1.1938
12424TIP3   OH258762   4.672   6.034  14.827 -0.1122 -0.2396 -0.2735
12424TIP3    H158763   4.740   5.967  14.832 -0.7522 -0.8684  0.1649
12424TIP3    H258764   4.685   6.076  14.742  1.8366  0.7475  0.4341
12425TIP3   OH258765   5.437   3.881  14.673  0.5208  0.2078 -0.3893
12425TIP3    H158766   5.471   3.961  14.714  0.6541  0.1618 -0.4076
12425TIP3    H258767   5.472   3.883  14.584  0.0272  0.4312 -0.5774
12426TIP3   OH258768   2.341   6.675   4.933 -0.0465 -0.0914 -0.0242
12426TIP3    H158769   2.349   6.740   4.864  4.0574  1.2460  1.4000
12426TIP3    H258770   2.329   6.727   5.013 -2.1260 -1.4629  0.6270
12427TIP3   OH258771   4.960   5.136   0.989  0.0081  0.2211 -0.2258
12427TIP3    H158772   4.926   5.206   1.045 -0.8467  1.0268 -1.7099
12427TIP3    H258773   4.883   5.100   0.946  0.5757 -0.8501 -0.3776
12428TIP3   OH258774   1.478   1.399  16.646 -0.3872  0.0123 -0.2239
12428TIP3    H158775   1.441   1.378  16.561 -1.8224 -0.9768  0.5884
12428TIP3    H258776   1.412   1.369  16.709  0.0745  1.8237  1.2171
12429TIP3   OH258777   6.519   0.089   4.867 -0.1282  0.0330 -0.0587
12429TIP3    H158778   6.591   0.127   4.817 -0.1291 -0.9178 -0.8095
12429TIP3    H258779   6.453   0.068   4.802 -0.2288 -0.9926  0.3561
12430TIP3   OH258780   3.433   4.823  11.637  0.6490  1.0903  0.3758
12430TIP3    H158781   3.380   4.745  11.622 -0.3992  1.7189  0.6893
12430TIP3    H258782   3.480   4.806  11.718  0.5298  0.7296  0.3695
12431TIP3   OH258783   6.308   6.249  16.689 -0.1801  0.2765  0.2021
12431TIP3    H158784   6.223   6.273  16.726  0.2796 -0.2619  1.6873
12431TIP3    H258785   6.366   6.320  16.716  0.7049 -1.2937  2.7450
12432TIP3   OH258786   6.146   6.273   3.589  0.3424  1.0482  0.4301
12432TIP3    H158787   6.193   6.264   3.506 -1.4554 -2.3339 -0.3999
12432TIP3    H258788   6.078   6.338   3.571 -1.4891 -1.2226 -1.6734
12433TIP3   OH258789   0.360   6.617  16.175  0.5718 -0.3513 -0.3189
12433TIP3    H158790   0.400   6.682  16.117  2.0590 -2.3479 -1.6530
12433TIP3    H258791   0.267   6.620  16.153  0.8165  0.3664 -1.3455
12434TIP3   OH258792   0.536   4.722  14.863 -0.2046  0.1436 -0.2380
12434TIP3    H158793   0.569   4.790  14.922 -0.2310 -0.3753  0.3872
12434TIP3    H258794   0.615   4.686  14.822 -0.0320 -0.6047  0.7163
12435TIP3   OH258795   5.613   2.098   4.927 -0.4393 -0.4113  0.2764
12435TIP3    H158796   5.604   2.032   4.858 -1.2204 -0.2789  0.2407
12435TIP3    H258797   5.544   2.161   4.908 -0.2365 -0.0304  0.8021
12436TIP3   OH258798   1.047   3.238   1.538 -0.7128 -0.2921 -0.2256
12436TIP3    H158799   1.088   3.298   1.476 -0.8862 -0.3322 -0.3807
12436TIP3    H258800   0.973   3.288   1.574 -0.9124 -0.4419 -0.4231
12437TIP3   OH258801   4.918   6.526  13.037  0.1538 -0.5810 -0.5441
12437TIP3    H158802   5.009   6.544  13.014 -0.0090  0.0204 -0.7514
12437TIP3    H258803   4.873   6.519  12.952 -0.1171 -0.1737 -0.4376
12438TIP3   OH258804   3.862   1.528   5.138 -0.4292  0.2509 -0.3264
12438TIP3    H158805   3.792   1.542   5.202 -0.5791 -1.3284 -0.1007
12438TIP3    H258806   3.818   1.517   5.055 -0.4024  0.0342 -0.3136
12439TIP3   OH258807   2.728   6.260   3.565 -0.0175  0.2751 -0.7759
12439TIP3    H158808   2.784   6.213   3.627  0.0672 -1.7697 -2.3237
12439TIP3    H258809   2.639   6.249   3.599  0.2331  1.5330  0.4087
12440TIP3   OH258810   1.061   1.700  11.736  0.2444  0.1509  0.6396
12440TIP3    H158811   1.142   1.747  11.721 -0.3807  0.5090 -2.0207
12440TIP3    H258812   1.086   1.607  11.732  0.5921  0.2569  0.3488
12441TIP3   OH258813   4.227   2.247   1.078 -0.3446  0.1716 -0.1695
12441TIP3    H158814   4.187   2.334   1.082  0.7723  0.7539 -1.1098
12441TIP3    H258815   4.213   2.217   0.988  1.7972  0.6620 -0.7258
12442TIP3   OH258816   3.689   1.034   2.047  0.9789  0.3299 -0.0275
12442TIP3    H158817   3.641   1.000   2.122 -0.2503  2.3221  0.1495
12442TIP3    H258818   3.772   0.986   2.048  0.4576 -0.6221  1.8107
12443TIP3   OH258819   1.545   6.206  14.682 -0.3039 -0.2167 -0.5006
12443TIP3    H158820   1.495   6.205  14.763  0.6369 -0.7332  0.0963
12443TIP3    H258821   1.635   6.223  14.710  0.5123 -3.0898 -1.1078
12444TIP3   OH258822   0.275   6.512   0.317 -0.2846 -0.3387 -0.8765
12444TIP3    H158823   0.201   6.502   0.257 -2.7630 -0.0833  1.8970
12444TIP3    H258824   0.274   6.604   0.342  1.1551 -0.2798 -0.9348
12445TIP3   OH258825   1.143   6.656  13.414  0.2084 -0.5854  0.2539
12445TIP3    H158826   1.155   6.748  13.393  0.1552 -0.8231 -0.8590
12445TIP3    H258827   1.210   6.637  13.480  1.1348 -0.1031 -0.5321
12446TIP3   OH258828   4.098   1.308  17.019  0.0414  0.2772  0.2423
12446TIP3    H158829   4.057   1.230  17.056 -0.4270  0.6011  0.4080
12446TIP3    H258830   4.058   1.381  17.067 -0.2869  0.6772 -0.6311
12447TIP3   OH258831   6.551   2.034   1.999  0.1078  0.4488  0.7324
12447TIP3    H158832   6.479   2.097   1.999 -0.8932 -0.6306 -0.1460
12447TIP3    H258833   6.571   2.020   2.092 -1.7891 -0.2336  1.1004
12448TIP3   OH258834   0.663   5.917  14.160  0.1307  0.1478  0.7622
12448TIP3    H158835   0.636   5.870  14.239 -3.6319  0.9983  0.1723
12448TIP3    H258836   0.604   5.992  14.154  0.7369  0.5508 -2.4489
12449TIP3   OH258837   4.607   0.921  15.386  0.5157 -0.4631  0.8773
12449TIP3    H158838   4.654   0.873  15.455 -1.9323 -2.6846  1.1596
12449TIP3    H258839   4.540   0.971  15.433 -1.9151 -2.8533  0.2465
12450TIP3   OH258840   3.215   3.703   1.071 -0.0512 -0.2005  0.3277
12450TIP3    H158841   3.210   3.780   1.128  0.6769 -1.0074  1.5461
12450TIP3    H258842   3.258   3.637   1.125  1.0799 -0.8787 -1.3286
12451TIP3   OH258843   3.853   2.850   2.860 -0.0220  0.0167  0.0396
12451TIP3    H158844   3.803   2.923   2.823  1.4722  0.1549 -1.8980
12451TIP3    H258845   3.937   2.889   2.884  0.7139 -0.9847 -0.8271
12452TIP3   OH258846   5.386   1.392   6.205  0.6383 -0.4162 -0.7476
12452TIP3    H158847   5.415   1.438   6.284 -0.2401 -1.3530  0.1554
12452TIP3    H258848   5.342   1.459   6.153 -0.0845 -0.0943  0.2615
12453TIP3   OH258849   4.548   4.632  11.543 -0.0684  0.1738  0.1130
12453TIP3    H158850   4.610   4.634  11.616 -0.4929 -1.0632  0.5393
12453TIP3    H258851   4.491   4.707  11.558  1.2151  1.2441 -0.2060
12454TIP3   OH258852   6.118   6.685   5.584 -0.0730  0.6619 -1.0351
12454TIP3    H158853   6.173   6.658   5.657 -0.3886  1.7399 -0.3740
12454TIP3    H258854   6.179   6.705   5.513  0.3872  1.6241 -0.3844
12455TIP3   OH258855   5.846   0.130   2.187 -0.0818 -0.1562 -0.1253
12455TIP3    H158856   5.894   0.206   2.152 -1.5548  1.6484  1.5381
12455TIP3    H258857   5.905   0.093   2.252  0.4275 -0.0885 -0.5397
12456TIP3   OH258858   5.283   1.211   5.992  0.0738  0.0317 -0.3329
12456TIP3    H158859   5.321   1.268   5.924  0.9877  0.8853  0.8474
12456TIP3    H258860   5.305   1.255   6.074 -0.8019 -1.1088  0.5285
12457TIP3   OH258861   3.209   6.783  13.005  0.0006 -0.1283  0.4054
12457TIP3    H158862   3.189   6.815  13.093 -2.2929  1.7384 -0.6779
12457TIP3    H258863   3.126   6.750  12.972  0.1884  1.4260 -1.8659
12458TIP3   OH258864   6.419   4.324  12.414  0.0456 -1.1568  0.5336
12458TIP3    H158865   6.499   4.287  12.376  0.3566  1.8761 -2.2222
12458TIP3    H258866   6.378   4.370  12.341 -1.4757  1.7828  3.0380
12459TIP3   OH258867   1.172   2.813  14.616  0.0085 -0.5362  0.3322
12459TIP3    H158868   1.199   2.902  14.640 -0.3669  0.0619 -1.3161
12459TIP3    H258869   1.254   2.765  14.603  0.2745  0.2445 -1.0489
12460TIP3   OH258870   5.250   6.031  16.775  0.2987 -0.0375 -0.0186
12460TIP3    H158871   5.258   5.971  16.701 -0.6459  1.2462 -1.2147
12460TIP3    H258872   5.172   6.001  16.822  0.9532 -0.9112  0.5531
12461TIP3   OH258873   0.847   0.214  10.740 -0.2230 -0.6186 -0.1139
12461TIP3    H158874   0.928   0.192  10.694 -1.1392 -1.4740 -1.3765
12461TIP3    H258875   0.839   0.309  10.729  0.7515 -0.4769  0.2869
12462TIP3   OH258876   3.114   1.948   5.270 -0.4584 -0.1237  0.2182
12462TIP3    H158877   3.209   1.957   5.280 -0.3928 -0.7152  0.1492
12462TIP3    H258878   3.103   1.871   5.215 -1.0026 -0.4989  0.8402
12463TIP3   OH258879   0.713   3.253  15.778  0.9015  0.2798 -0.7960
12463TIP3    H158880   0.724   3.328  15.719 -0.1792  1.9864  1.0661
12463TIP3    H258881   0.627   3.218  15.757  0.2428  1.2824  0.1358
12464TIP3   OH258882   0.773   1.447   1.072  0.4593  0.4616  0.5319
12464TIP3    H158883   0.866   1.467   1.058  0.4349  0.3900  0.2602
12464TIP3    H258884   0.768   1.418   1.163  1.0930 -1.6574 -0.0372
12465TIP3   OH258885   3.186   0.322   3.493 -0.4895 -0.0944  0.5769
12465TIP3    H158886   3.254   0.389   3.481 -1.1286  0.1562 -2.3174
12465TIP3    H258887   3.227   0.256   3.549  2.3404 -0.1661 -1.3793
12466TIP3   OH258888   5.131   6.755   6.066 -0.3816 -0.1785 -0.2989
12466TIP3    H158889   5.205   6.747   6.126  0.4773 -2.0927 -1.5324
12466TIP3    H258890   5.152   6.831   6.012  0.8732 -0.8877 -0.8453
12467TIP3   OH258891   2.347   6.791  13.316 -0.0904 -0.4704 -0.1863
12467TIP3    H158892   2.433   6.778  13.356 -0.0634 -0.4917 -0.2518
12467TIP3    H258893   2.358   6.761  13.226  0.2827  1.0329 -0.6681
12468TIP3   OH258894   2.391   0.610   0.741 -0.0197 -0.5402 -0.1114
12468TIP3    H158895   2.422   0.558   0.815  0.5594 -1.6338 -1.0767
12468TIP3    H258896   2.456   0.595   0.672 -0.1764  1.0061 -0.6213
12469TIP3   OH258897   1.918   6.325  15.718  0.6804  0.2543 -0.4531
12469TIP3    H158898   1.905   6.389  15.648  0.5069 -0.7660 -1.3758
12469TIP3    H258899   1.991   6.359  15.769  0.9904  0.8714 -1.2978
12470TIP3   OH258900   0.629   0.546   2.210  0.0408  0.2193 -0.0701
12470TIP3    H158901   0.671   0.505   2.134 -0.5167 -1.1405  0.3226
12470TIP3    H258902   0.649   0.639   2.202  0.4853  0.0106 -1.5602
12471TIP3   OH258903   5.738   6.314  15.272  0.0361  0.0579  0.0153
12471TIP3    H158904   5.752   6.238  15.328 -0.0230  0.2845  0.3372
12471TIP3    H258905   5.707   6.382  15.331 -0.1074  0.2726 -0.3060
12472TIP3   OH258906   4.677   1.261   1.026  0.4314  0.1448  0.5953
12472TIP3    H158907   4.582   1.261   1.018  0.3382  0.0832  1.5698
12472TIP3    H258908   4.703   1.172   1.001  0.5422  0.9281 -2.4913
12473TIP3   OH258909   5.530   4.657  15.862  0.2882 -0.0413 -0.0452
12473TIP3    H158910   5.460   4.717  15.836  1.2022  1.0770 -0.0022
12473TIP3    H258911   5.489   4.571  15.862 -0.9307  0.5152 -0.6144
12474TIP3   OH258912   3.145   3.263  15.523  0.0592 -0.3909  0.0594
12474TIP3    H158913   3.235   3.295  15.512 -0.1724  0.1311 -0.3455
12474TIP3    H258914   3.117   3.239  15.434 -0.7028  0.8236 -0.0455
12475TIP3   OH258915   0.628   2.038   3.224  0.2781  0.2805 -0.2831
12475TIP3    H158916   0.533   2.043   3.233  0.4306  0.9454  1.4956
12475TIP3    H258917   0.646   1.949   3.195 -0.8837  0.1150 -0.5080
12476TIP3   OH258918   0.678   0.171   6.169  0.3539 -0.4930  0.8753
12476TIP3    H158919   0.663   0.242   6.231  1.8267 -0.4279  1.1941
12476TIP3    H258920   0.757   0.197   6.121 -1.4093  0.0742 -1.9722
12477TIP3   OH258921   2.229   3.630  11.964  0.8161 -0.1447 -0.3922
12477TIP3    H158922   2.323   3.649  11.965  0.8410 -0.2808  0.0185
12477TIP3    H258923   2.206   3.628  11.871  1.5249 -1.5737 -0.5684
12478TIP3   OH258924   4.861   2.868  13.952 -0.4926  0.0413 -0.0448
12478TIP3    H158925   4.882   2.889  13.861  1.0985 -0.8117  0.0996
12478TIP3    H258926   4.849   2.773  13.952 -1.2341  0.1232  0.5176
12479TIP3   OH258927   3.417   3.585   0.780 -0.4594 -0.3099  0.2124
12479TIP3    H158928   3.328   3.555   0.798 -0.8234  1.5835  1.8881
12479TIP3    H258929   3.470   3.544   0.849 -0.4025  0.1806  0.4668
12480TIP3   OH258930   0.849   1.249   1.463  0.0975  0.3004 -0.2909
12480TIP3    H158931   0.813   1.161   1.451  0.8931  0.0671 -1.0662
12480TIP3    H258932   0.843   1.264   1.558  0.4158 -0.7927 -0.0809
12481TIP3   OH258933   1.152   6.647  12.614  0.3132 -0.4267 -0.3083
12481TIP3    H158934   1.104   6.579  12.568 -0.6100  1.2156 -1.9081
12481TIP3    H258935   1.243   6.636  12.586  0.0492 -0.5648 -1.1222
12482TIP3   OH258936   6.642   5.390   1.893  0.1994  0.2486  0.6026
12482TIP3    H158937   6.573   5.339   1.936  1.3932 -0.8432  1.2745
12482TIP3    H258938   6.713   5.328   1.879  0.7882  1.1760 -0.7611
12483TIP3   OH258939   5.202   5.401   2.324  0.2712 -0.0887  0.6092
12483TIP3    H158940   5.209   5.495   2.310 -1.1573 -0.1062 -0.4419
12483TIP3    H258941   5.288   5.375   2.357  1.4527  1.2113 -1.2700
12484TIP3   OH258942   0.785   2.537   4.419  0.2533  0.5805 -0.3202
12484TIP3    H158943   0.742   2.600   4.476 -1.0869 -0.9630  0.4786
12484TIP3    H258944   0.872   2.525   4.456  0.2884  1.4838 -0.1073
12485TIP3   OH258945   0.106   1.096  15.421 -0.0380 -0.2121  0.0238
12485TIP3    H158946   0.043   1.168  15.420  0.3365  0.1221 -0.7250
12485TIP3    H258947   0.173   1.122  15.358  0.0150 -1.2973 -0.3988
12486TIP3   OH258948   2.044   1.163   4.340 -0.2635 -0.2641  0.0285
12486TIP3    H158949   2.110   1.212   4.290  0.0526 -0.3334  0.3775
12486TIP3    H258950   1.974   1.146   4.277 -0.9123  1.6275  0.1735
12487TIP3   OH258951   1.059   1.533   3.952  0.0768 -0.3345  0.0785
12487TIP3    H158952   1.148   1.564   3.970  0.2699 -0.4686 -0.5900
12487TIP3    H258953   1.048   1.456   4.007  1.6574 -2.4088 -2.2513
12488TIP3   OH258954   4.787   2.856  16.543 -0.8623 -0.2883 -0.3398
12488TIP3    H158955   4.861   2.916  16.551  0.0337 -0.8197 -3.4381
12488TIP3    H258956   4.712   2.905  16.579  0.4349  1.3634  0.2481
12489TIP3   OH258957   6.209   3.676  13.046  0.1805  0.1325 -0.7494
12489TIP3    H158958   6.251   3.737  13.106  2.4153 -1.1606 -0.8760
12489TIP3    H258959   6.129   3.649  13.091  1.5800 -0.4869  1.5212
12490TIP3   OH258960   5.725   4.299  15.724  0.6827  0.0001 -0.7254
12490TIP3    H158961   5.719   4.207  15.699 -4.0173  0.0383 -0.7436
12490TIP3    H258962   5.749   4.297  15.817  0.2244 -1.2990 -0.6104
12491TIP3   OH258963   0.080   6.081  13.513 -0.2248  0.1890 -1.0529
12491TIP3    H158964   0.154   6.110  13.460 -0.3890 -2.6124 -3.0572
12491TIP3    H258965   0.120   6.040  13.589  0.6039 -3.3080 -3.1625
12492TIP3   OH258966   4.084   2.404   0.387  0.0580 -0.1944  0.4037
12492TIP3    H158967   4.148   2.449   0.332 -1.0406  0.6875 -0.1910
12492TIP3    H258968   4.137   2.357   0.452  1.4552 -1.8924 -1.7855
12493TIP3   OH258969   3.764   1.207   4.818 -0.0923  0.5057  0.5550
12493TIP3    H158970   3.837   1.243   4.870  0.0891 -0.4741  0.9985
12493TIP3    H258971   3.690   1.207   4.878 -0.0629  0.0428  0.5933
12494TIP3   OH258972   4.096   5.425  14.136 -0.2594  0.3614  0.6290
12494TIP3    H158973   4.086   5.419  14.231  0.4810 -1.9183  0.6119
12494TIP3    H258974   4.187   5.455  14.124  0.4708 -1.7084  0.6723
12495TIP3   OH258975   4.809   4.696  14.902 -0.0886 -0.8622 -0.0255
12495TIP3    H158976   4.859   4.626  14.942 -0.7268 -0.7851  0.9438
12495TIP3    H258977   4.851   4.710  14.817  0.1754 -2.2623 -0.1502
12496TIP3   OH258978   5.333   3.060  14.148  0.3742  0.7789  0.2440
12496TIP3    H158979   5.268   3.054  14.077  0.5290  2.7287 -0.1090
12496TIP3    H258980   5.316   3.145  14.189  2.7561  1.3935  0.0836
12497TIP3   OH258981   1.430   4.409   5.721 -0.1495  0.0243  0.9560
12497TIP3    H158982   1.516   4.406   5.679 -0.7271 -0.8208 -0.2069
12497TIP3    H258983   1.380   4.338   5.681 -1.6005  0.8700  1.1681
12498TIP3   OH258984   1.627   5.834  15.686  0.3925  0.3578 -0.4026
12498TIP3    H158985   1.568   5.801  15.619  0.8090  1.7531 -1.5039
12498TIP3    H258986   1.569   5.868  15.754 -0.0977  1.3254 -1.2786
12499TIP3   OH258987   5.168   4.405  11.692  0.6244  0.1073  0.2069
12499TIP3    H158988   5.261   4.383  11.693  0.3448 -1.1236  0.2160
12499TIP3    H258989   5.136   4.370  11.610  0.3853  1.5728 -0.3640
12500TIP3   OH258990   1.111   2.551  15.554 -0.3263 -0.6249  0.0996
12500TIP3    H158991   1.042   2.604  15.513 -0.7878  0.4478  2.1574
12500TIP3    H258992   1.073   2.463  15.558  0.8508 -1.6312 -4.3376
12501TIP3   OH258993   2.520   4.460  13.843 -0.0320  0.1260  0.1953
12501TIP3    H158994   2.593   4.522  13.847  0.3593 -0.1556 -1.5689
12501TIP3    H258995   2.464   4.492  13.772 -0.4167 -0.8919  0.0111
12502TIP3   OH258996   4.110   1.261   1.574  0.1609 -0.9939 -0.7793
12502TIP3    H158997   4.187   1.223   1.618  0.5151 -1.0321 -1.4142
12502TIP3    H258998   4.121   1.236   1.482  2.0828  3.2022 -1.9295
12503TIP3   OH258999   1.586   0.449  13.903  0.5704 -0.4359 -0.1437
12503TIP3    H159000   1.650   0.432  13.973  1.8876  1.2851 -0.8506
12503TIP3    H259001   1.582   0.367  13.854  0.6410 -1.2404  1.1511
12504TIP3   OH259002   4.901   1.803  13.981  0.5127  0.1814 -0.0304
12504TIP3    H159003   4.971   1.827  13.920 -0.1649  0.7119 -0.6282
12504TIP3    H259004   4.821   1.827  13.935 -0.0930 -0.9744  0.4004
12505TIP3   OH259005   5.357   5.270   5.528 -0.0005 -0.1177 -0.2585
12505TIP3    H159006   5.299   5.337   5.490 -0.6702 -0.6658 -0.2350
12505TIP3    H259007   5.340   5.192   5.476  1.5785 -0.0127 -0.9922
12506TIP3   OH259008   2.928   2.037  13.694  0.3638  0.0682  0.2188
12506TIP3    H159009   2.845   2.047  13.647  0.2852 -1.5699 -0.0501
12506TIP3    H259010   2.977   2.117  13.673 -0.8247  0.6981 -0.2651
12507TIP3   OH259011   1.832   3.462   4.322  0.2396 -0.3280  0.0432
12507TIP3    H159012   1.843   3.475   4.417 -0.3196  2.0357 -0.1576
12507TIP3    H259013   1.784   3.380   4.315  0.5422 -0.7164  1.7806
12508TIP3   OH259014   4.243   2.018   2.155  0.2915  0.0431 -0.3568
12508TIP3    H159015   4.280   2.022   2.243  0.5162 -1.5767 -0.3516
12508TIP3    H259016   4.186   1.941   2.155 -0.5125  0.6047 -1.3370
12509TIP3   OH259017   0.432   1.247  14.466  0.2081  0.2454  0.3800
12509TIP3    H159018   0.508   1.209  14.420  1.0274  0.4934  1.4909
12509TIP3    H259019   0.375   1.172  14.484  0.8912 -0.1808  0.8256
12510TIP3   OH259020   6.795   1.994  14.107  0.1550 -0.2091  0.1796
12510TIP3    H159021   6.726   1.941  14.146  1.4123 -1.7240  0.4254
12510TIP3    H259022   6.774   2.084  14.133 -0.6020 -0.8628  1.9453
12511TIP3   OH259023   1.701   1.945  15.247  0.6751  0.2897  0.6089
12511TIP3    H159024   1.659   2.027  15.274 -1.4960 -0.3095 -0.6715
12511TIP3    H259025   1.792   1.968  15.230 -0.3223  2.9796 -1.8035
12512TIP3   OH259026   4.116   1.596   3.345 -0.1957  0.5929  0.2733
12512TIP3    H159027   4.185   1.659   3.369 -0.3583  0.6211  0.6826
12512TIP3    H259028   4.040   1.651   3.324  0.3432  0.6315 -1.6956
12513TIP3   OH259029   0.230   3.342   5.035  0.2410  0.2593 -0.4049
12513TIP3    H159030   0.259   3.423   4.994 -1.3911  0.7527 -0.6462
12513TIP3    H259031   0.248   3.354   5.128  1.2656  0.3116 -0.5941
12514TIP3   OH259032   0.517   1.791  13.096  0.7848  0.5329 -0.4761
12514TIP3    H159033   0.439   1.811  13.045  1.8563  1.5877 -1.7709
12514TIP3    H259034   0.558   1.876  13.112  1.7238 -0.0046  0.1008
12515TIP3   OH259035   2.502   1.767  16.780 -0.2606 -0.6101  0.3964
12515TIP3    H159036   2.549   1.771  16.697 -1.1200 -0.2196 -0.0806
12515TIP3    H259037   2.509   1.675  16.807 -0.7408 -0.9469 -0.5599
12516TIP3   OH259038   6.715   5.293   5.913  0.2236 -0.1153  0.2501
12516TIP3    H159039   6.676   5.212   5.946  1.4658 -0.4614  0.9374
12516TIP3    H259040   6.718   5.351   5.989 -0.2789  0.4353 -0.1420
12517TIP3   OH259041   3.821   2.409  15.866 -0.1447  0.3092 -0.3179
12517TIP3    H159042   3.847   2.478  15.927 -1.1450 -0.0372  0.5301
12517TIP3    H259043   3.869   2.429  15.785 -2.5336  3.6786 -1.0858
12518TIP3   OH259044   0.619   6.389  12.074 -0.4540  0.2447 -0.2397
12518TIP3    H159045   0.637   6.408  11.982 -0.4203  0.2200 -0.2383
12518TIP3    H259046   0.574   6.466  12.107 -1.0086  0.0108 -0.4375
12519TIP3   OH259047   5.136   2.507  10.968  0.0026 -0.0629  0.1556
12519TIP3    H159048   5.202   2.569  10.939  0.4169  0.0844  1.3783
12519TIP3    H259049   5.148   2.431  10.910  0.9219  0.1483  0.0540
12520TIP3   OH259050   2.952   3.999  16.794 -0.6891  0.2553  0.0727
12520TIP3    H159051   2.985   4.032  16.711  0.3352 -0.8305  0.0348
12520TIP3    H259052   2.935   3.906  16.779 -0.3295  0.0044  1.1090
12521TIP3   OH259053   4.723   2.176  16.148 -0.1873 -0.1711 -0.8425
12521TIP3    H159054   4.717   2.082  16.131 -2.4123 -0.1762 -0.3747
12521TIP3    H259055   4.798   2.186  16.206 -0.7787 -1.8769  0.2955
12522TIP3   OH259056   3.201   4.544   3.735 -0.4043  0.1716 -0.1152
12522TIP3    H159057   3.246   4.609   3.790  0.0079  0.7165 -1.0696
12522TIP3    H259058   3.227   4.459   3.772 -1.7273  0.5218  1.7494
12523TIP3   OH259059   6.052   4.471   3.308 -0.4703  0.5116  0.6622
12523TIP3    H159060   6.042   4.513   3.223  0.9792  1.3511  0.8631
12523TIP3    H259061   5.963   4.452   3.337 -1.0014  0.4722 -0.9044
12524TIP3   OH259062   0.573   0.145   2.127  0.0363  0.1030  0.1362
12524TIP3    H159063   0.534   0.176   2.045 -0.2778 -2.0770 -0.6032
12524TIP3    H259064   0.562   0.050   2.125 -0.1079 -0.0234  2.7987
12525TIP3   OH259065   4.043   1.157   0.365  0.2829  0.2060  0.4928
12525TIP3    H159066   4.101   1.087   0.394  0.3210  0.6389  1.4822
12525TIP3    H259067   3.977   1.113   0.311 -1.0165 -0.9676  2.9146
12526TIP3   OH259068   5.711   1.091   5.244 -0.3179  0.4557  0.2002
12526TIP3    H159069   5.636   1.149   5.255 -0.9376 -0.4477  0.8961
12526TIP3    H259070   5.694   1.018   5.304 -0.7075 -1.6078 -2.2361
12527TIP3   OH259071   0.478   0.450   4.218  0.0919 -0.0045  0.3886
12527TIP3    H159072   0.482   0.546   4.212  0.4184  0.0412  1.2112
12527TIP3    H259073   0.404   0.433   4.276 -0.6457 -0.2979 -0.6131
12528TIP3   OH259074   5.083   0.632   3.100  0.1561 -0.2191 -0.5591
12528TIP3    H159075   5.108   0.668   3.184 -2.2877 -0.2356  0.2617
12528TIP3    H259076   5.082   0.707   3.040 -1.3819  0.4763  0.2794
12529TIP3   OH259077   6.295   5.177  16.576 -0.3107  0.0065  0.0159
12529TIP3    H159078   6.313   5.206  16.665  0.6331 -0.7246  0.0812
12529TIP3    H259079   6.201   5.160  16.574 -0.1441 -1.2980  1.2827
12530TIP3   OH259080   3.464   2.962  16.499  0.2173 -0.3068  0.1327
12530TIP3    H159081   3.495   2.938  16.412 -0.5438 -0.8745  0.0131
12530TIP3    H259082   3.383   3.011  16.484 -0.8107 -1.8032  0.5560
12531TIP3   OH259083   1.431   3.666  16.893 -0.2009  0.3680 -0.4716
12531TIP3    H159084   1.443   3.596  16.957  2.1594  0.8141 -0.3541
12531TIP3    H259085   1.409   3.620  16.811  1.5804 -0.5879 -0.4654
12532TIP3   OH259086   6.331   5.613   1.647 -0.3631  0.7162 -0.5622
12532TIP3    H159087   6.301   5.699   1.617 -1.0080  0.3608 -0.9577
12532TIP3    H259088   6.379   5.631   1.728 -0.2866  1.4707 -0.7662
12533TIP3   OH259089   3.162   3.090   3.041 -0.0630 -0.2226 -0.3019
12533TIP3    H159090   3.117   3.110   2.959 -0.1394  3.3102  0.4475
12533TIP3    H259091   3.097   3.042   3.093 -2.1427  2.3631 -0.2868
12534TIP3   OH259092   2.304   2.544  11.693  0.3150  0.3588 -0.0044
12534TIP3    H159093   2.214   2.569  11.672  0.5993  0.1247 -1.6375
12534TIP3    H259094   2.315   2.458  11.653  1.8831  1.2718 -1.7025
12535TIP3   OH259095   6.219   5.031   3.331  0.0102 -0.2384  0.6328
12535TIP3    H159096   6.295   5.036   3.273 -0.3934  1.2731  0.1731
12535TIP3    H259097   6.195   5.123   3.347 -3.3802 -0.5710 -1.5138
12536TIP3   OH259098   4.671   1.398  15.220 -0.2659 -0.2591  0.0888
12536TIP3    H159099   4.733   1.336  15.256 -0.2529  0.3330  1.1019
12536TIP3    H259100   4.657   1.462  15.289 -1.2563  0.1611 -0.4776
12537TIP3   OH259101   2.735   2.651   4.802  0.4801 -0.9200 -0.7577
12537TIP3    H159102   2.667   2.719   4.796  0.4322 -1.0097 -1.3561
12537TIP3    H259103   2.713   2.602   4.881 -0.9864 -1.8084 -1.6638
12538TIP3   OH259104   5.170   2.820  13.618 -0.3043 -0.2258  0.0786
12538TIP3    H159105   5.129   2.783  13.696 -1.1727  0.8936  0.1770
12538TIP3    H259106   5.180   2.746  13.558  1.4025 -1.3507  1.6424
12539TIP3   OH259107   0.937   5.441   6.876  0.2708  0.4353 -0.4107
12539TIP3    H159108   0.975   5.366   6.922  1.2820  2.0110  1.5465
12539TIP3    H259109   1.008   5.474   6.821 -0.2916 -0.2514 -1.5608
12540TIP3   OH259110   1.647   2.015   1.996  0.3608  0.0233  0.7318
12540TIP3    H159111   1.673   1.932   2.035 -0.9514 -0.2448  1.1010
12540TIP3    H259112   1.604   2.063   2.067  1.1031  1.0239  0.5249
12541TIP3   OH259113   1.614   1.491  15.109  0.0925 -0.3937  0.2281
12541TIP3    H159114   1.587   1.470  15.198  1.0010  1.5805  1.0256
12541TIP3    H259115   1.619   1.406  15.065 -0.1353 -1.4432  2.1236
12542TIP3   OH259116   0.019   1.999  12.001 -0.4201  0.3157  0.3849
12542TIP3    H159117  -0.037   2.039  12.067  1.7007  1.9515  1.3118
12542TIP3    H259118   0.066   1.930  12.047 -0.4423  0.0800  0.0546
12543TIP3   OH259119   1.305   4.705   0.994  0.4699  0.4643  0.0047
12543TIP3    H159120   1.267   4.638   1.049  3.5395 -2.1907 -0.7838
12543TIP3    H259121   1.231   4.759   0.966 -2.3969 -3.1176 -0.0689
12544TIP3   OH259122   6.530   3.278   1.010  0.0065 -0.4350 -0.0836
12544TIP3    H159123   6.543   3.346   1.076  0.2556  0.9570 -1.5277
12544TIP3    H259124   6.516   3.325   0.928 -0.9334 -2.1111 -0.9456
12545TIP3   OH259125   5.159   3.654  13.755  0.2217 -0.3120 -0.1828
12545TIP3    H159126   5.145   3.560  13.765 -0.4239 -0.1777  0.2717
12545TIP3    H259127   5.100   3.680  13.684  0.0146 -0.1665  0.0399
12546TIP3   OH259128   1.551   4.386   4.920 -1.0139  0.0195 -0.1937
12546TIP3    H159129   1.466   4.342   4.909 -1.2895  0.1290  1.3187
12546TIP3    H259130   1.607   4.319   4.959 -0.0081 -0.4354 -2.2858
12547TIP3   OH259131   1.720   4.063  13.340  0.2915 -0.2994  0.0797
12547TIP3    H159132   1.743   4.006  13.413  2.7029 -0.0863 -0.4529
12547TIP3    H259133   1.670   4.134  13.381  1.0608 -0.4991  1.4355
12548TIP3   OH259134   5.837   3.127   0.736  0.2742  0.2319  0.0494
12548TIP3    H159135   5.809   3.044   0.696 -0.0039  0.5273 -0.3820
12548TIP3    H259136   5.755   3.175   0.751  0.2993 -0.2242  1.7965
12549TIP3   OH259137   4.101   3.553   2.646 -0.2230  0.1593 -0.3782
12549TIP3    H159138   4.039   3.623   2.663 -1.8986 -1.4965  0.6942
12549TIP3    H259139   4.176   3.574   2.703 -1.5159  0.0983  1.4395
12550TIP3   OH259140   6.768   3.758   2.151  0.4692  0.7864  0.0975
12550TIP3    H159141   6.780   3.842   2.107 -1.0255  3.0887  3.6432
12550TIP3    H259142   6.675   3.739   2.143  0.6934 -0.3251 -0.1851
12551TIP3   OH259143   5.574   4.197   0.934 -0.0225  0.2895 -0.3032
12551TIP3    H159144   5.508   4.243   0.881  0.2112  1.4709  0.3906
12551TIP3    H259145   5.630   4.267   0.968 -0.0580 -0.4540  1.3507
12552TIP3   OH259146   2.077   2.465   2.238  0.8733  0.0383 -0.4489
12552TIP3    H159147   2.014   2.462   2.310  0.8767  0.1948 -0.4380
12552TIP3    H259148   2.060   2.549   2.195  0.1147 -0.5502 -1.3213
12553TIP3   OH259149   4.895   1.698  15.333  0.1565 -0.2043 -0.3364
12553TIP3    H159150   4.844   1.660  15.261 -0.7999  0.5057 -0.0614
12553TIP3    H259151   4.829   1.729  15.395  0.8798  1.6046 -0.4101
12554TIP3   OH259152   4.088   3.607   6.083 -0.3653  0.7386  0.3595
12554TIP3    H159153   4.038   3.527   6.100 -0.3465  0.8649  1.0119
12554TIP3    H259154   4.180   3.579   6.087 -0.3608  0.3670 -1.4989
12555TIP3   OH259155   2.114   3.528   2.907  0.0369  0.1585 -0.8016
12555TIP3    H159156   2.200   3.528   2.866 -0.0872 -0.7065 -1.0881
12555TIP3    H259157   2.060   3.474   2.849 -0.1725 -0.9853  0.4077
12556TIP3   OH259158   1.508   0.050  16.147  0.2860  0.2687 -0.0109
12556TIP3    H159159   1.529   0.017  16.060  1.2331 -1.4032  0.8048
12556TIP3    H259160   1.423   0.011  16.168 -0.7883  2.0342 -0.8065
12557TIP3   OH259161   1.997   1.681   0.199 -0.2550 -0.3709  0.1239
12557TIP3    H159162   1.996   1.586   0.188 -0.2208 -0.4486  0.7658
12557TIP3    H259163   2.086   1.707   0.174  0.6627 -0.8606  2.6099
12558TIP3   OH259164   6.393   1.041   4.359  0.6962  0.1304 -0.2904
12558TIP3    H159165   6.299   1.033   4.342  0.6744 -0.8848  0.2205
12558TIP3    H259166   6.431   0.964   4.317  1.6246  1.7185 -2.5418
12559TIP3   OH259167   0.517   2.601  15.920  0.6268  0.1328 -0.2162
12559TIP3    H159168   0.593   2.576  15.973  0.2213  2.2685  1.4923
12559TIP3    H259169   0.548   2.672  15.865  0.0506  0.5414 -0.0237
12560TIP3   OH259170   3.167   0.734  15.716  0.1955 -0.5132  0.1210
12560TIP3    H159171   3.236   0.672  15.694  0.9656  0.7108 -1.0947
12560TIP3    H259172   3.158   0.789  15.638 -0.3416  1.0046  1.1990
12561TIP3   OH259173   3.561   2.584   0.148 -0.3256  0.4575 -0.5885
12561TIP3    H159174   3.487   2.645   0.145 -0.9214 -0.2692 -0.9481
12561TIP3    H259175   3.637   2.640   0.165 -0.9718  1.1964 -0.0141
12562TIP3   OH259176   2.660   2.512  16.128 -0.1222 -0.2099  0.2071
12562TIP3    H159177   2.739   2.561  16.146 -0.1106  0.4361 -1.4548
12562TIP3    H259178   2.671   2.479  16.039 -2.1087  0.7156 -0.4377
12563TIP3   OH259179   2.509   2.467  14.904  0.3797  0.2581 -0.1730
12563TIP3    H159180   2.473   2.529  14.841 -0.1272 -0.4762 -0.6261
12563TIP3    H259181   2.433   2.442  14.958  0.3145 -0.8636 -0.7640
12564TIP3   OH259182   5.495   6.412  16.821 -1.0351 -0.0036 -0.0495
12564TIP3    H159183   5.496   6.346  16.752 -0.0367  1.4367 -1.4932
12564TIP3    H259184   5.442   6.483  16.785 -0.6373  0.6992  0.7286
12565TIP3   OH259185   2.745   2.135  15.668 -0.6037 -0.2405 -0.1315
12565TIP3    H159186   2.810   2.192  15.710 -0.2048  0.5551 -1.7134
12565TIP3    H259187   2.748   2.161  15.576 -1.1141 -2.2019 -0.7345
12566TIP3   OH259188   2.621   3.456   0.710 -0.1746  0.2829 -0.4055
12566TIP3    H159189   2.660   3.369   0.718 -0.7326  0.0760  0.1729
12566TIP3    H259190   2.640   3.498   0.794 -0.6674  0.3986 -0.3523
12567TIP3   OH259191   5.265   2.950  14.427  0.0593  0.1092 -0.1388
12567TIP3    H159192   5.297   2.980  14.342  1.0869 -0.9516 -0.1436
12567TIP3    H259193   5.268   2.855  14.422 -0.2081  0.0278  0.9699
12568TIP3   OH259194   0.936   3.470   4.184 -0.3557  0.2847 -0.3571
12568TIP3    H159195   1.024   3.472   4.148  0.5133 -0.3053  1.6042
12568TIP3    H259196   0.900   3.385   4.155  0.6706 -0.5995  0.8530
12569TIP3   OH259197   5.023   2.797  10.680 -0.1407  0.2897  0.6774
12569TIP3    H159198   4.991   2.814  10.769 -1.6538 -0.4820  0.3008
12569TIP3    H259199   4.952   2.751  10.637  0.5640  0.6805 -0.9664
12570TIP3   OH259200   1.416   0.871  12.179 -0.0166  0.2373  0.2239
12570TIP3    H159201   1.396   0.949  12.128 -1.2129  0.2695  0.7226
12570TIP3    H259202   1.371   0.800  12.134 -0.0437  0.0540  0.5326
12571TIP3   OH259203   1.672   4.404  14.984  0.5198  0.2864 -0.5901
12571TIP3    H159204   1.746   4.461  14.963 -0.0902  1.1436 -0.4512
12571TIP3    H259205   1.613   4.459  15.036  0.8320 -1.0414  1.2879
12572TIP3   OH259206   2.393   6.740   5.295 -0.5032 -0.0120  0.4701
12572TIP3    H159207   2.415   6.797   5.369 -0.9565  2.0475 -0.8987
12572TIP3    H259208   2.465   6.677   5.292  1.4059  2.0499  0.5503
12573TIP3   OH259209   5.864   3.931  14.125  0.3692 -0.0236  1.1195
12573TIP3    H159210   5.895   4.021  14.139 -1.4919  0.6159  1.2903
12573TIP3    H259211   5.770   3.939  14.113  0.4163 -1.7266 -1.1244
12574TIP3   OH259212   2.687   5.267   1.698  0.0879  0.2995  0.5005
12574TIP3    H159213   2.693   5.211   1.621 -1.7801 -0.1623  0.6370
12574TIP3    H259214   2.660   5.208   1.769  1.0016  0.8564  1.3422
12575TIP3   OH259215   6.782   6.024   2.750 -0.0596 -0.2165  0.4305
12575TIP3    H159216   6.857   6.066   2.792  1.0945 -0.4570 -1.3035
12575TIP3    H259217   6.710   6.086   2.765  1.0658  1.2771 -0.0688
12576TIP3   OH259218   2.451   2.140  12.598  0.1413  0.1192  0.5684
12576TIP3    H159219   2.522   2.137  12.534 -0.9726  0.4452 -0.7317
12576TIP3    H259220   2.453   2.055  12.640  0.6687 -0.2437 -0.1685
12577TIP3   OH259221   3.346   2.929  11.657 -0.1161  0.4782  0.0186
12577TIP3    H159222   3.334   2.937  11.563  1.1821 -2.6652 -0.5291
12577TIP3    H259223   3.429   2.974  11.674  0.4544 -0.3108 -0.6325
12578TIP3   OH259224   4.766   3.483   1.418 -0.6227  0.1227  0.2598
12578TIP3    H159225   4.848   3.532   1.418 -0.1652 -0.5842 -1.1470
12578TIP3    H259226   4.737   3.483   1.327 -0.7487 -1.9245  0.2470
12579TIP3   OH259227   0.486   3.957  11.333 -0.1109  0.0003 -0.1031
12579TIP3    H159228   0.455   3.971  11.243  0.6578  0.3800 -0.3226
12579TIP3    H259229   0.579   3.936  11.323 -0.1087 -0.3334  0.5814
12580TIP3   OH259230   4.922   2.256  13.301  0.1999  0.6466 -0.1946
12580TIP3    H159231   5.009   2.281  13.268  0.8761 -0.9775  0.2323
12580TIP3    H259232   4.862   2.314  13.255  1.3950  0.8045 -1.6628
12581TIP3   OH259233   2.938   2.384  15.120 -0.0979 -0.7089 -0.1947
12581TIP3    H159234   2.990   2.454  15.081 -0.6127 -0.1849  0.0440
12581TIP3    H259235   2.868   2.369  15.056 -0.2317 -0.7094 -0.0479
12582TIP3   OH259236   0.247   3.957  13.193 -0.2528 -0.5362  0.0701
12582TIP3    H159237   0.172   3.911  13.156 -1.2885  1.9899 -1.2100
12582TIP3    H259238   0.281   3.898  13.261 -2.5263 -2.3425 -0.2517
12583TIP3   OH259239   5.253   2.447  13.834  0.0993 -0.7860 -0.1576
12583TIP3    H159240   5.291   2.425  13.920 -1.0840  1.1446  0.9410
12583TIP3    H259241   5.328   2.448  13.775  1.0184 -1.7355  0.9206
12584TIP3   OH259242   2.655   3.274   4.521 -0.6043 -0.2376 -0.2368
12584TIP3    H159243   2.639   3.217   4.446  1.5087 -1.3500  0.0746
12584TIP3    H259244   2.662   3.362   4.484 -0.2174 -0.6873 -1.2529
12585TIP3   OH259245   1.238   5.477   1.337 -0.6981 -0.7589  0.3561
12585TIP3    H159246   1.186   5.399   1.355 -1.7613  0.4789  3.3163
12585TIP3    H259247   1.229   5.492   1.243 -3.4096 -2.1692  0.3168
12586TIP3   OH259248   0.056   2.251  12.826 -0.2558  0.2345 -0.6114
12586TIP3    H159249  -0.006   2.287  12.764 -1.0542 -1.1185 -0.6489
12586TIP3    H259250   0.113   2.194  12.773 -0.7197 -0.6501 -0.1921
12587TIP3   OH259251   5.100   4.300  11.438  0.7615 -0.4784 -0.1466
12587TIP3    H159252   5.124   4.232  11.375  1.1099 -0.1380 -0.3834
12587TIP3    H259253   5.035   4.353  11.391 -0.2172 -1.1877  0.3660
12588TIP3   OH259254   4.453   6.704   4.240 -0.4021  0.5230  0.2122
12588TIP3    H159255   4.529   6.660   4.276 -0.8725 -0.9850 -0.5473
12588TIP3    H259256   4.390   6.708   4.312  0.1302  1.1475  0.6448
12589TIP3   OH259257   5.305   4.292  15.431  0.5491 -0.1970 -0.3887
12589TIP3    H159258   5.263   4.222  15.382 -1.2012 -1.0440  2.1390
12589TIP3    H259259   5.387   4.254  15.463  0.2575 -0.6276 -0.1606
12590TIP3   OH259260   1.580   6.597   2.926 -0.1491 -0.3530 -0.1717
12590TIP3    H159261   1.532   6.535   2.979 -1.2320 -0.7175 -1.5266
12590TIP3    H259262   1.662   6.552   2.905  0.4569 -0.0550  1.4532
12591TIP3   OH259263   3.335   5.599  17.255  0.3899 -0.0661 -0.1518
12591TIP3    H159264   3.349   5.667  17.322 -0.1319  0.9636 -1.0576
12591TIP3    H259265   3.381   5.523  17.289  1.3982  0.8743  0.6801
12592TIP3   OH259266   0.751   4.843   2.056  0.3483  0.7915 -0.2232
12592TIP3    H159267   0.676   4.788   2.035  1.0895 -0.0434 -0.7537
12592TIP3    H259268   0.802   4.792   2.119 -0.2829  1.9939  1.3457
12593TIP3   OH259269   0.979   6.139   5.323 -0.0526  0.5728  0.2738
12593TIP3    H159270   0.922   6.077   5.277  0.9735  1.3345 -2.2116
12593TIP3    H259271   1.056   6.087   5.347  0.5510  0.6876 -1.2841
12594TIP3   OH259272   3.442   3.855   5.725 -0.4991 -0.3600  0.0718
12594TIP3    H159273   3.500   3.865   5.650 -1.2871  0.3358 -0.4690
12594TIP3    H259274   3.498   3.820   5.795  0.6617  0.6950 -0.2966
12595TIP3   OH259275   2.276   2.268  12.404  0.2767  0.1622  0.1847
12595TIP3    H159276   2.210   2.315  12.456 -1.7274 -2.0363 -0.2402
12595TIP3    H259277   2.305   2.198  12.461  1.5513  0.5127 -0.0152
12596TIP3   OH259278   6.454   4.843  13.652  0.0058  0.0089  0.3337
12596TIP3    H159279   6.515   4.778  13.687 -1.0959 -1.6601 -0.7398
12596TIP3    H259280   6.507   4.922  13.643  1.4326 -0.7556  1.5128
12597TIP3   OH259281   4.622   0.749   1.568  0.5411  0.1232  0.1724
12597TIP3    H159282   4.656   0.682   1.509 -0.2514  1.2459 -1.6199
12597TIP3    H259283   4.583   0.700   1.640 -1.3678 -1.4628 -1.8131
12598TIP3   OH259284   4.953   0.586   1.632  0.0187  0.1261 -0.0588
12598TIP3    H159285   4.882   0.609   1.572 -3.0196 -0.0223  3.1630
12598TIP3    H259286   4.995   0.669   1.653 -0.0073  0.3925 -1.0197
12599TIP3   OH259287   4.380   6.160  15.087  0.0029 -0.1577 -0.1756
12599TIP3    H159288   4.471   6.189  15.084  0.3057 -0.9426  0.7249
12599TIP3    H259289   4.335   6.227  15.140  0.3724 -0.5134  0.6013
12600TIP3   OH259290   3.458   0.248  12.542  0.1598 -0.0219  0.4419
12600TIP3    H159291   3.370   0.249  12.580 -0.5810 -0.2102 -1.1995
12600TIP3    H259292   3.456   0.312  12.471  1.5618  0.4605  0.7987
12601TIP3   OH259293   2.772   5.814  15.729  0.3632  0.2331 -0.6455
12601TIP3    H159294   2.710   5.815  15.656 -0.2810  1.6834 -0.1097
12601TIP3    H259295   2.853   5.780  15.691 -0.1686  0.2675 -1.8560
12602TIP3   OH259296   5.263   6.580   5.290 -0.0625  0.1707 -0.1053
12602TIP3    H159297   5.355   6.597   5.308 -0.0500 -0.2314  0.2360
12602TIP3    H259298   5.236   6.521   5.361 -0.0579 -1.3487 -1.3120
12603TIP3   OH259299   3.240   0.889   0.922  0.0309  0.0258 -0.0688
12603TIP3    H159300   3.171   0.940   0.964 -0.4257  0.4623 -1.3097
12603TIP3    H259301   3.276   0.947   0.855  0.4135 -0.8156 -0.6155
12604TIP3   OH259302   2.226   1.447  12.416 -0.2017 -0.1341  0.5876
12604TIP3    H159303   2.253   1.524  12.465  1.1879  0.4344 -0.9714
12604TIP3    H259304   2.183   1.481  12.338 -0.6440 -0.9680  0.4484
12605TIP3   OH259305   1.751   4.081  16.579  0.0904  0.0970  0.0045
12605TIP3    H159306   1.662   4.079  16.542  0.3934  0.9401 -0.8139
12605TIP3    H259307   1.784   3.992  16.568 -0.9788 -0.4805  1.1757
12606TIP3   OH259308   3.622   1.889   5.706 -0.0627 -0.5400 -0.4737
12606TIP3    H159309   3.528   1.877   5.716 -0.1443  0.1974 -0.2483
12606TIP3    H259310   3.661   1.818   5.758 -0.4941 -0.6879 -0.3488
12607TIP3   OH259311   6.726   4.889   0.598  0.5439  0.1708  0.7031
12607TIP3    H159312   6.743   4.796   0.581  0.3258  0.2458  0.0368
12607TIP3    H259313   6.803   4.919   0.646 -0.3295 -0.8513  2.8865
12608TIP3   OH259314   4.588   3.782   2.962  0.0949  0.0842 -0.6266
12608TIP3    H159315   4.600   3.784   2.867  1.7496  0.1652 -0.4499
12608TIP3    H259316   4.633   3.861   2.993  1.9584 -1.3029  0.4185
12609TIP3   OH259317   4.477   0.245  13.013 -0.1506 -0.4596  0.1285
12609TIP3    H159318   4.540   0.190  12.967  1.1720 -0.3684  1.7411
12609TIP3    H259319   4.394   0.197  13.006 -0.0151 -0.4963 -2.1801
12610TIP3   OH259320   3.347   2.778  17.072 -0.1409 -0.5462 -0.1601
12610TIP3    H159321   3.297   2.859  17.064 -1.7704 -1.4019  0.8428
12610TIP3    H259322   3.353   2.763  17.166  2.8659 -0.0260 -0.1742
12611TIP3   OH259323   3.329   0.448   3.242 -0.1722 -0.6515 -0.2344
12611TIP3    H159324   3.378   0.421   3.320 -0.0417 -1.8815 -0.7318
12611TIP3    H259325   3.307   0.367   3.197 -1.7041 -0.0666 -0.6284
12612TIP3   OH259326   3.189   2.285  13.973  0.6988  0.1139 -0.0168
12612TIP3    H159327   3.221   2.341  13.901  1.6001  2.0214  1.7600
12612TIP3    H259328   3.129   2.341  14.022  0.0639 -1.1679  0.7087
12613TIP3   OH259329   2.009   4.320   5.286 -0.1327  0.2671 -0.0807
12613TIP3    H159330   1.975   4.242   5.242 -0.0428  0.8192 -1.1515
12613TIP3    H259331   2.103   4.305   5.295 -0.0205  0.4991 -0.8238
12614TIP3   OH259332   4.899   1.292  11.914  0.7210 -0.0682 -0.3288
12614TIP3    H159333   4.990   1.314  11.892  0.7409 -0.2537 -0.4378
12614TIP3    H259334   4.896   1.197  11.908  1.0447 -0.2608  1.6772
12615TIP3   OH259335   1.311   0.033  11.683 -0.4461  0.0288 -0.2718
12615TIP3    H159336   1.262   0.101  11.730 -0.1848  0.1020 -0.1027
12615TIP3    H259337   1.376   0.082  11.632 -1.0156 -0.0231 -1.0510
12616TIP3   OH259338   2.389   5.380   2.525  0.5355 -0.5900 -0.8013
12616TIP3    H159339   2.321   5.352   2.586  0.7127 -1.9201 -1.1812
12616TIP3    H259340   2.466   5.328   2.549  1.9117  1.8754  0.5445
12617TIP3   OH259341   2.197   4.666   1.476  0.3737 -0.4921  0.4668
12617TIP3    H159342   2.200   4.571   1.481  0.4019 -0.4738  0.9121
12617TIP3    H259343   2.172   4.694   1.565 -1.0340 -0.1392 -0.0231
12618TIP3   OH259344   2.585   5.707  11.627  0.2519 -0.4039  0.4843
12618TIP3    H159345   2.584   5.630  11.684  2.7154  0.5119  1.9172
12618TIP3    H259346   2.675   5.714  11.597 -0.1397  1.3659 -0.4344
12619TIP3   OH259347   1.777   3.151  16.661  0.6734  0.6278  0.4226
12619TIP3    H159348   1.753   3.244  16.663  2.8007  1.2150  1.9665
12619TIP3    H259349   1.771   3.123  16.752  2.1506 -0.1292  0.3139
12620TIP3   OH259350   2.542   2.484   0.925 -0.4620  0.2261  0.3787
12620TIP3    H159351   2.607   2.462   0.992  0.3996  1.9125  0.1476
12620TIP3    H259352   2.522   2.400   0.883  1.5750 -0.3619  0.4561
12621TIP3   OH259353   3.484   2.157   0.036 -0.4808  0.2856  0.6596
12621TIP3    H159354   3.571   2.145  -0.004 -0.4952 -0.5197  0.8497
12621TIP3    H259355   3.429   2.190  -0.035 -0.0801  0.5579  0.4730
12622TIP3   OH259356   2.280   4.624  12.552 -0.6114  0.3674 -0.4257
12622TIP3    H159357   2.251   4.709  12.585  0.4698  0.5863 -0.0039
12622TIP3    H259358   2.211   4.598  12.491 -0.5711  1.9568 -1.2236
12623TIP3   OH259359   4.992   4.905   6.253  0.3062  0.3364  0.5266
12623TIP3    H159360   4.934   4.828   6.255 -0.5777  0.9693  0.0723
12623TIP3    H259361   5.080   4.868   6.249 -0.1479 -0.7048 -1.4266
12624TIP3   OH259362   3.007   6.215  14.684 -0.0852  0.2501  0.3253
12624TIP3    H159363   2.973   6.298  14.651 -0.5500  0.6709  1.7615
12624TIP3    H259364   2.935   6.180  14.737  0.1357 -1.0376 -0.1911
12625TIP3   OH259365   6.649   3.447  14.198 -0.4309  0.6840  0.2851
12625TIP3    H159366   6.677   3.507  14.267  0.0873 -1.0697  1.6665
12625TIP3    H259367   6.728   3.432  14.146 -0.5899  1.2663 -0.1338
12626TIP3   OH259368   1.813   1.032   6.618  0.1579 -0.0600  0.0401
12626TIP3    H159369   1.813   0.949   6.570  0.5618 -0.6377  1.0165
12626TIP3    H259370   1.836   1.098   6.552  1.4131 -0.9334 -0.4375
12627TIP3   OH259371   5.155   2.962   0.912 -0.1713 -0.9534  0.5507
12627TIP3    H159372   5.100   3.037   0.934  0.7718  0.2810 -1.0755
12627TIP3    H259373   5.110   2.920   0.838  1.0174  0.1082 -0.8399
12628TIP3   OH259374   6.223   3.886   4.526  0.8378 -0.8420  0.2379
12628TIP3    H159375   6.152   3.825   4.507 -0.7310  0.2074  2.3578
12628TIP3    H259376   6.297   3.831   4.552 -0.3469 -1.8864  1.5222
12629TIP3   OH259377   3.782   3.526  11.148 -0.1640  0.2183  0.1633
12629TIP3    H159378   3.864   3.575  11.144 -0.5066  0.7502 -0.4436
12629TIP3    H259379   3.732   3.569  11.218 -0.0141  0.0227  0.3938
12630TIP3   OH259380   5.979   3.083   2.258  0.0126 -0.3300  0.1694
12630TIP3    H159381   5.949   3.001   2.298  1.0381 -0.8489 -0.1026
12630TIP3    H259382   6.057   3.059   2.209 -0.3875  0.5734 -0.9739
12631TIP3   OH259383   3.683   4.547  14.499 -0.1613 -1.0122 -0.0920
12631TIP3    H159384   3.760   4.535  14.443 -0.0047 -0.0289 -0.1188
12631TIP3    H259385   3.611   4.561  14.438 -0.2494 -1.3320 -0.0611
12632TIP3   OH259386   6.085   5.531  10.655 -0.0341  0.4989  0.1434
12632TIP3    H159387   6.084   5.507  10.563  0.4526  0.0409  0.2531
12632TIP3    H259388   6.173   5.507  10.686 -0.6814 -0.7908  1.0893
12633TIP3   OH259389   3.677   1.767  12.583 -0.3059 -0.2619 -0.2255
12633TIP3    H159390   3.631   1.765  12.500 -0.4918 -3.1473 -0.1440
12633TIP3    H259391   3.770   1.768  12.560 -0.3638 -0.1172 -0.4494
12634TIP3   OH259392   2.253   5.081   0.726 -0.1094 -0.9244  0.1226
12634TIP3    H159393   2.235   5.121   0.641  1.8072 -2.3866 -1.0753
12634TIP3    H259394   2.238   5.151   0.790 -1.5252  0.2356 -1.4120
12635TIP3   OH259395   2.640   0.793   4.808 -0.5118 -0.8788 -0.7347
12635TIP3    H159396   2.559   0.775   4.857  0.6103 -1.0066  1.1583
12635TIP3    H259397   2.710   0.783   4.872  0.8882  1.4455 -1.7701
12636TIP3   OH259398   1.919   6.577  16.109 -0.0117  0.4030 -0.0432
12636TIP3    H159399   1.845   6.633  16.135  0.1657  1.0025 -0.7921
12636TIP3    H259400   1.887   6.530  16.032 -0.7829 -1.8877  1.5595
12637TIP3   OH259401   4.320   1.398  14.021  0.1090 -0.2808  0.2341
12637TIP3    H159402   4.335   1.305  14.003  0.9043 -0.4580  1.6867
12637TIP3    H259403   4.367   1.415  14.103  0.1946  1.4718 -0.1412
12638TIP3   OH259404   1.929   0.269  11.761  0.7639 -0.2859 -0.6021
12638TIP3    H159405   1.955   0.355  11.729  1.8499 -0.2988  0.1778
12638TIP3    H259406   1.984   0.254  11.838 -0.7468 -0.8725  0.4148
12639TIP3   OH259407   6.220   1.080   2.499 -0.4562 -0.0566  0.0873
12639TIP3    H159408   6.235   1.124   2.583  0.4684 -1.8124  0.8972
12639TIP3    H259409   6.295   1.106   2.445 -0.2008 -0.1942  0.3705
12640TIP3   OH259410   4.966   0.358  17.152 -0.5915  0.1561 -0.2760
12640TIP3    H159411   5.051   0.334  17.189 -1.2515 -1.0115  0.5509
12640TIP3    H259412   4.923   0.408  17.222 -1.2917 -0.8511  0.0425
12641TIP3   OH259413   4.296   2.541   0.225 -0.9374  0.0311 -0.0803
12641TIP3    H159414   4.286   2.464   0.169 -1.1879  0.3367 -0.4600
12641TIP3    H259415   4.229   2.602   0.195 -1.6350 -0.1192  1.0953
12642TIP3   OH259416   0.044   2.700  11.313 -0.5984 -0.0870 -0.7917
12642TIP3    H159417  -0.018   2.773  11.320 -0.4654  0.0186 -0.7209
12642TIP3    H259418  -0.010   2.622  11.326 -1.1299 -0.1439 -2.9672
12643TIP3   OH259419   5.338   3.085  12.324  0.5342  0.2567  0.3743
12643TIP3    H159420   5.381   3.073  12.239  0.4118  0.0883  0.3355
12643TIP3    H259421   5.325   2.997  12.357 -0.1740  0.2868  0.1856
12644TIP3   OH259422   6.299   4.481   3.668 -0.0006 -0.5291 -0.1462
12644TIP3    H159423   6.267   4.391   3.674  0.8948 -1.0832 -2.5172
12644TIP3    H259424   6.367   4.478   3.600  0.2340  1.8913 -0.1081
12645TIP3   OH259425   5.966   0.913  15.247  0.2929 -0.0532 -0.0798
12645TIP3    H159426   5.871   0.901  15.250  0.3274 -0.5397 -0.7277
12645TIP3    H259427   5.992   0.923  15.338 -0.8119  3.6234  0.0111
12646TIP3   OH259428   2.192   2.564  14.617  0.0876  0.3102  0.2449
12646TIP3    H159429   2.139   2.519  14.551 -0.0889 -0.3136  0.7976
12646TIP3    H259430   2.268   2.508  14.630  0.7726  1.0704 -0.3483
12647TIP3   OH259431   5.155   0.572  11.870 -0.4789 -0.1898 -0.4301
12647TIP3    H159432   5.224   0.572  11.937 -0.8758  0.3795 -0.0130
12647TIP3    H259433   5.084   0.522  11.908 -0.2647 -0.8658 -0.9027
12648TIP3   OH259434   3.043   2.309  12.433 -0.2669  0.3358 -0.9724
12648TIP3    H159435   3.138   2.299  12.439 -0.2921  0.2700 -0.6612
12648TIP3    H259436   3.010   2.265  12.511 -0.4487  1.8211 -0.1825
12649TIP3   OH259437   1.895   5.602  16.110  0.1077 -0.2209  0.3533
12649TIP3    H159438   1.908   5.656  16.033  0.8557 -0.7849  0.0678
12649TIP3    H259439   1.881   5.514  16.075  0.1656 -0.4319  0.8513
12650TIP3   OH259440   1.327   0.077  15.879 -0.5088  0.1966 -0.4105
12650TIP3    H159441   1.323   0.070  15.975 -0.6409  0.1263 -0.4217
12650TIP3    H259442   1.397   0.016  15.854 -1.0067 -0.3680 -0.4276
12651TIP3   OH259443   5.245   1.230   0.526  0.3461  0.2738  0.4558
12651TIP3    H159444   5.198   1.295   0.474  1.2034 -0.2165 -1.0026
12651TIP3    H259445   5.219   1.247   0.617 -2.4324  0.1547 -0.2376
12652TIP3   OH259446   4.463   4.102   0.102 -0.1839  0.3489 -0.0144
12652TIP3    H159447   4.500   4.081   0.188  1.7425  1.8973 -0.3973
12652TIP3    H259448   4.392   4.163   0.122 -2.4617 -2.3617  0.7017
12653TIP3   OH259449   4.458   3.076   1.455 -0.4221  0.7235  0.2867
12653TIP3    H159450   4.403   3.141   1.499  0.4008  1.4998  0.2072
12653TIP3    H259451   4.411   3.057   1.373 -0.6096  1.3206  0.2498
12654TIP3   OH259452   5.970   3.671  14.748 -0.3164 -0.3887  0.3643
12654TIP3    H159453   6.030   3.736  14.785  1.2620 -1.1702 -0.6977
12654TIP3    H259454   5.967   3.602  14.814  0.3466 -0.5506  0.2396
12655TIP3   OH259455   1.881   5.360   2.920  0.0138 -0.0661  0.3581
12655TIP3    H159456   1.930   5.440   2.899 -0.3422  0.4274  1.3687
12655TIP3    H259457   1.938   5.311   2.979  0.4753 -0.8560 -0.7002
12656TIP3   OH259458   0.415   5.124  16.491  0.1445 -0.3603 -0.4868
12656TIP3    H159459   0.464   5.049  16.456  0.3393 -1.2008  1.4410
12656TIP3    H259460   0.336   5.085  16.529  0.8750  0.1743  1.7315
12657TIP3   OH259461   1.391   4.848  15.343 -0.5676 -0.6035 -0.5514
12657TIP3    H159462   1.343   4.766  15.330  1.0770 -1.7717  0.3158
12657TIP3    H259463   1.417   4.875  15.255  0.2177 -1.8959 -0.7412
12658TIP3   OH259464   3.130   0.885  13.434 -0.1403 -0.1002  0.7784
12658TIP3    H159465   3.158   0.801  13.471  1.1866 -0.0377 -0.0410
12658TIP3    H259466   3.084   0.928  13.507 -0.2632 -1.2379  1.4099
12659TIP3   OH259467   5.064   5.418   4.271 -0.2250  0.1232  0.1737
12659TIP3    H159468   5.134   5.361   4.302  1.0612  1.2797 -0.5025
12659TIP3    H259469   4.983   5.369   4.286  0.7692 -1.4240  0.5492
12660TIP3   OH259470   2.678   1.087   4.411  0.5489 -0.0755 -0.3807
12660TIP3    H159471   2.706   1.021   4.475 -0.4776  0.1909  0.3611
12660TIP3    H259472   2.608   1.044   4.362  0.0169  0.3956 -0.0318
12661TIP3   OH259473   1.479   6.774   0.771  0.8098 -0.2526 -0.0072
12661TIP3    H159474   1.558   6.825   0.790  0.3716  0.4401 -0.0305
12661TIP3    H259475   1.452   6.740   0.857  0.9144 -0.1679  0.0600
12662TIP3   OH259476   1.753   2.011  14.641  0.4004 -0.2141  1.0467
12662TIP3    H159477   1.732   2.098  14.608 -1.1935 -0.8255  0.3250
12662TIP3    H259478   1.843   1.995  14.613 -0.1287  0.2150 -1.0572
12663TIP3   OH259479   2.912   6.007  14.852  0.2601  0.5420  0.0291
12663TIP3    H159480   2.862   5.948  14.908 -0.0664  0.3099 -0.4915
12663TIP3    H259481   2.883   6.095  14.877  0.4993  0.4672  0.5756
12664TIP3   OH259482   2.739   4.600   5.076  0.4248 -0.1120  0.1085
12664TIP3    H159483   2.800   4.663   5.036 -0.3061 -0.2687 -1.3115
12664TIP3    H259484   2.790   4.559   5.146  1.0622  1.7142  0.7685
12665TIP3   OH259485   2.091   5.949   2.178 -0.4970 -0.0747 -0.1950
12665TIP3    H159486   2.143   5.880   2.221  0.9640  0.7744 -0.5249
12665TIP3    H259487   2.140   6.030   2.195 -0.9242  0.5572 -1.7671
12666TIP3   OH259488   1.038   3.447   0.470  0.4631 -0.1977 -0.0023
12666TIP3    H159489   1.022   3.504   0.544  0.7713  1.5882 -1.2528
12666TIP3    H259490   0.964   3.462   0.411  1.2772  0.0435 -1.0065
12667TIP3   OH259491   1.617   4.926   2.067 -0.6268 -0.0710  0.1858
12667TIP3    H159492   1.543   4.944   2.010 -1.6045  1.8576  1.9150
12667TIP3    H259493   1.664   5.010   2.074  0.0307 -0.5025  1.3914
12668TIP3   OH259494   3.657   0.569   4.619 -0.4670 -0.4358  0.5222
12668TIP3    H159495   3.708   0.550   4.541 -0.2869 -1.6441  0.9110
12668TIP3    H259496   3.597   0.639   4.593  0.4371  0.0405 -0.3308
12669TIP3   OH259497   2.078   3.272   5.316 -0.3046 -0.7897 -0.2262
12669TIP3    H159498   2.155   3.329   5.310 -0.8162 -0.2693 -2.7801
12669TIP3    H259499   2.003   3.332   5.314 -0.8226 -1.4309 -0.6002
12670TIP3   OH259500   0.985   4.926   1.621  0.2065  0.7983 -0.4537
12670TIP3    H159501   0.947   4.994   1.565 -0.5409  1.9459  1.3516
12670TIP3    H259502   1.001   4.970   1.704  2.4230 -0.5307 -0.1035
12671TIP3   OH259503   2.843   5.417  14.757 -0.3527  0.2017 -0.7544
12671TIP3    H159504   2.879   5.504  14.739  0.3039 -0.2357 -1.6223
12671TIP3    H259505   2.920   5.364  14.779 -0.9724  0.4353  2.5094
12672TIP3   OH259506   5.238   4.507   3.248 -0.2408  0.5471 -0.1931
12672TIP3    H159507   5.306   4.521   3.314  0.1252 -0.9730 -0.2055
12672TIP3    H259508   5.180   4.442   3.287 -0.2302 -0.0997 -1.2240
12673TIP3   OH259509   5.569   2.403  15.988 -0.2303  0.0729  0.0076
12673TIP3    H159510   5.543   2.463  16.058 -0.2640 -0.5615  0.5347
12673TIP3    H259511   5.631   2.454  15.936 -0.7946  0.8227  0.0340
12674TIP3   OH259512   4.325   0.151  13.548 -0.0943 -0.0837 -0.3066
12674TIP3    H159513   4.358   0.123  13.634 -2.8285 -0.1162  0.8153
12674TIP3    H259514   4.348   0.244  13.543 -1.2684  0.3313  1.2090
12675TIP3   OH259515   4.997   0.091   2.336  0.1455 -0.1448  0.0221
12675TIP3    H159516   4.972   0.183   2.334 -1.5298 -0.5756  0.2106
12675TIP3    H259517   5.081   0.090   2.382  0.3757  1.3157 -0.3267
12676TIP3   OH259518   0.372   4.783  13.286 -0.5370 -0.5633  0.0731
12676TIP3    H159519   0.445   4.762  13.345 -0.8753 -2.2649 -0.0770
12676TIP3    H259520   0.315   4.707  13.291 -1.0146 -0.3592 -1.8074
12677TIP3   OH259521   5.175   1.314   3.641  0.2480  0.1749  0.0768
12677TIP3    H159522   5.266   1.333   3.661 -0.1037  1.3174  0.6396
12677TIP3    H259523   5.141   1.395   3.603 -0.8807  0.2055  1.0906
12678TIP3   OH259524   5.033   5.064   5.417  0.5662  0.6241 -0.7127
12678TIP3    H159525   5.090   5.141   5.415  1.2856  0.1054 -0.6069
12678TIP3    H259526   5.064   5.010   5.344 -0.2964  0.6781 -1.1363
12679TIP3   OH259527   1.381   1.975  16.729 -0.0649  0.2261  0.7890
12679TIP3    H159528   1.417   1.998  16.643 -1.4102 -0.6495 -0.0496
12679TIP3    H259529   1.368   1.880  16.725 -1.1838  0.3268  1.5174
12680TIP3   OH259530   2.428   0.421  16.678  0.1617 -0.2308  0.1047
12680TIP3    H159531   2.374   0.392  16.751  1.3938  1.3112  1.7246
12680TIP3    H259532   2.366   0.446  16.609 -1.0856 -0.4421  1.1399
12681TIP3   OH259533   0.753   4.216  10.951  0.3962  0.1202  0.4015
12681TIP3    H159534   0.818   4.194  10.884  1.1762  0.2474  1.0892
12681TIP3    H259535   0.673   4.172  10.923 -0.0880  2.2865 -2.0377
12682TIP3   OH259536   4.396   2.516   5.157 -0.2197 -0.4203 -0.6376
12682TIP3    H159537   4.399   2.512   5.253  0.7725  1.0178 -0.5614
12682TIP3    H259538   4.469   2.575   5.134 -1.1281  0.1507 -2.2017
12683TIP3   OH259539   2.001   2.548  14.028  0.3342  0.8428 -0.8321
12683TIP3    H159540   2.089   2.518  14.006  1.0709  2.0148  0.3403
12683TIP3    H259541   1.995   2.539  14.123 -0.6024  1.2953 -0.8276
12684TIP3   OH259542   4.735   4.325  11.637  0.4125 -0.3486 -0.5337
12684TIP3    H159543   4.815   4.301  11.684 -0.0972 -1.1517 -0.0351
12684TIP3    H259544   4.766   4.363  11.555  1.3459  1.9018  0.7675
12685TIP3   OH259545   3.745   2.960   0.293 -0.1385  0.4951  0.1981
12685TIP3    H159546   3.728   2.952   0.387 -2.0249 -2.1888 -0.2439
12685TIP3    H259547   3.683   3.026   0.263 -0.8441  0.0213  0.5774
12686TIP3   OH259548   1.488   5.518   2.597  0.8746  0.0686 -0.1186
12686TIP3    H159549   1.421   5.485   2.658  1.8967  0.1719  1.1000
12686TIP3    H259550   1.566   5.468   2.618  2.1335  2.3479  0.9480
12687TIP3   OH259551   4.277   0.982  14.335  0.0638  0.1371 -0.2965
12687TIP3    H159552   4.309   0.902  14.377  0.1979  0.3691  0.0487
12687TIP3    H259553   4.242   1.034  14.407 -1.9533 -0.4920 -0.7489
12688TIP3   OH259554   5.811   5.338  13.778  0.6998  0.0352 -0.6424
12688TIP3    H159555   5.765   5.305  13.855  0.7434  0.7751 -0.2975
12688TIP3    H259556   5.815   5.262  13.719 -1.1796  0.0003 -0.7908
12689TIP3   OH259557   6.613   6.162   5.416  0.3772  0.7051 -0.0808
12689TIP3    H159558   6.562   6.082   5.426  2.0046 -0.2043  1.6357
12689TIP3    H259559   6.580   6.202   5.336 -0.9426 -1.3302 -0.6294
12690TIP3   OH259560   6.306   0.344   5.477 -0.1097  0.0349  0.1233
12690TIP3    H159561   6.226   0.348   5.425 -0.1265 -2.0523 -0.0956
12690TIP3    H259562   6.372   0.387   5.422 -0.5080 -0.5905 -0.8735
12691TIP3   OH259563   2.776   1.905  11.425  0.4680 -0.0007 -0.3556
12691TIP3    H159564   2.750   1.903  11.333  0.0404  0.4610 -0.2494
12691TIP3    H259565   2.713   1.847  11.468 -1.0053  1.8281  0.0454
12692TIP3   OH259566   4.122   2.267  15.538 -0.3083  0.2696  0.2420
12692TIP3    H159567   4.036   2.226  15.539 -0.4747  0.4158 -2.3157
12692TIP3    H259568   4.156   2.250  15.450  1.9599  0.8726  0.9339
12693TIP3   OH259569   6.022   0.283   2.082  0.4083  0.1410  0.7884
12693TIP3    H159570   6.037   0.253   1.992  0.2556 -0.4040  0.9380
12693TIP3    H259571   6.080   0.358   2.092  0.6365  0.0351  0.3227
12694TIP3   OH259572   5.866   6.465  15.089 -0.4815 -0.8114  0.2021
12694TIP3    H159573   5.806   6.408  15.137 -1.6154  0.1789  0.0048
12694TIP3    H259574   5.946   6.414  15.081 -0.8158 -1.6322  1.7069
12695TIP3   OH259575   4.406   1.395  15.029  0.1357  0.1819  0.2119
12695TIP3    H159576   4.432   1.487  15.018  1.0822  0.2462  2.3677
12695TIP3    H259577   4.404   1.383  15.124  0.6786 -2.2154 -0.0257
12696TIP3   OH259578   1.799   1.452   4.640  0.5195  0.0811  0.0516
12696TIP3    H159579   1.746   1.500   4.704  0.3882 -1.3818  1.0756
12696TIP3    H259580   1.875   1.508   4.625  0.2689  0.7129  1.0345
12697TIP3   OH259581   5.209   4.810   3.161 -0.0071 -0.3901 -0.0451
12697TIP3    H159582   5.120   4.834   3.185 -1.0687 -2.1238 -2.0292
12697TIP3    H259583   5.208   4.802   3.066  1.7883 -2.2364  0.0153
12698TIP3   OH259584   4.646   6.263  14.977  0.5067 -0.1804 -0.0391
12698TIP3    H159585   4.659   6.180  14.931 -2.0786 -0.6290 -0.1567
12698TIP3    H259586   4.626   6.326  14.908 -1.4361 -0.4148  0.2431
12699TIP3   OH259587   1.758   4.264  16.198  0.0234  0.2588  0.6453
12699TIP3    H159588   1.693   4.331  16.180  0.9059  0.7649 -0.8051
12699TIP3    H259589   1.716   4.181  16.173  1.1053  0.8758 -4.1001
12700TIP3   OH259590   0.620   6.681   3.850  0.2062 -0.1890 -0.0994
12700TIP3    H159591   0.687   6.612   3.846  1.0122  0.5487  0.1851
12700TIP3    H259592   0.551   6.651   3.792  0.1631 -1.6176  0.6518
12701TIP3   OH259593   4.424   3.650  17.100  0.1385  0.1963  0.4215
12701TIP3    H159594   4.480   3.699  17.040 -1.6183 -2.2223 -3.5844
12701TIP3    H259595   4.484   3.592  17.147  1.5247  1.8130  0.7255
12702TIP3   OH259596   5.304   5.066  12.579  0.0888  0.3586  0.0315
12702TIP3    H159597   5.305   5.161  12.573 -1.1854  0.4342  0.7419
12702TIP3    H259598   5.260   5.047  12.661 -0.3533 -0.8538 -0.4527
12703TIP3   OH259599   4.721   5.232   5.040 -0.3249 -0.6071  0.5466
12703TIP3    H159600   4.734   5.206   5.132  1.7026  1.0124  0.7987
12703TIP3    H259601   4.711   5.327   5.044 -1.1343 -0.6186 -0.8529
12704TIP3   OH259602   2.768   4.584   5.649  0.6131  0.2607  0.5698
12704TIP3    H159603   2.795   4.628   5.569  0.2714 -1.4440 -0.5199
12704TIP3    H259604   2.774   4.652   5.717  2.0198  1.4351 -0.6678
12705TIP3   OH259605   1.275   1.513   4.967 -0.4992 -0.5189 -0.5820
12705TIP3    H159606   1.353   1.480   5.013 -1.4104 -1.8164  0.0992
12705TIP3    H259607   1.282   1.475   4.879  1.3837  2.1773 -1.7581
12706TIP3   OH259608   2.208   4.779  14.801 -0.3445 -0.2345 -0.3495
12706TIP3    H159609   2.117   4.802  14.782 -0.6211 -0.5792  0.4936
12706TIP3    H259610   2.222   4.695  14.757 -1.0327 -1.1167  1.0256
12707TIP3   OH259611   5.733   5.630  13.264  0.7527  0.3270 -0.1795
12707TIP3    H159612   5.775   5.575  13.330 -0.3815 -2.9575 -1.9385
12707TIP3    H259613   5.640   5.630  13.287  0.5875  0.5826 -0.8073
12708TIP3   OH259614   6.264   4.616  13.878  0.0043  0.4346  0.1398
12708TIP3    H159615   6.176   4.587  13.854  0.4806  0.5824 -2.0022
12708TIP3    H259616   6.262   4.711  13.870  0.1466  0.5029  0.8742
12709TIP3   OH259617   5.545   6.188   2.677  0.4199  0.0507  0.7337
12709TIP3    H159618   5.639   6.167   2.670  0.5242  0.4064  1.0505
12709TIP3    H259619   5.503   6.104   2.695  0.9373  0.2292  2.9873
12710TIP3   OH259620   1.478   0.791   5.903  0.1242 -0.3837  0.3155
12710TIP3    H159621   1.383   0.778   5.898  0.0050  0.6474 -0.4226
12710TIP3    H259622   1.496   0.801   5.996 -0.4903 -0.5941  0.4672
12711TIP3   OH259623   3.323   1.160   3.638  0.0723 -0.0420 -0.0115
12711TIP3    H159624   3.296   1.102   3.568 -1.8808 -0.2758  0.8747
12711TIP3    H259625   3.318   1.106   3.717  2.6652  0.0768  0.3195
12712TIP3   OH259626   0.285   5.792  12.272 -0.3937 -0.2794 -0.1456
12712TIP3    H159627   0.233   5.764  12.197 -1.1324 -0.1019  0.2928
12712TIP3    H259628   0.269   5.886  12.279  0.7464 -0.0385 -0.5841
12713TIP3   OH259629   6.215   2.589   4.349 -0.2515 -0.1927 -0.5917
12713TIP3    H159630   6.258   2.514   4.308 -0.5812 -0.3793 -0.5945
12713TIP3    H259631   6.122   2.579   4.328  0.0537  2.2971 -4.0146
12714TIP3   OH259632   4.959   2.785  11.290  0.4805  0.3401  0.6508
12714TIP3    H159633   5.022   2.721  11.257  0.6211  0.3742  0.8500
12714TIP3    H259634   4.888   2.732  11.326 -0.1049  0.2996 -0.5008
12715TIP3   OH259635   3.170   1.681   3.479  0.1547 -0.0041  0.2796
12715TIP3    H159636   3.111   1.752   3.452  0.3217  0.3871  0.9302
12715TIP3    H259637   3.115   1.622   3.531 -0.0728 -0.5567 -0.5617
12716TIP3   OH259638   1.588   0.428   5.923 -0.4079 -0.4424 -0.3022
12716TIP3    H159639   1.626   0.511   5.951  1.2845 -1.0733 -0.6226
12716TIP3    H259640   1.512   0.416   5.981  0.2660  0.5403  0.8351
12717TIP3   OH259641   2.981   5.969  12.283  0.1502 -0.3193  0.0853
12717TIP3    H159642   2.969   6.063  12.297  1.5028 -0.3365  1.6817
12717TIP3    H259643   2.969   5.957  12.189  1.2594  1.6670 -0.3701
12718TIP3   OH259644   4.515   3.620  11.349  0.1233 -0.4542  0.3300
12718TIP3    H159645   4.574   3.566  11.297  1.4700  2.1969 -1.0894
12718TIP3    H259646   4.464   3.669  11.285 -0.3461  0.6609  1.5095
12719TIP3   OH259647   0.359   5.279  14.230 -0.1530 -0.6822  0.5049
12719TIP3    H159648   0.267   5.296  14.209  0.0681  0.5832  0.4557
12719TIP3    H259649   0.392   5.364  14.261  0.6482 -1.4353  1.8199
12720TIP3   OH259650   0.471   6.690  15.159 -0.2422 -0.7157 -0.9427
12720TIP3    H159651   0.403   6.633  15.197  1.9756 -1.6460  2.0628
12720TIP3    H259652   0.446   6.778  15.186 -0.6131 -0.9631 -0.4606
12721TIP3   OH259653   3.959   3.819   3.537  0.1923  0.6521  0.4350
12721TIP3    H159654   3.893   3.751   3.518  0.0343  1.2462 -1.3816
12721TIP3    H259655   4.040   3.771   3.549 -0.2674  0.0169  1.0900
12722TIP3   OH259656   6.206   2.884  13.787 -0.3014 -0.1557  0.2353
12722TIP3    H159657   6.197   2.857  13.879 -1.8317 -1.2146 -0.1815
12722TIP3    H259658   6.296   2.917  13.780 -0.7724  1.9382  2.5995
12723TIP3   OH259659   5.790   1.384  12.569  0.2238 -0.2244 -0.5214
12723TIP3    H159660   5.787   1.400  12.475  0.9309  1.8744 -0.2431
12723TIP3    H259661   5.746   1.460  12.608 -0.3813 -1.2313  0.8366
12724TIP3   OH259662   5.557   4.529  13.397  0.4190  0.1159  0.1003
12724TIP3    H159663   5.636   4.531  13.451 -1.4844 -0.5994  3.2048
12724TIP3    H259664   5.547   4.619  13.365  3.1024 -0.0554 -1.5815
12725TIP3   OH259665   3.376   3.513  12.932  0.2457  0.3723 -0.5957
12725TIP3    H159666   3.351   3.587  12.878 -0.7632 -0.6364 -1.5587
12725TIP3    H259667   3.466   3.532  12.959 -0.3644  2.4663  0.1412
12726TIP3   OH259668   2.176   3.290  12.565 -0.1288  0.0634  0.4630
12726TIP3    H159669   2.247   3.308  12.627  1.1520 -4.4737  0.6217
12726TIP3    H259670   2.097   3.314  12.613  0.9903 -0.5930  2.7940
12727TIP3   OH259671   6.337   2.248  11.125  0.1568  0.1013 -0.3025
12727TIP3    H159672   6.380   2.326  11.160  0.5809  0.0630 -0.7313
12727TIP3    H259673   6.408   2.194  11.091 -0.0553 -0.8398  0.6845
12728TIP3   OH259674   2.467   2.452   0.370  0.0473  0.0568  0.4520
12728TIP3    H159675   2.441   2.401   0.293 -0.9626  1.7857 -0.3956
12728TIP3    H259676   2.532   2.514   0.337 -0.8191  1.2106  0.8340
12729TIP3   OH259677   5.123   1.754   3.447 -0.0761 -0.0228 -0.3621
12729TIP3    H159678   5.080   1.674   3.476  0.3225  0.0237  0.4014
12729TIP3    H259679   5.112   1.815   3.521  1.3469 -0.0404 -0.1030
12730TIP3   OH259680   3.181   6.094  14.967 -0.3322  0.1620 -0.0073
12730TIP3    H159681   3.162   6.050  15.050 -0.0362  1.3294  0.7146
12730TIP3    H259682   3.112   6.066  14.908 -1.9885  1.1796  1.3628
12731TIP3   OH259683   0.878   1.873   3.750 -0.7233  0.3137 -0.3284
12731TIP3    H159684   0.852   1.831   3.832 -0.2393 -0.5486 -0.6091
12731TIP3    H259685   0.864   1.967   3.766  2.4616  0.5547  1.9271
12732TIP3   OH259686   5.487   0.272  12.388 -0.4050 -0.0221  0.6399
12732TIP3    H159687   5.556   0.279  12.454  0.2353 -1.8635  0.1998
12732TIP3    H259688   5.509   0.194  12.337  0.7470  2.7288 -3.6511
12733TIP3   OH259689   0.305   5.223   3.351 -0.2946 -0.0964 -0.2051
12733TIP3    H159690   0.371   5.291   3.338 -2.6796  2.2366 -0.7116
12733TIP3    H259691   0.299   5.180   3.266 -0.9452  1.1374 -0.7978
12734TIP3   OH259692   1.878   5.169   3.387  0.6403 -0.1177 -0.7759
12734TIP3    H159693   1.947   5.104   3.397 -0.1319 -1.2658 -2.5556
12734TIP3    H259694   1.893   5.208   3.301 -0.5882  0.0091 -0.9506
12735TIP3   OH259695   5.637   0.056   3.299  0.2818 -0.2552 -0.1405
12735TIP3    H159696   5.586   0.116   3.245 -0.5367 -0.7502  0.0656
12735TIP3    H259697   5.724   0.096   3.305 -0.3075  1.0192  0.1798
12736TIP3   OH259698   3.825   3.938   2.069  0.0926  0.4653 -0.5370
12736TIP3    H159699   3.770   4.001   2.022 -0.5420  1.6146  1.6369
12736TIP3    H259700   3.767   3.899   2.135  1.1499 -0.5274 -0.1545
12737TIP3   OH259701   2.487   3.058   0.256  0.5275  0.1042 -0.0416
12737TIP3    H159702   2.542   3.109   0.197  1.7609 -0.4970  0.5480
12737TIP3    H259703   2.462   2.981   0.205  1.9242 -0.6134  0.3244
12738TIP3   OH259704   0.057   2.834  11.923  0.0856 -0.4849  0.5975
12738TIP3    H159705   0.070   2.822  11.829  2.0493  0.1500  0.7385
12738TIP3    H259706   0.035   2.746  11.956  0.9261 -1.0311 -0.2465
12739TIP3   OH259707   3.909   2.483  12.238 -0.2303  0.3124  0.1372
12739TIP3    H159708   3.987   2.534  12.218 -0.5128  0.3525 -0.9504
12739TIP3    H259709   3.932   2.432  12.315  0.4396  1.2421  0.5677
12740TIP3   OH259710   2.298   3.244   0.006 -0.3769  0.1733  0.7776
12740TIP3    H159711   2.277   3.168   0.060 -3.4705  0.5383  0.2830
12740TIP3    H259712   2.299   3.211  -0.083  1.1907  0.2361  0.7407
12741TIP3   OH259713   4.492   2.191   3.060 -0.2255  0.0580 -0.3551
12741TIP3    H159714   4.401   2.190   3.090  0.1845  1.6345  1.1547
12741TIP3    H259715   4.525   2.104   3.083 -0.7145  0.2746  1.3272
12742TIP3   OH259716   3.111   5.295   2.775 -0.1316  0.3576 -0.4582
12742TIP3    H159717   3.038   5.239   2.748  0.7511 -1.1393  0.1439
12742TIP3    H259718   3.160   5.241   2.837  1.7645  1.1332 -1.2210
12743TIP3   OH259719   4.618   1.046   6.631 -0.0697  0.0833  0.0127
12743TIP3    H159720   4.582   0.966   6.670  1.0278 -0.6734 -0.4586
12743TIP3    H259721   4.612   1.031   6.537 -0.7859  1.0136 -0.1115
12744TIP3   OH259722   2.823   2.954  14.905 -0.4056  0.0111 -0.1808
12744TIP3    H159723   2.772   3.013  14.849 -1.2034  0.2757  0.8019
12744TIP3    H259724   2.903   2.937  14.855 -0.2818  1.6900 -0.6190
12745TIP3   OH259725   0.370   5.605  13.390  0.3050 -0.4343 -0.2741
12745TIP3    H159726   0.323   5.625  13.308 -1.5326 -0.7929  0.6376
12745TIP3    H259727   0.452   5.566  13.361  1.0227  2.1113 -1.9818
12746TIP3   OH259728   3.483   0.434  13.018  0.2430 -1.0062 -0.2362
12746TIP3    H159729   3.445   0.419  12.932 -0.8159  1.0866 -0.1956
12746TIP3    H259730   3.407   0.444  13.076  0.8816  0.1355  0.4475
12747TIP3   OH259731   4.288   3.710   3.254  1.1218 -0.0473 -0.5051
12747TIP3    H159732   4.294   3.781   3.318 -0.4280 -0.0115 -0.3555
12747TIP3    H259733   4.234   3.747   3.183 -1.3497 -1.6141  0.4345
12748TIP3   OH259734   5.210   0.979   0.694 -0.1595  0.0283  0.0856
12748TIP3    H159735   5.150   0.972   0.769 -1.8113  0.5933 -1.1118
12748TIP3    H259736   5.161   1.032   0.630  2.0016  1.3041 -0.6157
12749TIP3   OH259737   0.384   4.678   0.483 -0.0192  0.1202  0.5646
12749TIP3    H159738   0.295   4.645   0.497 -0.6897  1.8421  0.6452
12749TIP3    H259739   0.436   4.600   0.463 -1.7240 -0.8364 -0.3690
12750TIP3   OH259740   0.909   3.947  12.294  0.3017 -0.2355 -0.4328
12750TIP3    H159741   0.856   3.995  12.229 -0.7729 -1.8192 -0.7740
12750TIP3    H259742   0.948   3.875  12.244 -0.1569 -1.1955  0.5557
12751TIP3   OH259743   5.260   4.581   0.674 -0.0369 -0.0049  0.2999
12751TIP3    H159744   5.231   4.665   0.709  0.6637  0.3192  0.1194
12751TIP3    H259745   5.355   4.591   0.664  0.0696 -0.8579  0.3943
12752TIP3   OH259746   5.746   4.618   2.323 -0.0329  0.4477 -0.0044
12752TIP3    H159747   5.828   4.609   2.371 -0.0718  0.6443  0.1011
12752TIP3    H259748   5.730   4.532   2.285  0.9624  0.7710 -1.2100
12753TIP3   OH259749   5.877   5.335   2.980  0.2665 -1.0492 -0.0234
12753TIP3    H159750   5.934   5.329   3.057  3.2281  0.6919 -1.8986
12753TIP3    H259751   5.796   5.373   3.014  1.8256  0.6152  2.1357
12754TIP3   OH259752   1.233   2.136  15.289 -0.0454  0.0510  0.1249
12754TIP3    H159753   1.282   2.061  15.255  1.4566  0.2370  1.7639
12754TIP3    H259754   1.220   2.117  15.382 -1.4932  0.8817  0.1299
12755TIP3   OH259755   3.873   2.606  13.156 -0.2321 -0.7932  0.0726
12755TIP3    H159756   3.857   2.590  13.249  1.4657 -0.7702  0.4078
12755TIP3    H259757   3.807   2.670  13.131  0.9417  1.3281  1.9966
12756TIP3   OH259758   3.214   0.205   4.135  0.6966  0.3847  0.2840
12756TIP3    H159759   3.270   0.279   4.111 -0.9225  1.9453  1.0487
12756TIP3    H259760   3.180   0.229   4.222  0.4325 -1.4703  0.7235
12757TIP3   OH259761   2.355   4.296  12.039 -0.1037 -0.0335  0.6889
12757TIP3    H159762   2.284   4.283  11.977  0.8267  0.2242 -0.4520
12757TIP3    H259763   2.407   4.217  12.034  1.3205  0.9382 -0.6735
12758TIP3   OH259764   3.050   1.401  11.874  0.9055 -0.4273  0.0497
12758TIP3    H159765   3.060   1.442  11.960 -0.9230 -0.9565  0.5536
12758TIP3    H259766   3.012   1.470  11.819 -0.3281 -0.8391  0.3692
12759TIP3   OH259767   6.094   0.246   0.425 -0.6202 -0.4019 -0.0576
12759TIP3    H159768   6.101   0.162   0.471 -0.8406  0.0658  0.8755
12759TIP3    H259769   6.030   0.296   0.477  0.2460  0.7049 -0.0065
12760TIP3   OH259770   0.839   3.493   0.278  0.1641 -0.3409  0.0184
12760TIP3    H159771   0.880   3.555   0.218  1.3335  0.0386  1.1748
12760TIP3    H259772   0.799   3.427   0.221 -1.1397  1.4534 -1.2492
12761TIP3   OH259773   1.131   1.806   3.277  0.6172  0.4640  0.4134
12761TIP3    H159774   1.164   1.895   3.287  0.2389  0.6878 -0.2747
12761TIP3    H259775   1.069   1.795   3.350 -0.1707  1.1579 -0.1408
12762TIP3   OH259776   4.093   0.103   5.700 -0.3543  0.1054 -0.6790
12762TIP3    H159777   4.042   0.105   5.781  0.5691  1.1065 -0.0790
12762TIP3    H259778   4.143   0.185   5.702 -0.3838  0.1977 -2.3230
12763TIP3   OH259779   4.629   5.617   4.156 -0.0546  0.0982  0.0385
12763TIP3    H159780   4.710   5.645   4.114 -0.2357  0.8134  0.1441
12763TIP3    H259781   4.609   5.687   4.218 -0.4688 -0.3277  0.3922
12764TIP3   OH259782   4.186   3.230   1.468 -0.3253 -0.1320  0.1935
12764TIP3    H159783   4.185   3.147   1.516 -1.2885 -0.2777 -0.0602
12764TIP3    H259784   4.111   3.224   1.409  0.3437  0.4016 -0.7247
12765TIP3   OH259785   2.560   4.544   6.084  0.1276 -0.3328  0.6659
12765TIP3    H159786   2.641   4.517   6.127  1.1792  0.5523 -0.6784
12765TIP3    H259787   2.571   4.517   5.993 -1.5519 -1.1381  0.6487
12766TIP3   OH259788   5.824   0.183  13.138 -0.5716 -0.1103 -0.5647
12766TIP3    H159789   5.821   0.232  13.221 -2.4444 -1.1706  0.0489
12766TIP3    H259790   5.856   0.096  13.163 -1.9187 -0.6881 -0.7805
12767TIP3   OH259791   2.452   2.158  11.704 -0.5411 -0.3387  0.2757
12767TIP3    H159792   2.524   2.169  11.766  0.7692 -2.0411 -0.8280
12767TIP3    H259793   2.405   2.081  11.735 -0.3819 -0.6943 -0.3293
12768TIP3   OH259794   0.531   0.345  16.261 -0.0598 -0.1513  0.1548
12768TIP3    H159795   0.498   0.280  16.323 -2.7752 -0.3375 -1.3569
12768TIP3    H259796   0.481   0.424  16.281  0.0212  0.1721 -0.8671
12769TIP3   OH259797   5.856   0.760   5.656  0.3281  0.4504 -0.1103
12769TIP3    H159798   5.883   0.763   5.748 -0.6548  0.3789  0.1966
12769TIP3    H259799   5.906   0.689   5.618  0.1863 -0.0203  0.5690
12770TIP3   OH259800   2.271   6.717  12.129 -0.1005  0.1237  0.0239
12770TIP3    H159801   2.295   6.783  12.194 -2.5569 -0.2968  1.4806
12770TIP3    H259802   2.347   6.658  12.126  0.7379  1.0805  1.2458
12771TIP3   OH259803   0.267   2.603   0.632 -0.3521  0.3554  0.1270
12771TIP3    H159804   0.194   2.568   0.682 -1.3981  0.9768 -0.9180
12771TIP3    H259805   0.262   2.558   0.547  0.2576  0.6723 -0.0871
12772TIP3   OH259806   1.332   0.590   3.359  0.2284 -0.2710 -0.0911
12772TIP3    H159807   1.423   0.611   3.338 -0.2586  1.9481 -0.1425
12772TIP3    H259808   1.299   0.547   3.280  1.0738 -0.6727 -0.2466
12773TIP3   OH259809   0.966   1.784   1.536 -0.2850 -0.0142 -0.2555
12773TIP3    H159810   1.047   1.754   1.578 -0.4510 -0.5912 -0.3480
12773TIP3    H259811   0.908   1.708   1.538 -0.8789  0.4380 -0.0649
12774TIP3   OH259812   5.858   0.626  11.960  0.1373  0.3608  0.4578
12774TIP3    H159813   5.883   0.570  12.034 -0.0223 -0.5047 -0.1312
12774TIP3    H259814   5.768   0.601  11.940  0.1416  0.6680  0.0382
12775TIP3   OH259815   3.743   4.603  16.861 -0.1269  0.2589 -0.1568
12775TIP3    H159816   3.675   4.666  16.887  1.0230  1.2971  0.4294
12775TIP3    H259817   3.798   4.652  16.799 -0.5174 -0.9208 -1.4873
12776TIP3   OH259818   2.318   6.640   3.056  0.2323  0.2634  0.1367
12776TIP3    H159819   2.239   6.694   3.056 -0.4232 -0.6035  1.5148
12776TIP3    H259820   2.301   6.572   2.991 -2.1464 -2.4485  3.2355
12777TIP3   OH259821   3.536   1.639  16.277  0.2481 -0.1534  0.5308
12777TIP3    H159822   3.505   1.549  16.268 -1.9336  0.6153 -0.3336
12777TIP3    H259823   3.472   1.692  16.228  1.6666  1.8406  0.6768
12778TIP3   OH259824   0.436   0.823  13.920  0.5384 -0.2147 -0.1680
12778TIP3    H159825   0.439   0.853  13.829 -2.5298 -0.9945 -0.6397
12778TIP3    H259826   0.511   0.763  13.928  2.3554  1.7533 -1.3547
12779TIP3   OH259827   0.521   0.595  12.311  0.1469 -0.5388 -0.1357
12779TIP3    H159828   0.559   0.566  12.394  1.9672 -0.4687 -0.9037
12779TIP3    H259829   0.464   0.668  12.335  0.1753 -0.9038  1.1081
12780TIP3   OH259830   3.788   4.609   1.116 -0.5718 -0.1026  0.5637
12780TIP3    H159831   3.825   4.680   1.169 -0.4232  0.0756  0.2267
12780TIP3    H259832   3.716   4.651   1.067 -0.2563 -0.0965  0.0986
12781TIP3   OH259833   6.678   1.275  14.688  0.2345  0.1157  0.1219
12781TIP3    H159834   6.727   1.316  14.759 -2.7125  0.7652  1.9262
12781TIP3    H259835   6.601   1.329  14.677  0.4873 -0.0350 -3.6210
12782TIP3   OH259836   6.327   4.559   1.474  0.2018 -0.6349  0.1002
12782TIP3    H159837   6.248   4.507   1.486  0.5799 -0.6550  3.5008
12782TIP3    H259838   6.297   4.642   1.436 -1.4183 -0.7820  0.9906
12783TIP3   OH259839   3.061   4.413  11.589  0.7431  0.1239  0.2492
12783TIP3    H159840   3.053   4.320  11.609  1.4802 -0.3358 -1.4530
12783TIP3    H259841   2.996   4.455  11.645 -0.3211 -1.5170  0.3148
12784TIP3   OH259842   1.401   5.467   2.330  0.0007  0.1789  0.3844
12784TIP3    H159843   1.309   5.485   2.348  0.1249 -0.0369  1.2766
12784TIP3    H259844   1.442   5.463   2.416  0.5869 -1.0724  0.0673
12785TIP3   OH259845   1.899   3.835  16.534 -0.7700 -0.7014 -1.0373
12785TIP3    H159846   1.981   3.861  16.492 -0.1718 -1.7505 -0.5431
12785TIP3    H259847   1.915   3.845  16.627 -1.5797  0.1204 -0.9689
12786TIP3   OH259848   5.306   0.956   1.873 -0.1547 -0.3689  0.1039
12786TIP3    H159849   5.249   1.030   1.895  1.0401  0.6242 -0.0030
12786TIP3    H259850   5.384   0.969   1.926  0.9927 -0.2997 -1.5256
12787TIP3   OH259851   4.282   4.682  16.456 -0.3801  0.3775  0.1072
12787TIP3    H159852   4.291   4.739  16.532 -0.2686  0.5943 -0.0643
12787TIP3    H259853   4.192   4.651  16.460 -0.6721  1.1573 -0.2000
12788TIP3   OH259854   2.020   5.704   0.590 -0.8642 -0.3513 -0.0271
12788TIP3    H159855   1.961   5.777   0.575 -0.1503  0.5211  1.2277
12788TIP3    H259856   1.965   5.637   0.631 -1.9288 -1.2789 -2.7237
12789TIP3   OH259857   5.512   2.884  13.510  0.5273  0.2012  0.5969
12789TIP3    H159858   5.592   2.834  13.526 -0.5611 -0.9210  3.0255
12789TIP3    H259859   5.518   2.958  13.571  0.0342  0.4651  0.3308
12790TIP3   OH259860   1.199   2.481   0.213  0.9550  0.4521  0.0340
12790TIP3    H159861   1.171   2.537   0.286  0.2268  0.6960 -0.4195
12790TIP3    H259862   1.209   2.542   0.140  0.6918  0.0654 -0.3252
12791TIP3   OH259863   6.140   2.937  15.947  0.1101  0.2700 -0.0017
12791TIP3    H159864   6.138   3.032  15.939 -1.2466  0.2921  0.3069
12791TIP3    H259865   6.125   2.905  15.858 -0.6930  0.3713  0.0890
12792TIP3   OH259866   4.225   5.660   4.869 -0.6650 -0.4409  0.2133
12792TIP3    H159867   4.203   5.690   4.781 -1.2671 -0.5955  0.3086
12792TIP3    H259868   4.290   5.592   4.856  1.2097  1.2819  0.0122
12793TIP3   OH259869   3.092   2.094   0.117  0.2743 -0.0701 -0.0770
12793TIP3    H159870   3.070   2.044   0.038  1.5238 -0.0656 -0.4617
12793TIP3    H259871   3.158   2.040   0.161 -0.0444  0.1722  0.7068
12794TIP3   OH259872   1.570   3.433  13.262  0.3572  0.7095  0.0592
12794TIP3    H159873   1.635   3.408  13.196  0.0245  0.3681 -0.1419
12794TIP3    H259874   1.591   3.378  13.337 -0.1942  0.0266 -0.2825
12795TIP3   OH259875   3.387   2.878   5.804 -0.1963  0.0041 -0.3296
12795TIP3    H159876   3.356   2.963   5.773  0.4745  0.8003  1.0496
12795TIP3    H259877   3.482   2.888   5.812 -0.1541 -0.7141  0.2770
12796TIP3   OH259878   5.813   2.440  14.667 -0.0865 -0.0535 -0.1345
12796TIP3    H159879   5.790   2.527  14.701 -0.2582  0.0514 -0.5205
12796TIP3    H259880   5.791   2.381  14.739 -1.8320  0.0069 -0.5754
12797TIP3   OH259881   3.734   5.152  15.854 -0.0297  0.0658 -0.3793
12797TIP3    H159882   3.744   5.103  15.936 -1.2183 -0.0615 -0.2907
12797TIP3    H259883   3.803   5.118  15.797  0.7396  0.0795  0.5284
12798TIP3   OH259884   6.363   4.919   1.065  0.3018 -0.5016 -0.3818
12798TIP3    H159885   6.289   4.968   1.029 -0.0326 -2.3796 -2.4785
12798TIP3    H259886   6.415   4.896   0.988  0.8862 -2.6780  0.6115
12799TIP3   OH259887   5.728   3.988  10.882 -0.8699  0.0439  0.1434
12799TIP3    H159888   5.635   3.984  10.861 -0.3696 -1.0494 -2.2663
12799TIP3    H259889   5.768   3.919  10.828  1.4153  0.8956  0.6057
12800TIP3   OH259890   2.126   6.133   4.331  0.0382  0.4823  0.1825
12800TIP3    H159891   2.044   6.129   4.382 -0.3398  0.0677 -0.4399
12800TIP3    H259892   2.097   6.131   4.240  0.7861 -1.4505 -0.0746
12801TIP3   OH259893   5.272   1.061   3.548 -0.6855  1.1067  0.0983
12801TIP3    H159894   5.242   1.151   3.535 -1.9440  0.5752 -0.9683
12801TIP3    H259895   5.328   1.043   3.472 -2.1551  0.3458 -0.8653
12802TIP3   OH259896   5.974   5.489   3.459 -0.6053 -0.0887 -0.0574
12802TIP3    H159897   5.920   5.441   3.522  0.5969  0.2669  1.2836
12802TIP3    H259898   5.952   5.581   3.473 -3.0599 -0.1173 -2.7681
12803TIP3   OH259899   1.632   3.143  13.881 -0.2169 -0.2858 -0.2045
12803TIP3    H159900   1.672   3.120  13.966  0.2986  0.8203 -0.1286
12803TIP3    H259901   1.539   3.125  13.893 -0.3087  0.7977  0.9628
12804TIP3   OH259902   4.707   0.716   3.755 -0.0961  0.3348  0.2482
12804TIP3    H159903   4.676   0.670   3.676  1.6176  0.9783 -0.8374
12804TIP3    H259904   4.779   0.662   3.787 -1.2165 -0.2997  1.8473
12805TIP3   OH259905   4.544   2.446   6.150  0.2255 -0.3308 -0.1138
12805TIP3    H159906   4.478   2.391   6.192  0.0920  0.1744  0.3485
12805TIP3    H259907   4.545   2.527   6.201  2.0217 -0.7648  0.6054
12806TIP3   OH259908   5.287   0.362  12.106 -0.0689  0.3079 -0.9067
12806TIP3    H159909   5.227   0.288  12.096 -2.5489  1.7734  1.6711
12806TIP3    H259910   5.324   0.375  12.019 -1.0269 -2.6859 -1.8809
12807TIP3   OH259911   0.493   0.383  13.559  0.1525  0.3746 -0.1025
12807TIP3    H159912   0.585   0.379  13.585 -0.3988  0.5812  2.0637
12807TIP3    H259913   0.492   0.444  13.485  1.7602  0.2152 -0.2950
12808TIP3   OH259914   0.343   6.640  13.381  0.4345 -0.2807 -0.2814
12808TIP3    H159915   0.395   6.578  13.432 -0.6724 -1.8724 -0.9871
12808TIP3    H259916   0.399   6.664  13.307  1.5956  1.1246  0.9837
12809TIP3   OH259917   1.286   6.460   4.728  0.2446 -0.1467 -0.3713
12809TIP3    H159918   1.368   6.412   4.715  0.7646  0.4191  0.6835
12809TIP3    H259919   1.217   6.400   4.701  0.7344 -2.2095  2.5363
12810TIP3   OH259920   3.111   4.620   2.281 -0.3040  0.0961  0.0560
12810TIP3    H159921   3.161   4.538   2.284  0.3333  0.4909  0.3719
12810TIP3    H259922   3.112   4.644   2.188  0.4226  0.2929  0.1051
12811TIP3   OH259923   0.918   0.924  12.187 -0.2958  0.1534 -0.3031
12811TIP3    H159924   0.981   0.984  12.227  0.6403 -0.9108 -0.1290
12811TIP3    H259925   0.872   0.885  12.261 -0.3640  0.0800 -0.3843
12812TIP3   OH259926   6.700   2.621  15.177  0.2484 -0.3017 -0.5800
12812TIP3    H159927   6.751   2.587  15.104 -1.7405 -0.4275 -1.9947
12812TIP3    H259928   6.746   2.591  15.255  3.5155  1.4175 -1.6755
12813TIP3   OH259929   3.939   4.153  12.701  0.4175  0.5711  0.5136
12813TIP3    H159930   3.984   4.069  12.690  2.3133  1.4016  1.5208
12813TIP3    H259931   3.899   4.148  12.788 -0.2023  0.4195  0.2305
12814TIP3   OH259932   1.969   4.477   0.298  0.2195 -0.2958  0.0832
12814TIP3    H159933   2.060   4.452   0.314 -0.5820 -2.3588  1.9089
12814TIP3    H259934   1.945   4.428   0.219  0.5149 -0.1683 -0.0893
12815TIP3   OH259935   1.461   0.710   1.932 -0.5566 -0.3428 -0.4855
12815TIP3    H159936   1.463   0.736   2.025  1.2535  0.0212 -0.5916
12815TIP3    H259937   1.382   0.657   1.924 -1.3323  0.5126  1.0246
12816TIP3   OH259938   1.218   2.546   3.664 -0.1246  0.0378  0.5791
12816TIP3    H159939   1.225   2.451   3.655  1.0162  0.1438  0.1824
12816TIP3    H259940   1.128   2.566   3.640 -0.4338 -0.9619  0.8560
12817TIP3   OH259941   3.094   1.281   0.941 -0.0036 -0.0089  0.4100
12817TIP3    H159942   3.127   1.204   0.987  2.2930  1.0025  0.5584
12817TIP3    H259943   3.008   1.253   0.908  0.5712 -2.5013  0.7747
12818TIP3   OH259944   0.717   0.209   0.089  0.4523 -0.6593 -0.0043
12818TIP3    H159945   0.663   0.288   0.080 -1.1991 -1.6145  0.9507
12818TIP3    H259946   0.807   0.241   0.088 -0.0823  0.9679 -1.9927
12819TIP3   OH259947   1.937   6.356  14.204  0.0650 -0.2826 -0.1504
12819TIP3    H159948   2.003   6.424  14.196 -0.1494 -0.0713 -0.1275
12819TIP3    H259949   1.873   6.376  14.135  0.1031 -0.5700 -0.2689
12820TIP3   OH259950   4.185   1.732  12.950 -0.2987  0.2116 -0.5914
12820TIP3    H159951   4.214   1.641  12.949 -1.3149 -0.1255 -0.5999
12820TIP3    H259952   4.122   1.737  13.023  0.8986  1.2876  0.4159
12821TIP3   OH259953   3.361   4.295  16.455  0.6181 -0.0274  0.6997
12821TIP3    H159954   3.277   4.336  16.432  0.0705 -0.7198  1.3970
12821TIP3    H259955   3.373   4.316  16.547  1.0765 -0.1753  0.6739
12822TIP3   OH259956   5.770   1.617  12.883 -0.3343  0.0539  0.1331
12822TIP3    H159957   5.862   1.625  12.859 -0.3665 -0.5819 -0.2566
12822TIP3    H259958   5.754   1.522  12.881 -0.7449  0.0870  1.1791
12823TIP3   OH259959   6.572   5.546   5.803 -0.2490  0.5500 -0.6852
12823TIP3    H159960   6.583   5.534   5.709 -0.3435  1.9992 -0.9100
12823TIP3    H259961   6.494   5.496   5.826  1.0104 -1.6540 -0.9302
12824TIP3   OH259962   1.757   6.501   6.378  0.1921 -0.4148  0.2029
12824TIP3    H159963   1.840   6.537   6.409  0.4942 -1.8718  1.1699
12824TIP3    H259964   1.692   6.535   6.439  0.1087  0.3828 -0.3064
12825TIP3   OH259965   4.124   0.448   2.523 -0.7524 -0.3283 -0.1801
12825TIP3    H159966   4.047   0.397   2.497 -0.3792  0.3932 -3.0903
12825TIP3    H259967   4.137   0.428   2.616 -2.6450 -2.7718 -0.3598
12826TIP3   OH259968   1.847   1.297  12.510  0.3837  0.4850 -0.8371
12826TIP3    H159969   1.859   1.341  12.426  1.2761  0.3909 -0.7689
12826TIP3    H259970   1.752   1.302  12.527 -0.0054 -0.6624 -2.4689
12827TIP3   OH259971   6.752   6.242  12.746  0.0777  0.0418  0.0737
12827TIP3    H159972   6.778   6.260  12.655 -0.8361  3.2718  0.3431
12827TIP3    H259973   6.657   6.247  12.745 -0.0553 -1.5979  0.9536
12828TIP3   OH259974   2.083   5.047   3.643 -0.4503 -0.3703 -0.2695
12828TIP3    H159975   2.091   5.002   3.559 -2.6288  0.4525 -0.9869
12828TIP3    H259976   2.038   4.986   3.700  0.6933 -0.7835  0.2306
12829TIP3   OH259977   1.939   6.125  15.533  0.2147  0.0170  0.7359
12829TIP3    H159978   2.020   6.146  15.485 -0.1851 -0.6987 -0.3031
12829TIP3    H259979   1.939   6.185  15.607  0.7464  1.3712 -0.3058
12830TIP3   OH259980   0.783   3.778   0.708  0.1695 -0.7609 -0.0052
12830TIP3    H159981   0.875   3.787   0.685  0.0007  0.0338 -0.4050
12830TIP3    H259982   0.782   3.779   0.803  0.4654  0.5370 -0.0002
12831TIP3   OH259983   1.021   4.740  11.628  0.4707 -0.0348  0.3164
12831TIP3    H159984   0.992   4.810  11.570 -0.8236 -0.1728  0.7616
12831TIP3    H259985   0.977   4.661  11.596  1.3756 -0.5281  0.2355
12832TIP3   OH259986   0.442   3.583   5.988 -0.0372  0.0856  0.0452
12832TIP3    H159987   0.443   3.583   6.083 -1.4472 -0.3374  0.0905
12832TIP3    H259988   0.389   3.506   5.964  0.4915  0.0415 -1.0876
12833TIP3   OH259989   1.705   0.955  13.605 -0.1802  0.2477  0.1266
12833TIP3    H159990   1.757   1.027  13.642 -1.2076  1.1453 -0.1268
12833TIP3    H259991   1.615   0.988  13.603 -0.6555 -0.9875 -0.1644
12834TIP3   OH259992   0.059   5.965   1.700  0.2848  0.2119 -0.0497
12834TIP3    H159993  -0.020   6.000   1.742  1.9700  2.0382  1.8495
12834TIP3    H259994   0.043   5.977   1.606 -2.5232 -1.4950  0.0924
12835TIP3   OH259995   1.210   6.589   5.045 -0.3223  0.1983  0.1744
12835TIP3    H159996   1.148   6.639   4.992 -0.5938 -0.1962  0.1096
12835TIP3    H259997   1.177   6.499   5.041 -1.0697  0.3308  1.9930
12836TIP3   OH259998   5.483   1.716  16.888  0.5609  0.3422  0.2134
12836TIP3    H159999   5.447   1.785  16.833 -0.3516 -0.0587  0.2938
12836TIP3    H260000   5.577   1.716  16.868  0.2777  0.2987 -1.2344
12837TIP3   OH260001   0.985   4.129   4.430  0.0153  0.4338  0.1088
12837TIP3    H160002   0.975   4.208   4.377 -0.0176  1.1680  1.1638
12837TIP3    H260003   0.910   4.074   4.406 -0.4143  1.0775 -0.0564
12838TIP3   OH260004   2.084   6.387   1.067  0.6895  0.2649  0.0976
12838TIP3    H160005   2.012   6.428   1.019  1.7877  1.5175 -0.5292
12838TIP3    H260006   2.163   6.416   1.022  1.6535 -0.2945  1.3644
12839TIP3   OH260007   6.537   4.173   5.409 -0.2179  0.0575  0.4308
12839TIP3    H160008   6.550   4.105   5.475  0.0515  0.3847  0.7170
12839TIP3    H260009   6.442   4.187   5.407 -0.2159  0.1203  0.8236
12840TIP3   OH260010   0.889   2.547  13.561 -0.0052  0.1160  0.3749
12840TIP3    H160011   0.862   2.635  13.585 -0.0630  0.0253  0.6445
12840TIP3    H260012   0.808   2.496  13.559 -0.6111  0.9092 -3.6413
12841TIP3   OH260013   3.332   5.428   5.987  0.1634 -0.3456  0.5317
12841TIP3    H160014   3.270   5.355   5.980  1.1411 -1.0960 -0.6600
12841TIP3    H260015   3.356   5.448   5.896 -0.5201  1.8837  0.7676
12842TIP3   OH260016   1.068   5.806   5.850  0.0410  0.1005 -0.4756
12842TIP3    H160017   1.056   5.760   5.933 -0.1316  0.5828 -0.2300
12842TIP3    H260018   1.126   5.749   5.800 -1.0445 -0.9228 -0.6106
12843TIP3   OH260019   4.009   1.349   4.946 -0.3341  0.4212 -0.0387
12843TIP3    H160020   4.075   1.281   4.948 -1.1009 -0.4124 -1.4151
12843TIP3    H260021   4.058   1.431   4.954  0.6550 -0.2374  0.9713
12844TIP3   OH260022   3.152   1.268  14.979  0.1657  0.1778  0.1872
12844TIP3    H160023   3.167   1.204  14.909  2.7204  0.9098  0.0003
12844TIP3    H260024   3.057   1.284  14.976  0.1631  0.2664 -3.1936
12845TIP3   OH260025   1.563   2.849  16.940 -0.3023 -0.4573 -0.0563
12845TIP3    H160026   1.513   2.922  16.904  0.1958 -0.2089 -0.2434
12845TIP3    H260027   1.549   2.854  17.035  0.4803  0.4341  0.0163
12846TIP3   OH260028   1.830   0.090  12.461 -0.2659  0.3321 -0.0944
12846TIP3    H160029   1.807  -0.003  12.464 -0.7493  0.4659  1.9268
12846TIP3    H260030   1.925   0.091  12.473 -0.3528  0.1067  0.6892
12847TIP3   OH260031   6.102   2.763  16.839  0.5995 -0.0583 -0.1502
12847TIP3    H160032   6.149   2.836  16.798  0.7638 -0.5555 -0.8707
12847TIP3    H260033   6.111   2.779  16.933 -0.7073  1.6992 -0.2729
12848TIP3   OH260034   5.962   3.763   5.800 -0.7874 -0.6845 -0.3927
12848TIP3    H160035   5.982   3.740   5.891 -0.9834 -2.4253 -0.7541
12848TIP3    H260036   6.037   3.815   5.772  0.7892 -2.6491 -0.1100
12849TIP3   OH260037   3.672   3.627   4.877 -1.0502  0.1911  0.7461
12849TIP3    H160038   3.765   3.647   4.864 -1.2769 -0.1155 -1.7087
12849TIP3    H260039   3.638   3.608   4.790 -2.7602 -2.6983  1.8984
12850TIP3   OH260040   6.667   6.769   3.737 -0.1920 -0.2804  0.0331
12850TIP3    H160041   6.754   6.808   3.732  0.9696 -2.4637  1.5921
12850TIP3    H260042   6.635   6.769   3.646  1.7628 -0.1555 -0.6917
12851TIP3   OH260043   1.584   6.658  11.188 -0.1580  0.7023  0.3385
12851TIP3    H160044   1.653   6.604  11.149 -0.4817 -0.4574  1.3214
12851TIP3    H260045   1.571   6.729  11.125  0.6471 -0.0652 -0.7385
12852TIP3   OH260046   2.171   2.573  16.720  0.2777 -0.0077  0.2523
12852TIP3    H160047   2.096   2.633  16.722  0.7091  0.5268  0.5235
12852TIP3    H260048   2.232   2.608  16.784  0.0766 -1.3669  1.2113
12853TIP3   OH260049   0.729   6.673  13.166  0.1881  0.3125  0.3091
12853TIP3    H160050   0.685   6.734  13.225 -1.0488 -0.0618 -0.2127
12853TIP3    H260051   0.659   6.617  13.131  1.2966 -1.5575  0.9290
12854TIP3   OH260052   4.305   0.987  11.912 -0.1803  0.1006  0.2888
12854TIP3    H160053   4.223   0.938  11.918 -0.1427 -0.0007 -0.0008
12854TIP3    H260054   4.280   1.077  11.935 -0.9594  0.6723 -2.4447
12855TIP3   OH260055   3.526   0.619  16.168 -0.2989  0.0465  0.2053
12855TIP3    H160056   3.441   0.581  16.191 -0.2741 -0.3671 -0.3553
12855TIP3    H260057   3.577   0.615  16.248 -0.6185 -0.2363  0.3994
12856TIP3   OH260058   5.684   6.498   1.933 -0.6204  0.7745  0.1950
12856TIP3    H160059   5.684   6.578   1.986  0.5184  2.0326 -1.5886
12856TIP3    H260060   5.625   6.517   1.860 -1.5238 -0.6131  0.5357
12857TIP3   OH260061   3.209   0.159  15.391 -0.1895  0.2327 -0.1177
12857TIP3    H160062   3.157   0.240  15.394 -0.1953  0.2335 -0.2434
12857TIP3    H260063   3.205   0.132  15.300  0.7991  0.7321 -0.3153
12858TIP3   OH260064   4.262   2.667   2.677 -0.0178 -0.2431  0.2868
12858TIP3    H160065   4.319   2.743   2.688  0.8583 -1.0971  1.9341
12858TIP3    H260066   4.275   2.641   2.585  1.2236  0.3737  0.2694
12859TIP3   OH260067   0.592   1.699   4.426 -0.7313  0.4258  0.4519
12859TIP3    H160068   0.619   1.669   4.339 -0.4451  2.2634 -0.1320
12859TIP3    H260069   0.592   1.619   4.479  3.3679 -0.1993 -0.1391
12860TIP3   OH260070   3.512   2.323  14.090  0.2015  0.2053 -0.0696
12860TIP3    H160071   3.478   2.370  14.167 -0.9588  0.6409 -0.8319
12860TIP3    H260072   3.598   2.361  14.075 -0.4269  1.6049 -0.2364
12861TIP3   OH260073   2.840   4.095  13.927  0.1448 -0.4075  0.6439
12861TIP3    H160074   2.750   4.068  13.946  0.0945 -0.7850 -0.0872
12861TIP3    H260075   2.832   4.185  13.896 -0.4642 -1.4828 -2.8226
12862TIP3   OH260076   5.921   2.137   4.993  0.2340  0.0458  0.5285
12862TIP3    H160077   5.931   2.137   5.088 -2.4268 -1.0104  0.8802
12862TIP3    H260078   5.856   2.204   4.974 -1.6979 -1.8891 -0.1380
12863TIP3   OH260079   1.713   6.222  16.898  0.2803  0.0235  0.0122
12863TIP3    H160080   1.761   6.242  16.818  0.6883 -0.2660  0.1829
12863TIP3    H260081   1.623   6.250  16.879  0.1687 -0.8698 -0.8706
12864TIP3   OH260082   5.708   6.454  15.542  0.0946  0.2079  0.2928
12864TIP3    H160083   5.646   6.514  15.582  1.4513  1.4504  0.5952
12864TIP3    H260084   5.783   6.452  15.602  0.6497 -0.7252 -0.3912
12865TIP3   OH260085   5.214   3.490  11.615  0.5180 -0.0066  0.0561
12865TIP3    H160086   5.298   3.525  11.584  1.5322 -1.5331  0.9079
12865TIP3    H260087   5.228   3.473  11.708 -0.2070 -1.6796 -0.1003
12866TIP3   OH260088   4.513   5.211  14.276  0.0857  0.0461 -0.0196
12866TIP3    H160089   4.591   5.167  14.243  0.2419 -0.0793  0.5031
12866TIP3    H260090   4.526   5.303  14.255  0.6875  0.1233  0.6500
12867TIP3   OH260091   1.030   5.229   2.761  0.1511 -0.3710  0.6184
12867TIP3    H160092   0.956   5.169   2.748 -0.0718  0.3089 -1.6823
12867TIP3    H260093   1.107   5.176   2.741  0.1248 -0.4866  0.8185
12868TIP3   OH260094   3.570   5.768  15.309  0.5172 -0.1278  0.2759
12868TIP3    H160095   3.527   5.830  15.368 -0.7725 -1.2151  0.5186
12868TIP3    H260096   3.649   5.741  15.356  0.7912  0.8514  0.4151
12869TIP3   OH260097   1.214   5.385  14.622 -0.3581 -0.2874  0.1360
12869TIP3    H160098   1.272   5.457  14.647  0.9223 -1.5326  0.8465
12869TIP3    H260099   1.219   5.383  14.526 -1.8260  1.6641 -0.0590
12870TIP3   OH260100   1.156   1.196   0.189 -0.5216  0.1192  0.4819
12870TIP3    H160101   1.222   1.127   0.191 -0.2179  0.3873  2.7343
12870TIP3    H260102   1.133   1.210   0.281 -0.6335  2.9451  0.1383
12871TIP3   OH260103   3.250   2.734   0.925 -0.1604 -0.2199 -0.3625
12871TIP3    H160104   3.293   2.648   0.928 -1.9658 -1.1436  0.2832
12871TIP3    H260105   3.252   2.758   0.833  2.3188  0.1315 -0.2991
12872TIP3   OH260106   5.902   6.377   4.774  0.1809  0.0493  0.1457
12872TIP3    H160107   5.997   6.378   4.759  0.4740  0.7429  1.8670
12872TIP3    H260108   5.892   6.387   4.868 -1.6276  1.1299 -0.1141
12873TIP3   OH260109   3.698   3.276  15.116 -0.2412  0.4227  0.3067
12873TIP3    H160110   3.654   3.253  15.034  1.7902  0.6959 -0.9533
12873TIP3    H260111   3.675   3.206  15.177  0.0529 -1.0676 -1.2346
12874TIP3   OH260112   2.727   3.381   5.040 -0.0856  0.7151 -0.0071
12874TIP3    H160113   2.741   3.457   5.096 -0.5379  0.2013  0.8145
12874TIP3    H260114   2.792   3.317   5.070 -0.3963  0.4016 -0.0058
12875TIP3   OH260115   6.091   4.156   1.394 -0.1329  0.5002 -0.2380
12875TIP3    H160116   6.027   4.087   1.377 -0.4414 -0.0756  2.7084
12875TIP3    H260117   6.176   4.112   1.394 -0.0468  0.6570 -1.0115
12876TIP3   OH260118   4.310   2.399   4.301  0.1279  0.3672  0.2109
12876TIP3    H160119   4.384   2.339   4.307  0.0693  0.0298 -1.8819
12876TIP3    H260120   4.251   2.360   4.237 -1.3269  1.2116  0.9698
12877TIP3   OH260121   5.695   1.364   3.169  0.2016  0.0551 -0.3506
12877TIP3    H160122   5.751   1.429   3.211 -1.4073  1.6258 -0.4760
12877TIP3    H260123   5.692   1.291   3.230  1.2457  0.5388  0.2948
12878TIP3   OH260124   0.742   1.153   4.854 -0.1677  0.0049 -0.1225
12878TIP3    H160125   0.744   1.221   4.921  0.0717  1.4383 -1.5207
12878TIP3    H260126   0.819   1.171   4.800 -0.3597 -1.1088 -0.7791
12879TIP3   OH260127   0.783   2.117  16.339 -0.0456 -0.7454  0.6211
12879TIP3    H160128   0.768   2.170  16.260 -0.0076  0.9609  1.6894
12879TIP3    H260129   0.757   2.029  16.314  0.5697 -0.3907 -1.4811
12880TIP3   OH260130   3.624   2.342  14.640  0.1160 -0.4472  0.6155
12880TIP3    H160131   3.594   2.398  14.712 -1.2418  0.7375 -0.7887
12880TIP3    H260132   3.544   2.304  14.604  0.6483 -0.2910 -0.8125
12881TIP3   OH260133   3.648   6.262   3.483  0.0144  0.2991  0.4798
12881TIP3    H160134   3.715   6.297   3.424 -1.0689  2.4433  0.4266
12881TIP3    H260135   3.659   6.313   3.564  1.8684 -2.9584  2.5252
12882TIP3   OH260136   0.258   5.160   2.241  0.0162  0.6501 -0.1733
12882TIP3    H160137   0.348   5.143   2.213 -0.4922  0.3802 -1.7339
12882TIP3    H260138   0.248   5.109   2.321  1.4825  1.3222  0.4754
12883TIP3   OH260139   2.926   6.144  11.163 -0.6081  0.1367 -0.8562
12883TIP3    H160140   2.937   6.211  11.095  0.8217  0.2774 -0.5104
12883TIP3    H260141   2.896   6.193  11.240  2.8680  0.8956  0.1815
12884TIP3   OH260142   3.369   5.179  14.688  0.3276 -0.4050 -0.1833
12884TIP3    H160143   3.453   5.133  14.699  2.1689  2.5359 -0.8387
12884TIP3    H260144   3.386   5.243  14.619 -2.0307  1.3113  0.7137
12885TIP3   OH260145   1.247   2.241   4.971  0.5411  0.3177 -0.2884
12885TIP3    H160146   1.197   2.233   4.890 -2.5352  0.3192  1.4802
12885TIP3    H260147   1.243   2.154   5.010  1.7756  0.3877  0.0456
12886TIP3   OH260148   4.369   3.330  13.540  0.0202  0.2962  0.0919
12886TIP3    H160149   4.320   3.255  13.506 -0.2433  0.4129  0.2127
12886TIP3    H260150   4.335   3.343  13.628 -2.7961  2.9491 -1.1822
12887TIP3   OH260151   3.598   3.600  15.701 -0.3317  0.1964 -0.7283
12887TIP3    H160152   3.645   3.663  15.646  0.4027  1.2346  1.0249
12887TIP3    H260153   3.655   3.522  15.700  0.9273  1.0540  0.4730
12888TIP3   OH260154   4.204   4.933   3.504 -0.3270 -0.0700 -0.0479
12888TIP3    H160155   4.184   4.840   3.514 -1.1184 -0.2228 -2.3907
12888TIP3    H260156   4.153   4.976   3.573  0.8291 -1.4026  1.7214
12889TIP3   OH260157   5.812   5.227   3.444 -0.6073 -0.3406 -0.0281
12889TIP3    H160158   5.819   5.312   3.402 -1.1472  0.3491  1.2351
12889TIP3    H260159   5.787   5.167   3.373 -2.3250  0.9244 -0.5487
12890TIP3   OH260160   3.694   0.564  16.413  0.1536  0.7745 -0.3086
12890TIP3    H160161   3.771   0.577  16.358  1.6493  0.2763  1.5302
12890TIP3    H260162   3.676   0.470  16.408  1.1308  0.4876  1.0197
12891TIP3   OH260163   4.222   4.128  13.286  0.4752  0.2908  0.3287
12891TIP3    H160164   4.296   4.182  13.314  1.5126  0.2638 -2.1719
12891TIP3    H260165   4.145   4.177  13.316  1.4352  1.4618  1.0070
12892TIP3   OH260166   3.213   4.329   1.302 -0.6878  0.3345 -0.2341
12892TIP3    H160167   3.146   4.394   1.282 -1.6741 -0.6592 -0.2723
12892TIP3    H260168   3.289   4.356   1.250 -1.4979  0.7166 -1.2638
12893TIP3   OH260169   2.782   4.311   5.587 -0.1793 -0.3456  0.4158
12893TIP3    H160170   2.870   4.300   5.623 -0.2834 -2.1331  0.2257
12893TIP3    H260171   2.773   4.406   5.574  2.0279 -0.1869 -0.3474
12894TIP3   OH260172   4.463   6.163  11.139  0.0073  0.2907 -0.3134
12894TIP3    H160173   4.487   6.071  11.152  0.6277  0.6426  1.3650
12894TIP3    H260174   4.546   6.211  11.142 -0.3758  0.9734 -0.3259
12895TIP3   OH260175   2.341   5.348   4.492 -0.1829 -0.6505 -0.0924
12895TIP3    H160176   2.319   5.266   4.537  1.0723 -1.4597 -0.8835
12895TIP3    H260177   2.314   5.333   4.401  3.3669 -1.7165 -1.1382
12896TIP3   OH260178   6.728   0.386  13.641 -0.0129  1.0908  0.5265
12896TIP3    H160179   6.707   0.314  13.701  2.5713 -0.0381  0.1963
12896TIP3    H260180   6.710   0.465  13.691  0.8016  0.1777  2.3494
12897TIP3   OH260181   1.299   3.132  11.760  0.1299 -0.3294 -0.2687
12897TIP3    H160182   1.341   3.206  11.715  1.1485 -0.6567  0.1028
12897TIP3    H260183   1.367   3.098  11.818 -1.1568  0.1002  1.5692
12898TIP3   OH260184   2.439   6.281   2.681  0.6045 -0.3737  0.4757
12898TIP3    H160185   2.475   6.221   2.747  1.7420  1.1699  1.2961
12898TIP3    H260186   2.494   6.267   2.603 -0.3003 -1.6859  0.0261
12899TIP3   OH260187   4.992   0.330  14.971  0.4371  0.0321  0.0958
12899TIP3    H160188   5.028   0.242  14.959 -0.2237 -0.1972 -0.2807
12899TIP3    H260189   4.992   0.368  14.883  0.7601  0.4280  0.2637
12900TIP3   OH260190   2.456   4.566   0.067  0.1732 -0.4294  0.1126
12900TIP3    H160191   2.427   4.586   0.156  0.5168  0.5358  0.0114
12900TIP3    H260192   2.544   4.531   0.077  1.1232  1.7524  0.0214
12901TIP3   OH260193   1.234   0.712   0.182 -0.7912 -0.2922 -0.3416
12901TIP3    H160194   1.302   0.644   0.180 -1.0784 -0.5813 -2.7655
12901TIP3    H260195   1.153   0.663   0.197 -0.8279 -0.2935 -0.5530
12902TIP3   OH260196   3.693   4.134  15.083 -0.5507  0.4521  0.1664
12902TIP3    H160197   3.672   4.055  15.032 -0.2157  0.6203 -0.2352
12902TIP3    H260198   3.731   4.100  15.164  0.0020  0.2086 -0.1903
12903TIP3   OH260199   4.775   4.825   2.285  0.1552 -0.2302  0.7175
12903TIP3    H160200   4.714   4.898   2.276  0.2979 -0.2502 -0.6676
12903TIP3    H260201   4.744   4.778   2.363 -1.8636 -0.4675 -0.1577
12904TIP3   OH260202   4.127   1.652  16.043 -0.4058  0.3056  0.2466
12904TIP3    H160203   4.176   1.595  15.985  0.9279  0.8266  0.8228
12904TIP3    H260204   4.102   1.727  15.988 -0.7164 -0.0342 -0.0852
12905TIP3   OH260205   0.368   4.195  11.801  0.5557 -0.0005  0.0895
12905TIP3    H160206   0.452   4.233  11.826  0.4278  0.8691 -0.7470
12905TIP3    H260207   0.390   4.127  11.737  0.5736  0.8479 -0.8242
12906TIP3   OH260208   3.581   2.825  11.964  0.2881  0.3429 -0.0387
12906TIP3    H160209   3.559   2.743  11.920 -0.9070 -0.3454  1.7504
12906TIP3    H260210   3.496   2.863  11.988  0.8507  1.7242 -0.1554
12907TIP3   OH260211   6.605   4.106   0.583 -0.1159 -0.3749  0.2817
12907TIP3    H160212   6.578   4.015   0.571 -0.0570 -0.1860 -1.5531
12907TIP3    H260213   6.701   4.103   0.583 -0.0930 -0.2008 -1.0583
12908TIP3   OH260214   1.265   3.219   3.368  0.4746 -0.3137 -0.2376
12908TIP3    H160215   1.233   3.220   3.278  1.1219  0.4012 -0.4714
12908TIP3    H260216   1.236   3.303   3.404  0.4034 -0.5068  0.1595
12909TIP3   OH260217   6.448   5.323   4.875 -0.0768 -0.0911  0.2087
12909TIP3    H160218   6.506   5.383   4.828  0.6600 -2.3097 -1.9495
12909TIP3    H260219   6.370   5.375   4.894  0.4388  1.5090 -1.7115
12910TIP3   OH260220   1.149   0.880   6.058 -0.1777 -0.0157 -0.2193
12910TIP3    H160221   1.189   0.795   6.039  3.8616  0.9472  2.4734
12910TIP3    H260222   1.166   0.933   5.980  1.0826 -0.5715 -0.3442
12911TIP3   OH260223   3.392   3.981  16.958  0.2946 -0.5717  0.3020
12911TIP3    H160224   3.298   3.962  16.956  0.5086 -1.6589 -0.4824
12911TIP3    H260225   3.398   4.076  16.956 -0.7742 -0.5098 -0.5123
12912TIP3   OH260226   1.975   3.457  13.016 -0.2072 -0.0437 -0.1998
12912TIP3    H160227   1.986   3.537  13.067 -0.5624 -0.0070 -0.1813
12912TIP3    H260228   2.065   3.429  12.996 -0.0339 -0.5449  1.1853
12913TIP3   OH260229   2.693   6.032  16.674 -0.6467 -0.0601  0.1035
12913TIP3    H160230   2.674   5.970  16.604 -3.1980  2.3629 -1.5597
12913TIP3    H260231   2.759   6.091  16.636 -2.4680  1.6206 -0.6432
12914TIP3   OH260232   5.106   2.327  15.377 -0.0717 -0.1504  0.0577
12914TIP3    H160233   5.197   2.356  15.381  0.1223 -0.8282  0.7076
12914TIP3    H260234   5.104   2.246  15.428 -1.1066  0.0285  0.3301
12915TIP3   OH260235   1.794   2.616  15.698 -0.6373  0.3780 -0.2575
12915TIP3    H160236   1.880   2.650  15.722 -0.0386 -0.7019 -0.7844
12915TIP3    H260237   1.739   2.693  15.687  0.0231  1.0417  0.9816
12916TIP3   OH260238   1.136   0.362  11.632  0.6064 -0.4247  0.4894
12916TIP3    H160239   1.230   0.380  11.637  1.0545 -2.5047  0.5827
12916TIP3    H260240   1.117   0.357  11.539  0.4527  0.5029  0.4591
12917TIP3   OH260241   6.407   0.129   0.587 -0.0084 -0.5227  0.0749
12917TIP3    H160242   6.358   0.127   0.505  0.6694  1.5978 -0.4353
12917TIP3    H260243   6.343   0.158   0.652 -0.3215 -1.3544  0.1549
12918TIP3   OH260244   6.745   4.719  12.896 -0.5349  0.3542 -0.0180
12918TIP3    H160245   6.818   4.672  12.856  1.3788  0.9136  2.6012
12918TIP3    H260246   6.674   4.709  12.833  0.6660 -3.3013 -1.0718
12919TIP3   OH260247   0.693   1.994   2.871  0.5751  0.2168 -0.1066
12919TIP3    H160248   0.737   2.079   2.859 -0.3536  0.6416 -0.6277
12919TIP3    H260249   0.605   2.017   2.900 -0.1707 -0.4795 -1.6849
12920TIP3   OH260250   3.394   4.886   0.570  0.2302 -0.3925 -0.0556
12920TIP3    H160251   3.470   4.843   0.532  0.9918  1.2991 -0.5410
12920TIP3    H260252   3.427   4.970   0.602 -0.9693 -0.5893  1.8442
12921TIP3   OH260253   3.305   4.209   1.544 -0.1566 -0.1932 -0.1299
12921TIP3    H160254   3.233   4.209   1.607 -0.6232  1.4810 -0.5976
12921TIP3    H260255   3.267   4.246   1.464  0.6253 -1.5437 -1.1591
12922TIP3   OH260256   5.861   2.518   6.597 -0.0384  0.0103 -0.0916
12922TIP3    H160257   5.900   2.461   6.531  0.6810  0.3582  0.0254
12922TIP3    H260258   5.768   2.494   6.597  0.1711 -0.8434 -0.3588
12923TIP3   OH260259   2.085   1.182  13.919  0.5487  0.3375  0.3568
12923TIP3    H160260   2.033   1.226  13.852 -1.0871  0.1614  1.4478
12923TIP3    H260261   2.064   1.089  13.909  1.0646  0.2082  0.4695
12924TIP3   OH260262   1.604   1.602  16.944  0.0164  0.0265 -0.0986
12924TIP3    H160263   1.691   1.638  16.959  1.1273 -2.0695 -1.0564
12924TIP3    H260264   1.591   1.609  16.850 -0.9209  0.4585  0.0562
12925TIP3   OH260265   4.963   1.641  14.741  0.1816 -0.2228  0.4096
12925TIP3    H160266   4.969   1.574  14.673  0.0854  2.0589 -1.9764
12925TIP3    H260267   5.048   1.639  14.784  0.8467 -0.6419 -0.8657
12926TIP3   OH260268   2.295   3.521  15.704  0.5536 -0.4436  0.2156
12926TIP3    H160269   2.349   3.580  15.755  0.7172 -0.8197  0.4790
12926TIP3    H260270   2.220   3.501  15.760  0.2024 -0.0248 -0.0984
12927TIP3   OH260271   2.149   5.618  11.807 -0.7124  0.2873 -0.0574
12927TIP3    H160272   2.176   5.709  11.822  0.2163  0.1296 -0.6643
12927TIP3    H260273   2.107   5.592  11.889  1.0804  0.5347  0.9970
12928TIP3   OH260274   0.248   5.943  16.156 -0.5501 -0.2250  0.6496
12928TIP3    H160275   0.220   6.006  16.224 -0.7930  0.1638  0.1947
12928TIP3    H260276   0.229   5.857  16.195 -0.4942 -0.0141  1.1602
12929TIP3   OH260277   0.697   2.893  16.971 -0.2739 -0.4075 -0.5459
12929TIP3    H160278   0.728   2.851  16.890  1.5611  1.8747 -1.1399
12929TIP3    H260279   0.652   2.971  16.941 -1.0186 -0.3714  0.6208
12930TIP3   OH260280   6.618   3.452   5.748 -0.1374 -0.5111  0.0649
12930TIP3    H160281   6.706   3.426   5.722  0.2276  0.1861  0.5779
12930TIP3    H260282   6.560   3.388   5.706  0.6796 -1.6883  0.7187
12931TIP3   OH260283   2.057   0.082  12.785  0.0559 -0.9423 -0.4209
12931TIP3    H160284   1.962   0.073  12.784 -0.0512  0.0206 -0.0528
12931TIP3    H260285   2.083   0.065  12.694 -0.8449  2.0681 -1.3552
12932TIP3   OH260286   2.355   4.293   2.450  0.2805  0.2199 -0.1530
12932TIP3    H160287   2.394   4.253   2.527 -0.4116  0.7561  0.4988
12932TIP3    H260288   2.411   4.266   2.377  1.3670  0.2943  0.6294
12933TIP3   OH260289   3.847   3.356  14.545 -0.6759 -0.5771 -0.4672
12933TIP3    H160290   3.842   3.409  14.625 -0.3092 -2.1207  0.6328
12933TIP3    H260291   3.939   3.362  14.519 -0.9669  0.5945 -1.2687
12934TIP3   OH260292   3.348   5.169   4.282 -0.4335 -0.2727 -0.0800
12934TIP3    H160293   3.397   5.158   4.363 -1.0796  1.6865  0.6427
12934TIP3    H260294   3.412   5.155   4.213  0.9865  1.2965  0.8242
12935TIP3   OH260295   5.973   1.238   3.042  0.7427 -0.1721 -1.1605
12935TIP3    H160296   5.906   1.255   2.976 -0.6367  1.8360  0.6029
12935TIP3    H260297   6.019   1.322   3.052  0.4633 -0.1962  0.8329
12936TIP3   OH260298   2.416   5.127  11.503 -0.5854 -0.1680  0.2859
12936TIP3    H160299   2.398   5.216  11.470 -1.6503 -0.8747 -1.1978
12936TIP3    H260300   2.354   5.072  11.455  1.6039 -2.0337 -0.5495
12937TIP3   OH260301   6.501   5.653  13.721 -0.5586  0.4790 -0.0184
12937TIP3    H160302   6.436   5.688  13.781  0.6791  0.8409  1.1453
12937TIP3    H260303   6.521   5.566  13.756 -1.8352 -0.4607 -1.5057
12938TIP3   OH260304   2.218   5.505  11.556  0.4906 -0.0810  0.1729
12938TIP3    H160305   2.210   5.514  11.651  1.0214 -0.8487  0.2956
12938TIP3    H260306   2.141   5.552  11.521  0.6006  0.7041  0.9459
12939TIP3   OH260307   2.136   1.434   2.695  0.2431 -0.4307  0.8138
12939TIP3    H160308   2.172   1.503   2.751  1.1916 -0.1267 -0.1217
12939TIP3    H260309   2.052   1.469   2.665  2.0728  1.8897 -2.2507
12940TIP3   OH260310   0.742   1.038   1.340 -0.3204  0.0188 -0.2557
12940TIP3    H160311   0.787   0.990   1.270  1.2912  1.4313 -0.2549
12940TIP3    H260312   0.708   0.969   1.398 -1.1603 -1.1636 -2.0726
12941TIP3   OH260313   0.743   4.532  11.748  0.0112 -0.2911  0.6119
12941TIP3    H160314   0.723   4.612  11.700 -1.9907 -1.0100  0.1373
12941TIP3    H260315   0.756   4.466  11.681 -0.2435 -0.7543  1.0076
12942TIP3   OH260316   0.264   1.057  11.856 -0.0613 -0.5167  0.1524
12942TIP3    H160317   0.180   1.084  11.893 -0.9051 -1.9159 -0.6982
12942TIP3    H260318   0.280   1.119  11.785 -0.6946 -0.6662 -0.1181
12943TIP3   OH260319   2.527   6.260   1.801  0.0075 -0.5421 -0.2366
12943TIP3    H160320   2.504   6.332   1.859  0.6064 -1.2454  0.8981
12943TIP3    H260321   2.535   6.300   1.715 -3.1428  0.1533 -0.3243
12944TIP3   OH260322   2.663   2.153  11.878 -0.2191 -0.1152 -0.2213
12944TIP3    H160323   2.640   2.192  11.962  0.6598 -0.4848  0.2111
12944TIP3    H260324   2.680   2.061  11.898  1.1311  0.0279 -0.5683
12945TIP3   OH260325   5.307   0.608   5.079 -0.1844 -0.5139  0.1474
12945TIP3    H160326   5.295   0.683   5.021  0.3933  0.9037  1.7767
12945TIP3    H260327   5.244   0.621   5.150  1.8021  0.0035  1.9261
12946TIP3   OH260328   3.423   4.245  16.929 -0.5077  0.6189 -0.4298
12946TIP3    H160329   3.425   4.285  17.016 -0.8906  1.3325 -0.7380
12946TIP3    H260330   3.513   4.251  16.897 -0.1834 -0.4336  0.2577
12947TIP3   OH260331   5.997   1.200   2.367  0.1104 -0.6412  0.2749
12947TIP3    H160332   5.942   1.186   2.444 -0.5427  0.6767  0.0717
12947TIP3    H260333   6.079   1.155   2.388 -0.4118 -1.1676  1.3015
12948TIP3   OH260334   4.438   2.921   2.573  0.1150  0.4575 -0.4129
12948TIP3    H160335   4.447   2.886   2.484 -0.0773 -1.2218  0.2086
12948TIP3    H260336   4.510   2.882   2.622 -1.2336 -0.6358  0.7686
12949TIP3   OH260337   5.233   1.164   0.064  0.0107  0.2439  0.0868
12949TIP3    H160338   5.312   1.127   0.104 -0.7397 -0.6655  0.7625
12949TIP3    H260339   5.265   1.208  -0.016  1.4073  1.3230  1.1854
12950TIP3   OH260340   3.720   1.995  13.127  0.1674 -0.3040 -0.1523
12950TIP3    H160341   3.805   2.033  13.104  0.4918 -0.4589  0.7872
12950TIP3    H260342   3.733   1.954  13.212 -0.5461 -1.3525 -0.5269
12951TIP3   OH260343   0.368   3.262   1.572  0.5066  0.0892 -0.3057
12951TIP3    H160344   0.352   3.336   1.631  0.8898 -1.4038  1.7626
12951TIP3    H260345   0.463   3.256   1.567  0.4762 -0.2845 -0.4285
12952TIP3   OH260346   3.735   1.324   6.086  0.1021  0.7432 -0.3690
12952TIP3    H160347   3.738   1.250   6.147  1.9378  0.3377 -0.8888
12952TIP3    H260348   3.645   1.324   6.052 -0.4075 -0.1694  0.9199
12953TIP3   OH260349   1.212   3.016   2.879 -0.2270 -0.2741  0.3801
12953TIP3    H160350   1.117   3.026   2.891 -0.2153 -1.2292  1.4964
12953TIP3    H260351   1.227   3.040   2.788 -1.4495  0.5115  0.3564
12954TIP3   OH260352   6.783   3.592   1.828 -0.4850  0.0044  0.1442
12954TIP3    H160353   6.862   3.599   1.881  0.2863  0.2107 -1.0015
12954TIP3    H260354   6.757   3.683   1.813  0.5676  0.0519 -1.6381
12955TIP3   OH260355   6.560   2.647  14.297  0.3324 -0.1625 -0.2366
12955TIP3    H160356   6.589   2.569  14.250  1.5890  0.3203 -0.2977
12955TIP3    H260357   6.639   2.678  14.341 -0.3040  0.7205  0.2895
12956TIP3   OH260358   3.883   3.714   2.706  0.0137 -0.2544 -0.3803
12956TIP3    H160359   3.805   3.659   2.705 -0.4341  0.3757 -0.5510
12956TIP3    H260360   3.868   3.778   2.635  1.7098 -1.5550 -2.0099
12957TIP3   OH260361   2.761   1.368  11.561  0.5057 -0.7089  0.3691
12957TIP3    H160362   2.719   1.454  11.563 -3.5278 -2.3908 -0.7835
12957TIP3    H260363   2.804   1.363  11.476 -0.3415 -0.2607 -0.0922
12958TIP3   OH260364   0.224   6.039   2.407  0.4405 -0.0938 -0.0616
12958TIP3    H160365   0.301   5.985   2.387 -0.1659 -1.0562  0.1391
12958TIP3    H260366   0.207   6.087   2.326  0.3864 -0.9789 -0.5966
12959TIP3   OH260367   4.762   4.298   1.887 -0.1803  0.1124 -0.0969
12959TIP3    H160368   4.674   4.328   1.909 -0.2009 -0.1294  0.1592
12959TIP3    H260369   4.769   4.212   1.927 -0.7745 -1.0441 -2.3286
12960TIP3   OH260370   5.008   0.068   4.770  0.0475 -0.0603 -0.5513
12960TIP3    H160371   4.992   0.160   4.791  0.1910  0.0591 -0.9539
12960TIP3    H260372   5.103   0.059   4.769  0.0553 -0.7369  1.6886
12961TIP3   OH260373   2.880   5.982   1.117  0.3575 -0.6702 -0.4223
12961TIP3    H160374   2.804   5.926   1.134 -1.0166  0.3265 -2.7368
12961TIP3    H260375   2.847   6.071   1.130  1.0798 -0.2187 -1.4813
12962TIP3   OH260376   4.516   4.685   1.183  0.7371  0.0390 -0.1345
12962TIP3    H160377   4.603   4.690   1.144  0.2386 -0.1540 -1.3205
12962TIP3    H260378   4.456   4.705   1.110 -0.1850  0.8955  0.8226
12963TIP3   OH260379   4.106   5.612   0.096  0.0263  0.2858 -0.4722
12963TIP3    H160380   4.069   5.616   0.008 -0.0754 -0.8234 -0.4967
12963TIP3    H260381   4.080   5.694   0.137  0.3311  0.9519 -1.5694
12964TIP3   OH260382   6.426   3.891   3.538  0.0193  0.7132 -0.3085
12964TIP3    H160383   6.466   3.876   3.452  1.0786  1.3540  0.0541
12964TIP3    H260384   6.460   3.977   3.565 -2.9899  2.1926 -0.7708
12965TIP3   OH260385   1.038   1.885  11.154  0.0101  0.1037 -0.2434
12965TIP3    H160386   1.014   1.827  11.226  0.5283  1.1116  0.7782
12965TIP3    H260387   1.118   1.846  11.118  1.1573  0.8696  1.3382
12966TIP3   OH260388   3.316   4.722  16.373  0.2040 -0.7324 -0.4078
12966TIP3    H160389   3.398   4.691  16.411  0.1554  1.8286  2.0952
12966TIP3    H260390   3.342   4.768  16.293  1.2031 -0.1586  0.2362
12967TIP3   OH260391   6.725   1.402   4.267 -0.0846 -0.2244  0.3397
12967TIP3    H160392   6.657   1.339   4.244  0.1723  0.4728 -2.7027
12967TIP3    H260393   6.729   1.400   4.363 -0.8560 -3.9633  0.4155
12968TIP3   OH260394   1.811   6.483   5.621  0.3564 -0.5041 -0.4310
12968TIP3    H160395   1.795   6.575   5.643 -1.4031 -0.9560  0.3255
12968TIP3    H260396   1.726   6.450   5.591  0.7677 -2.0687  0.0174
12969TIP3   OH260397   1.931   0.119   1.088  0.3883  0.1915  0.0773
12969TIP3    H160398   1.948   0.213   1.084 -3.4607  1.0252  0.0849
12969TIP3    H260399   1.927   0.098   1.181  0.6378  0.1006  0.0714
12970TIP3   OH260400   2.088   4.833   6.500 -0.3702  0.0062  0.6350
12970TIP3    H160401   2.011   4.877   6.536 -1.6711  0.2050 -2.2124
12970TIP3    H260402   2.061   4.742   6.490 -0.8442  0.3558 -1.7594
12971TIP3   OH260403   3.111   5.212   4.144  0.5015 -0.0396 -0.2374
12971TIP3    H160404   3.200   5.201   4.176  1.2569  0.4577 -2.0384
12971TIP3    H260405   3.057   5.217   4.223  2.0648 -0.2730  0.8832
12972TIP3   OH260406   0.673   1.513  14.911  0.4367  0.0256  0.0845
12972TIP3    H160407   0.692   1.605  14.891  1.2024 -0.2604 -0.5656
12972TIP3    H260408   0.678   1.469  14.826 -1.3362 -0.4062  0.1632
12973TIP3   OH260409   2.132   2.573  16.114 -0.2905 -1.0149  1.3929
12973TIP3    H160410   2.043   2.553  16.084 -0.2551  0.3308  0.2789
12973TIP3    H260411   2.186   2.502  16.078 -0.6541 -0.8577  0.5090
12974TIP3   OH260412   6.361   3.887  13.762  0.0208  0.0392  0.8323
12974TIP3    H160413   6.321   3.830  13.697 -0.7410  2.6465 -1.1349
12974TIP3    H260414   6.296   3.894  13.832 -0.5446 -0.1667  0.3287
12975TIP3   OH260415   3.855   2.018   4.873  0.0632  0.4522  0.5244
12975TIP3    H160416   3.830   2.068   4.795 -0.2852 -0.3516  0.1148
12975TIP3    H260417   3.867   1.929   4.842 -1.8985 -0.2796  1.7045
12976TIP3   OH260418   1.551   3.079  12.892  0.2477  0.2026  0.2593
12976TIP3    H160419   1.534   3.083  12.798 -1.7416 -2.0992  0.4430
12976TIP3    H260420   1.509   2.998  12.922  0.7461  0.8779  3.1563
12977TIP3   OH260421   4.196   0.008  16.249 -0.2060 -0.3202  0.3836
12977TIP3    H160422   4.124   0.039  16.195  0.7814 -0.3031 -0.9755
12977TIP3    H260423   4.275   0.034  16.202  0.6946 -2.6535  0.4441
12978TIP3   OH260424   1.485   6.313  14.244 -0.6272 -0.5118 -0.1529
12978TIP3    H160425   1.395   6.311  14.277 -0.5146 -0.7572  0.1496
12978TIP3    H260426   1.494   6.399  14.203 -0.7913 -0.2229  0.4066
12979TIP3   OH260427   1.432   6.761   0.042 -0.0125 -0.2555  0.0631
12979TIP3    H160428   1.406   6.671   0.065  1.0337 -1.0978 -1.7970
12979TIP3    H260429   1.433   6.808   0.125 -0.5756 -1.9640  1.0935
12980TIP3   OH260430   2.476   4.163  14.281  0.2127 -0.7644 -0.7386
12980TIP3    H160431   2.496   4.191  14.192  1.7460 -3.1283 -1.2189
12980TIP3    H260432   2.444   4.073  14.272  0.7784 -1.1946  1.1206
12981TIP3   OH260433   1.701   0.065   0.936  0.0094 -0.2130 -0.4837
12981TIP3    H160434   1.766   0.069   1.006 -1.3596 -0.2695  0.8315
12981TIP3    H260435   1.701  -0.026   0.907 -0.7432 -0.6476  0.7884
12982TIP3   OH260436   4.188   2.402  16.374 -0.1246 -0.1760 -0.1199
12982TIP3    H160437   4.094   2.393  16.357 -0.2206  0.8704 -0.2151
12982TIP3    H260438   4.211   2.486  16.335  0.3924  0.6321  1.8364
12983TIP3   OH260439   1.160   4.411  13.803 -0.3186 -0.1600 -0.4422
12983TIP3    H160440   1.208   4.493  13.819  1.7006 -1.3954  0.2357
12983TIP3    H260441   1.124   4.388  13.889  0.5777 -0.8212 -0.2272
12984TIP3   OH260442   2.705   4.311  14.418 -0.0891  0.0542  0.2715
12984TIP3    H160443   2.716   4.406  14.424  0.8543  0.1579 -2.0829
12984TIP3    H260444   2.626   4.299  14.365 -0.5076 -0.5112  0.9991
12985TIP3   OH260445   0.493   1.893  12.723 -0.3392  0.1021  0.1051
12985TIP3    H160446   0.536   1.887  12.638  1.0629 -0.7578  0.8398
12985TIP3    H260447   0.420   1.832  12.718  0.2464 -0.5912 -0.2141
12986TIP3   OH260448   2.127   5.977  12.377 -0.2658 -0.0342 -0.5195
12986TIP3    H160449   2.045   5.953  12.334 -0.6118  0.6987 -0.2896
12986TIP3    H260450   2.196   5.943  12.319 -0.6655  2.5403 -2.7006
12987TIP3   OH260451   0.037   6.785  15.739  0.1763 -0.0976 -0.1845
12987TIP3    H160452  -0.038   6.753  15.789  1.9489 -1.4034  1.8370
12987TIP3    H260453   0.018   6.877  15.723 -1.5300 -0.2137  0.9161
12988TIP3   OH260454   0.879   2.999   3.651  0.5721 -0.5359  0.4970
12988TIP3    H160455   0.790   2.989   3.686  0.4490 -1.0247  0.0524
12988TIP3    H260456   0.926   2.923   3.682  1.1903  0.3209  1.7470
12989TIP3   OH260457   0.412   0.174   0.356 -0.2024  0.2075  0.8145
12989TIP3    H160458   0.411   0.125   0.274 -2.1147  1.4830 -0.0182
12989TIP3    H260459   0.503   0.203   0.366 -0.1498  1.0988 -1.5633
12990TIP3   OH260460   4.512   6.352  15.240  0.1392 -0.2199 -0.4336
12990TIP3    H160461   4.513   6.414  15.167 -0.6503  0.7904  0.3844
12990TIP3    H260462   4.567   6.392  15.307  1.6649 -1.5947 -0.7730
12991TIP3   OH260463   5.336   0.340   4.115 -0.1770  0.3471  0.5775
12991TIP3    H160464   5.430   0.332   4.103 -0.2324  0.8330 -0.3146
12991TIP3    H260465   5.326   0.412   4.178  0.0633 -0.6014  1.7430
12992TIP3   OH260466   5.028   0.900  13.880 -0.0304 -0.4371 -0.6956
12992TIP3    H160467   5.103   0.926  13.827  0.7506  1.8115  1.3127
12992TIP3    H260468   5.066   0.874  13.964 -1.4315  1.8776  0.7958
12993TIP3   OH260469   2.082   0.675   3.284 -0.1004 -0.7688  0.8918
12993TIP3    H160470   2.054   0.734   3.354  2.9089 -0.1275  1.6855
12993TIP3    H260471   2.108   0.595   3.328  1.4004 -0.5173  0.5249
12994TIP3   OH260472   6.684   2.697   2.331 -0.0142 -0.3981  0.2140
12994TIP3    H160473   6.739   2.720   2.406 -0.6954 -2.0970  1.2946
12994TIP3    H260474   6.667   2.780   2.288  0.8957  0.5530  1.5950
12995TIP3   OH260475   2.090   5.667  17.013  0.1762  0.2891 -0.4117
12995TIP3    H160476   1.997   5.650  17.030  0.7806 -0.9512  2.0156
12995TIP3    H260477   2.090   5.745  16.958 -2.2280  2.4669  2.3747
12996TIP3   OH260478   1.287   2.513  15.059  0.0783 -0.2664 -0.0227
12996TIP3    H160479   1.343   2.510  14.982  0.9094 -0.6740  0.5931
12996TIP3    H260480   1.297   2.602  15.093  3.8527 -1.4355  2.5922
12997TIP3   OH260481   2.239   4.902  16.669 -0.0073  0.0623  0.0112
12997TIP3    H160482   2.290   4.971  16.712 -1.4421  1.2255 -0.0879
12997TIP3    H260483   2.220   4.839  16.738  2.2461 -0.8530 -0.1242
12998TIP3   OH260484   5.413   3.570   5.005  0.7498 -0.2435 -0.3357
12998TIP3    H160485   5.394   3.646   4.950  0.1363 -0.5971 -0.6223
12998TIP3    H260486   5.376   3.591   5.090  1.1001  0.0245 -0.2513
12999TIP3   OH260487   3.829   3.353  17.051  0.4355  1.0177  0.9279
12999TIP3    H160488   3.777   3.417  17.099  0.4890  1.2346  0.6980
12999TIP3    H260489   3.917   3.391  17.047  0.4649  0.9377  0.7823
13000TIP3   OH260490   3.330   2.006  11.194 -0.0828 -0.0083 -0.6184
13000TIP3    H160491   3.251   1.953  11.180 -1.2525  1.4599  0.1982
13000TIP3    H260492   3.379   1.958  11.261 -0.9960 -0.1863 -0.0669
13001TIP3   OH260493   2.223   2.972  13.698  0.0957  0.0222 -0.0898
13001TIP3    H160494   2.291   2.922  13.653 -2.2479 -2.6686 -0.9764
13001TIP3    H260495   2.228   2.944  13.789 -0.3183 -0.7904 -0.3127
13002TIP3   OH260496   3.224   2.549  12.012 -0.0112 -0.0178  0.1327
13002TIP3    H160497   3.286   2.512  11.949  0.9782  0.1989  0.9326
13002TIP3    H260498   3.199   2.633  11.974  0.1751 -0.1143 -0.2133
13003TIP3   OH260499   3.542   1.937   3.665 -0.3347  0.1544  1.0597
13003TIP3    H160500   3.595   1.889   3.729  1.5734  0.5911 -0.1029
13003TIP3    H260501   3.600   2.007   3.634 -1.9325  1.2042  0.3461
13004TIP3   OH260502   5.684   0.990   5.548 -0.0875  0.0981  0.0854
13004TIP3    H160503   5.766   0.963   5.591 -0.8329  0.6358  1.9446
13004TIP3    H260504   5.709   1.066   5.495  0.5818  0.4147  0.8371
13005TIP3   OH260505   1.706   0.850  12.263 -0.3134 -0.1344 -0.1287
13005TIP3    H160506   1.637   0.916  12.272 -0.5028 -0.3482  0.0076
13005TIP3    H260507   1.660   0.772  12.230 -0.1155 -0.2389 -0.1577
13006TIP3   OH260508   5.707   0.886  11.756 -0.1263 -0.4967 -0.5115
13006TIP3    H160509   5.674   0.798  11.772  0.6576 -0.6069  0.5745
13006TIP3    H260510   5.690   0.934  11.836 -1.1483  0.5609 -1.3230
13007TIP3   OH260511   6.063   5.923  10.239  0.1275 -0.1019 -0.7768
13007TIP3    H160512   5.969   5.906  10.240  0.1068 -0.2502 -2.4324
13007TIP3    H260513   6.070   6.019  10.235  0.1008 -0.0257  0.4243
13008TIP3   OH260514   2.434   0.457   0.969  0.3851  0.3654  0.4269
13008TIP3    H160515   2.487   0.525   1.012 -1.0353  0.7260  1.6999
13008TIP3    H260516   2.372   0.429   1.036 -0.6327 -0.4849 -0.8167
13009TIP3   OH260517   6.381   2.899   5.985 -0.0130  0.2373  0.2698
13009TIP3    H160518   6.431   2.948   5.919  1.6131 -0.1709  1.1468
13009TIP3    H260519   6.356   2.966   6.049 -1.0537  0.5267 -0.4148
13010TIP3   OH260520   4.924   0.734   3.479  0.3419 -0.0689  0.2029
13010TIP3    H160521   4.849   0.686   3.443  1.4096 -2.3117  0.7771
13010TIP3    H260522   4.886   0.815   3.514 -2.0467 -1.6535  1.5898
13011TIP3   OH260523   3.576   3.060  11.673 -0.4224 -0.3483 -0.4070
13011TIP3    H160524   3.635   3.002  11.625 -0.8601 -1.2203  0.0748
13011TIP3    H260525   3.633   3.109  11.733  0.0786  0.4877 -1.5386
13012TIP3   OH260526   0.483   2.312   5.781 -0.8584 -0.1424 -0.0251
13012TIP3    H160527   0.542   2.268   5.842  0.2043 -0.2936 -1.1170
13012TIP3    H260528   0.534   2.386   5.749 -1.7779  0.5249  0.0273
13013TIP3   OH260529   3.107   0.650  12.938  0.1191  0.0500 -0.0104
13013TIP3    H160530   3.049   0.726  12.950 -0.3938 -0.0774 -1.4090
13013TIP3    H260531   3.170   0.679  12.872  1.1226 -0.1178  0.8561
13014TIP3   OH260532   6.403   6.813   0.873 -0.2853 -0.0932 -0.6584
13014TIP3    H160533   6.420   6.903   0.843 -0.1286 -0.3589 -1.4016
13014TIP3    H260534   6.476   6.762   0.837 -0.2451 -0.4768 -0.0386
13015TIP3   OH260535   1.225   3.673  13.044 -0.7972  0.1739  0.5529
13015TIP3    H160536   1.295   3.656  13.108  0.0479  1.3712 -0.0076
13015TIP3    H260537   1.144   3.671  13.096 -0.2545 -0.1552  1.4224
13016TIP3   OH260538   2.749   2.791  10.976 -0.0686  0.0172 -0.1686
13016TIP3    H160539   2.785   2.740  10.903 -0.7399 -0.6431 -0.0491
13016TIP3    H260540   2.736   2.878  10.940 -3.1664 -0.9653 -1.8066
13017TIP3   OH260541   0.031   5.105  12.778  0.5216  0.3019 -0.1612
13017TIP3    H160542  -0.013   5.116  12.862 -0.5192  0.1552 -0.6737
13017TIP3    H260543  -0.007   5.025  12.742 -0.6677  1.5296 -1.7400
13018TIP3   OH260544   4.683   5.759   5.160  0.0250  0.1117 -0.1693
13018TIP3    H160545   4.644   5.673   5.169 -2.0956  1.0426  0.1968
13018TIP3    H260546   4.730   5.773   5.243 -0.4390 -0.3109  0.1675
13019TIP3   OH260547   0.311   4.830  11.541 -0.2553  0.4118  0.0733
13019TIP3    H160548   0.288   4.920  11.521 -1.3782  0.4852  1.5437
13019TIP3    H260549   0.254   4.777  11.484 -0.8438  0.6299  0.4519
13020TIP3   OH260550   0.707   1.440  12.003 -0.3635 -0.0974  0.8022
13020TIP3    H160551   0.753   1.495  11.940 -1.3812 -0.6625 -0.4634
13020TIP3    H260552   0.777   1.397  12.053  0.4525  0.4914  0.2004
13021TIP3   OH260553   5.943   5.079   0.476  0.8361 -0.4393 -0.2139
13021TIP3    H160554   5.876   5.140   0.505 -0.6236 -1.3619 -1.5237
13021TIP3    H260555   5.982   5.046   0.557  0.7773  1.2205  0.5356
13022TIP3   OH260556   1.072   5.422   0.791 -0.3080  0.0039  0.3873
13022TIP3    H160557   1.167   5.427   0.787 -0.2546 -0.2205  1.2448
13022TIP3    H260558   1.044   5.509   0.820 -0.5697  0.9871 -2.4640
13023TIP3   OH260559   5.824   6.686  15.262  0.2859 -0.2060 -0.5854
13023TIP3    H160560   5.915   6.711  15.277  0.1160 -0.0248  0.1970
13023TIP3    H260561   5.829   6.599  15.221  0.8065 -0.4880  0.0459
13024TIP3   OH260562   6.698   1.208   2.494 -0.4352  0.0338 -0.1571
13024TIP3    H160563   6.672   1.146   2.426 -1.5712 -0.2846  0.5393
13024TIP3    H260564   6.780   1.246   2.461 -0.4238 -0.8391 -1.2214
13025TIP3   OH260565   1.919   2.393   5.981 -0.5988 -0.1774 -0.3661
13025TIP3    H160566   1.862   2.317   5.988  0.5776 -1.0548  0.1483
13025TIP3    H260567   1.963   2.398   6.066 -0.4187  0.8946 -0.5020
13026TIP3   OH260568   1.648   5.667  12.749 -0.0132  0.7640 -0.1022
13026TIP3    H160569   1.732   5.659  12.703  0.9709 -0.5548  1.7886
13026TIP3    H260570   1.648   5.755  12.784  0.4580  0.8692 -0.3533
13027TIP3   OH260571   2.013   5.311  15.058 -0.1052 -0.8346 -0.1998
13027TIP3    H160572   1.930   5.294  15.015  0.4457 -2.0620 -0.8219
13027TIP3    H260573   1.989   5.351  15.142 -1.2322  0.5595 -1.1416
13028TIP3   OH260574   5.494   4.741  14.070 -0.1085 -0.6819  0.4872
13028TIP3    H160575   5.452   4.761  13.987  1.1326 -1.8898 -0.4822
13028TIP3    H260576   5.572   4.796  14.072 -2.0832  2.3528  2.7626
13029TIP3   OH260577   6.318   2.345   4.317  0.1016  0.2943 -0.3215
13029TIP3    H160578   6.373   2.324   4.393  1.8481  0.2233 -1.5507
13029TIP3    H260579   6.246   2.282   4.321  0.0281  0.4424  1.3856
13030TIP3   OH260580   2.649   6.389   5.818 -0.7843  0.1036 -0.0446
13030TIP3    H160581   2.667   6.366   5.726 -0.5825  0.6815 -0.1513
13030TIP3    H260582   2.633   6.483   5.817  0.7920  0.4061  0.7472
13031TIP3   OH260583   4.513   2.906   2.910  0.1715  0.5631 -0.6219
13031TIP3    H160584   4.591   2.856   2.882  0.7910 -0.2158  2.2405
13031TIP3    H260585   4.537   2.997   2.893  0.6173  0.1902 -2.2231
13032TIP3   OH260586   1.288   0.026  17.064  0.7624  0.1528  0.0131
13032TIP3    H160587   1.270  -0.042  16.999 -0.5556  0.7931 -0.3362
13032TIP3    H260588   1.335  -0.019  17.135 -1.6783 -1.5607  0.6554
13033TIP3   OH260589   4.153   5.907   0.699 -0.4665  0.2040  0.0632
13033TIP3    H160590   4.209   5.831   0.683  0.6690  0.6122  1.7547
13033TIP3    H260591   4.074   5.890   0.649  0.5965 -1.0938 -1.2478
13034TIP3   OH260592   3.985   6.641  12.350  0.7690 -0.0516 -0.4206
13034TIP3    H160593   3.957   6.648  12.441 -0.7919  1.2277 -0.9716
13034TIP3    H260594   3.932   6.571  12.314  0.8576 -0.0484 -0.5578
13035TIP3   OH260595   5.924   3.599  13.545  0.1791 -0.0180  0.3628
13035TIP3    H160596   5.844   3.561  13.582  0.0894 -0.5263 -0.3309
13035TIP3    H260597   5.985   3.525  13.540  0.1269  0.0033 -0.6759
13036TIP3   OH260598   0.079   3.536  16.187 -0.4588  0.1022 -0.1180
13036TIP3    H160599   0.040   3.624  16.181  0.6346  0.6152  0.0071
13036TIP3    H260600   0.109   3.530  16.278  2.4308  0.9520 -0.8947
13037TIP3   OH260601   5.287   0.129   2.102 -0.0057  0.4616  0.3418
13037TIP3    H160602   5.282   0.203   2.161 -1.0421  0.9464 -0.3228
13037TIP3    H260603   5.360   0.076   2.135 -0.3195  0.9096  1.8064
13038TIP3   OH260604   1.220   3.274  16.316  0.1863  0.3613  0.1587
13038TIP3    H160605   1.277   3.202  16.290  1.3959  1.0767  0.7252
13038TIP3    H260606   1.131   3.244  16.296  0.8072 -0.4789 -1.4423
13039TIP3   OH260607   1.258   4.353  11.358 -0.7530  0.2171 -0.0736
13039TIP3    H160608   1.277   4.264  11.330 -0.8663  0.2906 -0.3860
13039TIP3    H260609   1.281   4.354  11.451  1.4777  0.4698 -0.5489
13040TIP3   OH260610   6.663   3.286  14.917 -0.2779  0.1881  0.4684
13040TIP3    H160611   6.704   3.311  14.834 -0.3020 -0.2044  0.3345
13040TIP3    H260612   6.619   3.365  14.947 -0.2388  0.3430  0.1223
13041TIP3   OH260613   2.358   5.843  11.027  0.0649  0.3135  0.5355
13041TIP3    H160614   2.383   5.910  11.091 -1.5033  1.8639 -0.4213
13041TIP3    H260615   2.291   5.791  11.071 -0.1581  0.6289  0.5656
13042TIP3   OH260616   1.599   1.441   1.785  0.3658 -0.2696  0.2004
13042TIP3    H160617   1.573   1.389   1.860 -1.5224  1.2715  0.7031
13042TIP3    H260618   1.662   1.386   1.737  2.0624 -1.0881  3.1445
13043TIP3   OH260619   4.679   4.826   0.711 -0.5541  0.3019  0.1047
13043TIP3    H160620   4.774   4.826   0.723 -0.4238  1.7965 -0.6723
13043TIP3    H260621   4.657   4.735   0.690  0.9923  0.3072 -1.7792
13044TIP3   OH260622   3.314   5.190  11.629  0.2892  0.0385 -0.1043
13044TIP3    H160623   3.293   5.262  11.570 -2.4457 -0.4097  0.1715
13044TIP3    H260624   3.232   5.142  11.638  0.9069 -0.6680  3.0452
13045TIP3   OH260625   4.179   3.816   4.998  0.0425 -0.1554 -0.1444
13045TIP3    H160626   4.150   3.905   5.016 -0.9540 -0.4228 -0.3292
13045TIP3    H260627   4.263   3.808   5.043 -0.6333  0.3618  1.2579
13046TIP3   OH260628   6.546   2.609   3.488 -0.2756  0.2232  0.1620
13046TIP3    H160629   6.599   2.583   3.563 -0.7776  0.4125  0.5918
13046TIP3    H260630   6.533   2.528   3.439  1.7969  0.4570 -0.8684
13047TIP3   OH260631   5.931   0.411   1.181  0.2505 -0.1988 -0.1660
13047TIP3    H160632   5.965   0.322   1.187  0.0932 -0.1783  1.4710
13047TIP3    H260633   5.987   0.462   1.239  0.8008  0.9595 -1.6367
13048TIP3   OH260634   2.540   0.622   4.502  0.3963  0.1943  0.0050
13048TIP3    H160635   2.532   0.606   4.408 -0.9630 -0.3339  0.1957
13048TIP3    H260636   2.467   0.680   4.523 -0.0779 -0.7333  0.9682
13049TIP3   OH260637   0.401   3.707   5.038 -0.6457  0.0936 -0.2135
13049TIP3    H160638   0.377   3.780   4.981 -1.1136  0.6071  0.6119
13049TIP3    H260639   0.317   3.677   5.075 -0.1502  1.6975  2.4773
13050TIP3   OH260640   0.485   3.112   0.957  0.2302 -0.8586 -0.8192
13050TIP3    H160641   0.419   3.105   0.887 -0.4974  3.3551 -0.8044
13050TIP3    H260642   0.549   3.175   0.923  0.9216 -0.1997  1.5353
13051TIP3   OH260643   1.443   3.496  17.159 -0.2781 -0.7068  0.2504
13051TIP3    H160644   1.396   3.413  17.166 -2.3389  0.3210 -0.4638
13051TIP3    H260645   1.404   3.551  17.227  0.5876 -0.1153  0.2762
13052TIP3   OH260646   6.326   1.674   6.567 -0.3858  0.2808  0.8876
13052TIP3    H160647   6.397   1.610   6.567 -0.4445  0.2020  1.8428
13052TIP3    H260648   6.269   1.647   6.639 -0.5629  1.2348  1.1181
13053TIP3   OH260649   2.257   1.384  16.097 -0.4358 -0.1694 -0.2887
13053TIP3    H160650   2.250   1.413  16.006 -1.4340  0.4819 -0.0238
13053TIP3    H260651   2.183   1.324  16.109  0.0664 -0.7536 -0.0807
13054TIP3   OH260652   3.428   5.178   0.595  0.1230  0.2485 -0.5453
13054TIP3    H160653   3.510   5.218   0.622  0.5363  0.0030 -1.3999
13054TIP3    H260654   3.433   5.173   0.500 -0.8487  0.1570 -0.6099
13055TIP3   OH260655   3.028   4.322   5.705  0.6195 -0.0763  0.1305
13055TIP3    H160656   3.105   4.267   5.718 -0.3629 -1.8387 -1.0610
13055TIP3    H260657   3.050   4.378   5.630  0.6216 -0.8652 -0.4706
13056TIP3   OH260658   0.709   5.702  15.296  0.1677 -0.1179  0.4823
13056TIP3    H160659   0.649   5.656  15.354 -0.5648 -1.6750 -1.3825
13056TIP3    H260660   0.782   5.642  15.284 -0.2364 -0.3616 -1.0581
13057TIP3   OH260661   4.099   6.744  12.096 -0.1372 -0.4319  0.2626
13057TIP3    H160662   4.132   6.665  12.137  0.5830  0.1238  0.7915
13057TIP3    H260663   4.111   6.812  12.162 -0.4736  0.1720 -0.2855
13058TIP3   OH260664   0.547   0.492   2.473  0.1121 -0.3326  0.0624
13058TIP3    H160665   0.548   0.498   2.378 -0.9963 -0.7873  0.0099
13058TIP3    H260666   0.454   0.493   2.497  0.3146 -1.5655  1.0379
13059TIP3   OH260667   0.337   0.228   1.927 -0.3573  0.3306  0.1419
13059TIP3    H160668   0.351   0.311   1.973 -0.6565  0.0619  0.7170
13059TIP3    H260669   0.247   0.204   1.948 -0.2893 -0.1181 -0.0740
13060TIP3   OH260670   4.962   3.334   5.452 -0.2368 -0.3879  0.4045
13060TIP3    H160671   4.953   3.264   5.386  0.9415 -0.9552  0.8226
13060TIP3    H260672   5.036   3.306   5.506  0.6370  1.4853  0.2322
13061TIP3   OH260673   1.849   5.860   3.976 -0.2006 -0.4378 -0.3712
13061TIP3    H160674   1.805   5.920   3.915 -0.7547  0.3678  0.7691
13061TIP3    H260675   1.935   5.900   3.991 -1.0591  0.9066  1.4416
13062TIP3   OH260676   1.425   2.990  16.570  0.0622 -0.1818  0.0880
13062TIP3    H160677   1.358   2.923  16.572 -0.0498 -0.1062 -0.6918
13062TIP3    H260678   1.444   3.002  16.477 -0.2568  1.1937  0.1769
13063TIP3   OH260679   6.234   1.674   0.350 -0.0422 -0.0622 -0.3255
13063TIP3    H160680   6.161   1.736   0.350  1.6148  2.0017 -0.5367
13063TIP3    H260681   6.202   1.600   0.402 -1.9771  1.1146  0.2808
13064TIP3   OH260682   4.752   3.854   0.448  0.4078  0.2357 -0.0740
13064TIP3    H160683   4.669   3.897   0.429 -0.5587 -1.3132  0.3977
13064TIP3    H260684   4.801   3.859   0.366 -0.5650  0.3250 -0.6690
13065TIP3   OH260685   1.278   0.308  15.724 -0.0488 -0.0286  0.4406
13065TIP3    H160686   1.299   0.244  15.792 -0.3456 -1.0838 -0.4342
13065TIP3    H260687   1.201   0.272  15.680  0.4161  0.3783 -0.7588
13066TIP3   OH260688   0.003   0.750  12.468 -0.1487  0.1698 -0.0558
13066TIP3    H160689  -0.034   0.838  12.460 -1.2811 -0.1448  1.2755
13066TIP3    H260690   0.078   0.750  12.408 -1.2083  1.4383 -1.4771
13067TIP3   OH260691   5.203   5.987   3.517  0.5239 -0.2259  0.1969
13067TIP3    H160692   5.126   5.952   3.473  1.1820 -0.5234 -0.7504
13067TIP3    H260693   5.169   6.026   3.598 -0.3247 -2.4768  0.9954
13068TIP3   OH260694   6.190   6.715  17.126  0.2545 -1.0320  0.3426
13068TIP3    H160695   6.102   6.748  17.142  1.4965  1.8221  1.8883
13068TIP3    H260696   6.223   6.768  17.053  0.8219 -1.8565 -0.0202
13069TIP3   OH260697   6.313   5.149   1.749 -0.4776 -0.5166  0.1375
13069TIP3    H160698   6.307   5.054   1.759  0.8785 -0.7953 -1.3422
13069TIP3    H260699   6.407   5.166   1.741 -0.7931  0.7933 -1.0573
13070TIP3   OH260700   3.366   1.139  16.188 -0.0525 -0.0161  0.0277
13070TIP3    H160701   3.379   1.168  16.098  1.3193 -0.4635  0.0571
13070TIP3    H260702   3.287   1.086  16.185  0.6444 -1.0394 -1.1871
13071TIP3   OH260703   4.261   2.850  13.624 -0.2087 -0.2413 -0.0547
13071TIP3    H160704   4.291   2.760  13.617  2.0129  0.2257  2.0691
13071TIP3    H260705   4.330   2.895  13.673 -1.5813  2.4545 -0.3855
13072TIP3   OH260706   1.536   2.413  12.571 -0.4377  0.8145  0.4593
13072TIP3    H160707   1.472   2.435  12.503 -2.5820  2.5272  2.8174
13072TIP3    H260708   1.483   2.384  12.645  1.7433 -0.2703  1.6921
13073TIP3   OH260709   2.007   3.356  14.299 -0.2343  0.7104  0.7781
13073TIP3    H160710   1.977   3.280  14.348 -0.0882  0.9485  1.2470
13073TIP3    H260711   2.070   3.321  14.236 -0.9694  0.3032  0.2547
13074TIP3   OH260712   0.333   4.746  13.004  0.3374 -0.2196 -0.0396
13074TIP3    H160713   0.354   4.729  13.096  0.9744  0.6447 -0.0122
13074TIP3    H260714   0.244   4.781  13.005  0.1822 -0.6128  0.1983
13075TIP3   OH260715   0.332   2.075  15.335 -0.2558  0.0171 -0.6233
13075TIP3    H160716   0.344   2.015  15.261  1.0632  0.2923 -0.6746
13075TIP3    H260717   0.378   2.033  15.408  0.2213  0.6948 -0.5196
13076TIP3   OH260718   4.679   3.532   4.508 -0.4725 -0.1607  0.0502
13076TIP3    H160719   4.702   3.441   4.524  0.0940  0.2646  1.8524
13076TIP3    H260720   4.615   3.553   4.576 -1.6245  0.4250 -1.1745
13077TIP3   OH260721   2.755   3.204   3.475 -0.9462 -0.6333 -0.0966
13077TIP3    H160722   2.827   3.162   3.523  0.3681 -0.4293 -1.7952
13077TIP3    H260723   2.769   3.177   3.384 -1.1585  1.9465 -0.9522
13078TIP3   OH260724   6.675   3.270   4.400  0.2476 -0.0955 -0.5972
13078TIP3    H160725   6.659   3.176   4.403  0.6930 -0.1526  0.0982
13078TIP3    H260726   6.715   3.285   4.314 -1.6876 -0.2266 -1.5854
13079TIP3   OH260727   0.657   3.689   0.945  0.5933  0.3093 -0.0138
13079TIP3    H160728   0.586   3.655   0.891  0.0109  0.2733  0.7733
13079TIP3    H260729   0.726   3.623   0.937  0.6044  0.4129 -0.8908
13080TIP3   OH260730   3.167   4.298  12.568  0.0580  0.3642 -0.2321
13080TIP3    H160731   3.086   4.311  12.618 -0.9306 -1.1619 -1.3130
13080TIP3    H260732   3.177   4.202  12.565  1.2002  0.4989 -1.2119
13081TIP3   OH260733   2.489   5.413  12.705 -0.2422  0.0410  0.0359
13081TIP3    H160734   2.420   5.418  12.638  0.3648 -2.0367 -0.8376
13081TIP3    H260735   2.557   5.359  12.665  0.9332  0.2149  1.6959
13082TIP3   OH260736   4.876   1.791   4.862 -0.2043 -0.2235  0.6404
13082TIP3    H160737   4.791   1.780   4.903 -0.7848 -0.6800 -0.6381
13082TIP3    H260738   4.857   1.804   4.769  1.0842  0.3985  0.4333
13083TIP3   OH260739   6.207   6.099   1.787 -0.0678 -0.1619 -0.2045
13083TIP3    H160740   6.281   6.160   1.778 -0.3592  0.5644  1.8745
13083TIP3    H260741   6.148   6.123   1.715  0.6131  0.8788 -0.4384
13084TIP3   OH260742   1.337   0.636   5.226  0.0357 -0.0918 -0.2387
13084TIP3    H160743   1.308   0.711   5.174 -0.6020  0.2079  0.5213
13084TIP3    H260744   1.420   0.665   5.265  0.3488 -0.1972 -0.8181
13085TIP3   OH260745   3.576   0.806   0.724 -0.1990 -0.7044 -0.2723
13085TIP3    H160746   3.531   0.790   0.640  1.1228  1.4149 -1.4784
13085TIP3    H260747   3.666   0.778   0.708 -0.1763 -1.3182  0.8506
13086TIP3   OH260748   4.672   3.608   1.743  0.0184 -0.5430 -0.1904
13086TIP3    H160749   4.592   3.559   1.725  0.6037 -1.3375 -0.6623
13086TIP3    H260750   4.709   3.626   1.657  0.8136 -0.9571  0.0617
13087TIP3   OH260751   0.041   0.189   3.282 -0.0329  0.3840 -0.4791
13087TIP3    H160752   0.102   0.121   3.256 -1.2701 -0.7802 -0.4171
13087TIP3    H260753   0.089   0.241   3.347  0.5974 -1.0406  0.2229
13088TIP3   OH260754   6.526   0.254   1.924  0.6853  0.4071 -0.1751
13088TIP3    H160755   6.478   0.171   1.915  2.0600 -0.3134 -1.2746
13088TIP3    H260756   6.618   0.229   1.920  1.1337  2.0187 -0.8799
13089TIP3   OH260757   5.087   5.682  12.118  0.1403  0.3786  0.0083
13089TIP3    H160758   4.995   5.705  12.134  0.0545  1.0338 -1.3247
13089TIP3    H260759   5.085   5.626  12.041  0.6604 -1.7047  1.4285
13090TIP3   OH260760   4.219   5.664  14.525  0.3152  0.3992 -0.5162
13090TIP3    H160761   4.290   5.651  14.589  1.3509  1.6513 -1.3801
13090TIP3    H260762   4.263   5.692  14.445 -1.1453  0.9574 -1.1564
13091TIP3   OH260763   0.374   3.348   1.264  0.0350  0.5210 -0.0264
13091TIP3    H160764   0.376   3.336   1.359  3.2198  0.1705 -0.0360
13091TIP3    H260765   0.324   3.272   1.232 -0.0835  0.0112  1.2907
13092TIP3   OH260766   1.646   2.845  10.918  0.1534 -0.5961  0.2162
13092TIP3    H160767   1.591   2.922  10.930 -0.1199 -0.7027 -0.3260
13092TIP3    H260768   1.720   2.859  10.977  0.5302  0.4811 -0.4717
13093TIP3   OH260769   4.172   5.494  16.078 -0.5550  0.0498  0.9608
13093TIP3    H160770   4.202   5.533  15.996 -1.2449 -1.0638  0.1607
13093TIP3    H260771   4.087   5.457  16.057 -0.4861 -0.7534  2.0377
13094TIP3   OH260772   0.539   4.112  16.741 -0.3229  0.4196  0.0001
13094TIP3    H160773   0.563   4.193  16.696  1.7972  0.7852  1.6553
13094TIP3    H260774   0.444   4.119  16.752 -0.3434  2.1507 -0.8623
13095TIP3   OH260775   3.995   2.915   0.903  0.2684  0.6744  0.5009
13095TIP3    H160776   3.919   2.942   0.955  1.1560 -0.1832  2.3143
13095TIP3    H260777   3.964   2.838   0.855  0.1769 -0.1352  1.8082
13096TIP3   OH260778   1.386   1.214  15.156 -0.6578  0.1925  0.3482
13096TIP3    H160779   1.371   1.120  15.162 -2.2608  0.4431  0.9157
13096TIP3    H260780   1.450   1.224  15.086 -1.5995 -1.2282 -0.7904
13097TIP3   OH260781   4.952   4.832  16.497  0.0254 -0.2772  0.1260
13097TIP3    H160782   4.877   4.857  16.551 -1.0969 -0.6213 -1.2052
13097TIP3    H260783   4.916   4.769  16.435  0.9072  1.2527 -2.0321
13098TIP3   OH260784   4.817   0.304  12.653  0.3817  0.6750 -0.2609
13098TIP3    H160785   4.805   0.251  12.574  0.0617  1.1623 -0.5503
13098TIP3    H260786   4.750   0.273  12.713 -1.0407  1.9662 -1.1036
13099TIP3   OH260787   2.921   4.039   0.218 -0.1148 -0.5292 -0.0582
13099TIP3    H160788   2.955   4.048   0.307 -1.5172 -0.3052  0.4734
13099TIP3    H260789   2.826   4.032   0.228 -0.5532  1.8323 -1.6576
13100TIP3   OH260790   5.760   5.595   5.910 -0.3089 -0.2432 -0.2113
13100TIP3    H160791   5.673   5.605   5.949  0.5072  1.0481  1.4566
13100TIP3    H260792   5.820   5.610   5.983  1.3308  0.8684 -1.6988
13101TIP3   OH260793   2.518   1.553   2.833  0.0072 -0.1571 -0.2232
13101TIP3    H160794   2.552   1.562   2.744  1.4140  0.7385  0.3575
13101TIP3    H260795   2.431   1.592   2.829 -0.6891 -1.7195 -1.5730
13102TIP3   OH260796   4.357   1.806  16.258 -0.3298  0.5850 -0.4096
13102TIP3    H160797   4.270   1.821  16.296 -1.4500 -0.8931 -2.2498
13102TIP3    H260798   4.373   1.712  16.271  0.7322  0.7210 -0.6538
13103TIP3   OH260799   5.150   2.041   2.933 -0.2045 -0.1686 -0.2391
13103TIP3    H160800   5.078   1.997   2.977  1.7300 -1.0100  2.3263
13103TIP3    H260801   5.171   1.983   2.859 -0.3763 -1.4039  0.6439
13104TIP3   OH260802   2.010   0.398  16.595  0.0951  0.3399  0.0818
13104TIP3    H160803   2.103   0.422  16.603  1.1445 -3.3352  0.9714
13104TIP3    H260804   2.008   0.334  16.524 -1.3349 -1.2757  1.5052
13105TIP3   OH260805   1.973   1.209  11.994 -0.0504 -0.0415 -0.0192
13105TIP3    H160806   2.008   1.247  12.075 -0.1660  1.4118 -0.6205
13105TIP3    H260807   1.931   1.128  12.022  0.6009  0.0262  1.2565
13106TIP3   OH260808   2.160   0.919  14.356 -0.0094  0.3672  0.2711
13106TIP3    H160809   2.187   0.998  14.310  0.9847 -1.3566 -2.3595
13106TIP3    H260810   2.108   0.871  14.292 -1.4069 -0.7184  2.1133
13107TIP3   OH260811   2.995   4.733   4.187  0.2845  0.5765 -0.9585
13107TIP3    H160812   2.952   4.657   4.226 -0.2238 -0.5351 -3.5138
13107TIP3    H260813   3.089   4.715   4.195  0.1687 -0.6247 -2.0281
13108TIP3   OH260814   6.109   0.001  13.384 -0.6443 -0.0837 -0.1770
13108TIP3    H160815   6.071  -0.055  13.317  0.0072 -0.1641 -0.4916
13108TIP3    H260816   6.088  -0.042  13.467  1.2974 -1.7514 -0.4767
13109TIP3   OH260817   3.338   2.716   4.072 -0.0098 -0.2681  0.3282
13109TIP3    H160818   3.273   2.751   4.010  0.0554 -0.8280 -0.0739
13109TIP3    H260819   3.290   2.709   4.155  0.2270  1.5633  0.6488
13110TIP3   OH260820   5.719   5.057  11.702 -0.1735 -0.0435  0.0938
13110TIP3    H160821   5.645   5.045  11.762  0.7260  1.3015  1.5644
13110TIP3    H260822   5.790   5.008  11.743  0.2605  0.2544 -0.3027
13111TIP3   OH260823   3.356   6.699  11.272  0.1106 -0.1818  0.0034
13111TIP3    H160824   3.360   6.608  11.244  0.5424 -0.3245  0.5205
13111TIP3    H260825   3.438   6.737  11.242 -0.0792  0.0454 -0.2316
13112TIP3   OH260826   5.706   3.456  14.598 -0.2347  0.0091 -0.1335
13112TIP3    H160827   5.618   3.422  14.613 -0.2877  0.1750 -0.0610
13112TIP3    H260828   5.709   3.538  14.648  1.1163 -1.6472  2.7894
13113TIP3   OH260829   6.817   2.171   2.944  0.9796 -0.4623  0.3334
13113TIP3    H160830   6.839   2.215   2.862  1.1038 -2.6933 -0.9229
13113TIP3    H260831   6.854   2.083   2.934  0.5026 -0.9760  2.5705
13114TIP3   OH260832   5.304   0.897  15.031 -0.2573  0.4956 -0.1002
13114TIP3    H160833   5.369   0.871  15.097  0.7043  0.9998 -0.8378
13114TIP3    H260834   5.234   0.832  15.041  1.1273 -1.1150 -0.4592
13115TIP3   OH260835   4.739   3.649  15.982 -0.2976 -0.1101  0.2804
13115TIP3    H160836   4.663   3.591  15.985  0.5435 -1.2281  0.6116
13115TIP3    H260837   4.722   3.707  15.908 -0.7309 -1.3978 -0.6610
13116TIP3   OH260838   4.822   0.075   0.139 -0.1541 -0.3961  0.1199
13116TIP3    H160839   4.850   0.159   0.175 -0.4288  0.7109 -2.0920
13116TIP3    H260840   4.890   0.014   0.166  0.2307  0.6033  1.4890
13117TIP3   OH260841   4.829   4.856  13.066  1.0177  0.0776 -0.4723
13117TIP3    H160842   4.826   4.917  13.139 -0.6552 -0.4533 -0.0420
13117TIP3    H260843   4.775   4.897  12.998 -0.8348 -1.2264  0.1301
13118TIP3   OH260844   6.395   1.293   1.160  0.4480 -0.4043  0.0702
13118TIP3    H160845   6.379   1.327   1.248  0.1935 -0.2561 -0.0321
13118TIP3    H260846   6.489   1.306   1.145  0.1475  1.4190 -0.4440
13119TIP3   OH260847   3.702   4.140  16.333  0.1989  0.3652  0.4579
13119TIP3    H160848   3.750   4.162  16.414 -0.6905 -1.7892  1.6735
13119TIP3    H260849   3.694   4.045  16.336 -0.0614  0.2436 -2.1168
13120TIP3   OH260850   1.429   6.499   1.245  0.1342 -0.8443  0.1512
13120TIP3    H160851   1.448   6.577   1.297  1.9786 -0.3311 -1.2047
13120TIP3    H260852   1.471   6.428   1.294 -2.0233 -1.1610  1.6830
13121TIP3   OH260853   0.337   5.175   6.327 -0.1450  0.0802  0.0979
13121TIP3    H160854   0.381   5.207   6.405  0.4028 -1.7596  0.5974
13121TIP3    H260855   0.244   5.184   6.346 -0.0701 -1.8109  1.6831
13122TIP3   OH260856   6.153   5.018   0.907 -0.2258  0.3215  0.3340
13122TIP3    H160857   6.196   5.104   0.902 -1.6846  1.0899  0.3218
13122TIP3    H260858   6.071   5.036   0.953  0.1383 -1.3853  1.7589
13123TIP3   OH260859   0.780   2.645   5.829 -0.0267  0.7236  0.1407
13123TIP3    H160860   0.813   2.724   5.872 -0.8869  0.5561  1.1721
13123TIP3    H260861   0.737   2.597   5.899 -0.8903  0.1059 -0.7906
13124TIP3   OH260862   1.735   4.813   4.525 -0.1283 -0.0505 -0.3818
13124TIP3    H160863   1.717   4.766   4.606 -1.3462 -0.9951 -1.1703
13124TIP3    H260864   1.732   4.906   4.550  1.3887 -0.3136  1.0046
13125TIP3   OH260865   5.138   5.563  13.452 -0.1644 -0.1396  0.0620
13125TIP3    H160866   5.046   5.547  13.430  0.4635 -3.7232 -0.6178
13125TIP3    H260867   5.175   5.603  13.373 -0.8519  0.0837 -0.1588
13126TIP3   OH260868   0.748   0.870   0.241  0.4717 -0.0465  0.5276
13126TIP3    H160869   0.701   0.864   0.324  2.6092  1.5991  1.9853
13126TIP3    H260870   0.802   0.949   0.250  2.8080 -1.3038 -1.3282
13127TIP3   OH260871   1.782   0.651   5.615 -0.0174 -0.5472  0.4322
13127TIP3    H160872   1.697   0.695   5.621 -0.1013 -0.5532 -0.5204
13127TIP3    H260873   1.762   0.558   5.622  0.0135 -0.5055  1.1116
13128TIP3   OH260874   0.044   5.225   4.990  0.0748 -0.4737 -1.0055
13128TIP3    H160875   0.069   5.189   5.075 -1.1649 -2.2449 -1.3409
13128TIP3    H260876  -0.042   5.187   4.972  0.1756  0.0887 -2.9289
13129TIP3   OH260877   0.534   0.271  15.113  0.4662  0.0632 -0.8543
13129TIP3    H160878   0.598   0.342  15.104  1.4282 -0.4938  1.0552
13129TIP3    H260879   0.574   0.198  15.065  0.0044  0.4504 -1.8617
13130TIP3   OH260880   0.815   2.900   4.762 -0.4057  0.1939  0.0323
13130TIP3    H160881   0.747   2.833   4.765 -0.4034 -0.0642 -2.8120
13130TIP3    H260882   0.897   2.851   4.749  0.1722  0.5869  1.8883
13131TIP3   OH260883   1.497   2.161   4.387 -0.2743  0.1039  0.1971
13131TIP3    H160884   1.513   2.242   4.436 -2.2055  0.1593  0.8575
13131TIP3    H260885   1.495   2.188   4.295 -0.2537  0.6975  0.3678
13132TIP3   OH260886   5.332   2.702   0.760  0.1184 -0.2435 -0.2921
13132TIP3    H160887   5.300   2.767   0.698  0.4732 -0.9314 -1.2310
13132TIP3    H260888   5.405   2.659   0.714  0.2412 -0.9206  0.5101
13133TIP3   OH260889   1.991   2.578   6.318 -0.0334  0.5035 -0.4549
13133TIP3    H160890   2.051   2.613   6.384 -0.7615 -3.1065  2.4445
13133TIP3    H260891   2.047   2.525   6.261  0.2513  1.7088 -1.3333
13134TIP3   OH260892   0.012   0.551   4.575 -0.3494 -0.3821 -0.3928
13134TIP3    H160893   0.063   0.631   4.588 -0.5956 -0.1247 -0.9632
13134TIP3    H260894   0.015   0.506   4.660  0.5139 -0.1944 -0.3212
13135TIP3   OH260895   2.058   4.721   2.434  0.2500  0.0796 -0.0160
13135TIP3    H160896   2.008   4.751   2.510 -0.3635 -2.2918  0.6063
13135TIP3    H260897   2.124   4.662   2.470  1.0670  0.2550 -1.1790
13136TIP3   OH260898   4.385   0.288  11.754  0.2227  0.3820 -0.0902
13136TIP3    H160899   4.400   0.359  11.691  1.3885 -1.0356 -1.4944
13136TIP3    H260900   4.367   0.211  11.700 -0.5729 -0.5062  1.3745
13137TIP3   OH260901   5.181   6.470   1.437  0.3597 -0.0797  0.7689
13137TIP3    H160902   5.146   6.438   1.354  2.0540  2.0854 -0.8968
13137TIP3    H260903   5.109   6.520   1.476  0.1196  0.5195 -0.3893
13138TIP3   OH260904   6.095   1.200  11.157 -0.1378 -0.2390  0.3911
13138TIP3    H160905   6.112   1.183  11.250 -0.7056 -3.1081  0.0725
13138TIP3    H260906   6.027   1.136  11.134 -0.2548  0.6526 -1.9246
13139TIP3   OH260907   5.317   5.509   4.429 -0.1338  0.5939  0.0813
13139TIP3    H160908   5.256   5.480   4.496  0.2430 -6.0365 -1.6959
13139TIP3    H260909   5.399   5.464   4.450  1.6721  2.6726 -1.9407
13140TIP3   OH260910   4.772   1.980   3.009 -0.3364 -0.0782 -0.2179
13140TIP3    H160911   4.791   2.052   3.068  2.6046 -1.7115  0.9930
13140TIP3    H260912   4.788   2.016   2.921 -0.8742  1.2485  0.2000
13141TIP3   OH260913   5.598   0.507   5.362 -0.2210  0.0982  0.1176
13141TIP3    H160914   5.660   0.567   5.402  0.6325 -0.9805  0.4626
13141TIP3    H260915   5.604   0.526   5.268  0.8636 -0.1875  0.1139
13142TIP3   OH260916   3.428   5.912   1.700 -0.5468  0.2463  1.1171
13142TIP3    H160917   3.468   5.826   1.715 -2.1826 -0.6321  0.6724
13142TIP3    H260918   3.334   5.894   1.693 -0.7648  1.8465 -0.7714
13143TIP3   OH260919   4.156   4.295  16.071 -0.3531  0.1811  0.0592
13143TIP3    H160920   4.121   4.384  16.059 -0.0300  0.2650 -0.2596
13143TIP3    H260921   4.188   4.270  15.984 -0.5512 -0.2958  0.1183
13144TIP3   OH260922   5.048   6.082  16.211  0.0496  0.1608 -0.0812
13144TIP3    H160923   5.046   6.088  16.307 -0.0888 -0.3012 -0.0521
13144TIP3    H260924   5.010   6.165  16.181 -2.0005 -0.5908  0.2930
13145TIP3   OH260925   6.213   4.680   3.834  0.6635 -0.4113  0.2622
13145TIP3    H160926   6.133   4.731   3.824  0.2473 -0.5092  2.5832
13145TIP3    H260927   6.201   4.605   3.776 -0.4946  0.0649 -0.1371
13146TIP3   OH260928   3.894   2.965   0.548  0.0516 -0.5369 -0.0658
13146TIP3    H160929   3.821   2.969   0.609  0.4193  1.1470  0.3256
13146TIP3    H260930   3.889   2.878   0.510 -2.1561 -0.4668 -0.0588
13147TIP3   OH260931   0.657   4.709   4.041  0.2203  0.7036  0.5339
13147TIP3    H160932   0.611   4.679   4.119  2.2400  0.6150  1.7400
13147TIP3    H260933   0.650   4.805   4.044 -0.8373  0.6577  0.0690
13148TIP3   OH260934   5.069   5.171   2.311  0.0190  0.1114 -0.1261
13148TIP3    H160935   5.114   5.255   2.325  1.0221 -0.3746 -0.3144
13148TIP3    H260936   4.989   5.194   2.264 -0.2065  1.0620  0.6865
13149TIP3   OH260937   3.303   6.309   0.562 -0.2562 -0.6452 -0.0725
13149TIP3    H160938   3.249   6.317   0.484 -0.7257 -0.0780  0.3076
13149TIP3    H260939   3.242   6.321   0.635  0.0233 -1.9606  0.4089
13150TIP3   OH260940   0.330   2.805  11.257 -0.4146  0.4273  0.1381
13150TIP3    H160941   0.351   2.898  11.263 -1.4733  0.5930  1.5941
13150TIP3    H260942   0.242   2.797  11.294 -0.2605 -1.1806  0.2280
13151TIP3   OH260943   6.120   5.844   4.282  0.4948  0.2739 -0.0050
13151TIP3    H160944   6.097   5.924   4.328  2.9639  0.7921  0.4479
13151TIP3    H260945   6.159   5.787   4.348 -0.8344 -1.2014 -0.4014
13152TIP3   OH260946   3.035   3.111  11.922  0.3504  0.4073  0.1785
13152TIP3    H160947   2.985   3.054  11.864 -0.6113  1.4158 -0.0023
13152TIP3    H260948   3.079   3.173  11.864  0.3156  0.6992  0.4636
13153TIP3   OH260949   6.499   4.150   2.190  0.5776  0.0147  0.1493
13153TIP3    H160950   6.522   4.077   2.247  0.7775 -0.3456 -0.3872
13153TIP3    H260951   6.453   4.110   2.117  0.3587  0.4712  0.0339
13154TIP3   OH260952   2.825   4.531   1.494 -0.5365 -0.1493  0.3536
13154TIP3    H160953   2.827   4.436   1.490 -2.8129 -0.2853  0.9235
13154TIP3    H260954   2.878   4.553   1.571 -1.3152 -1.0871  1.1796
13155TIP3   OH260955   2.273   0.771  15.092 -0.0838 -0.6582 -0.3144
13155TIP3    H160956   2.277   0.774  15.188 -0.8766  0.1562 -0.2805
13155TIP3    H260957   2.335   0.703  15.067  0.2076 -0.8184  0.7740
13156TIP3   OH260958   4.606   1.760  10.463  0.0557 -0.2377  0.2621
13156TIP3    H160959   4.626   1.667  10.457 -1.5476 -0.5464 -0.7866
13156TIP3    H260960   4.652   1.799  10.388  0.6572 -0.1862  0.6524
13157TIP3   OH260961   5.135   1.301  14.882 -0.5932 -0.1776 -0.0972
13157TIP3    H160962   5.172   1.387  14.863 -1.8822  1.0595  2.5109
13157TIP3    H260963   5.054   1.299  14.831 -0.4109  0.0120 -0.3987
13158TIP3   OH260964   6.572   2.805   6.428  0.1204 -0.0308  0.4787
13158TIP3    H160965   6.618   2.866   6.485  0.7285  2.6257 -2.5628
13158TIP3    H260966   6.630   2.793   6.352 -1.0688 -2.5351 -0.1609
13159TIP3   OH260967   6.257   5.143  12.401  0.3572 -0.3248  0.3285
13159TIP3    H160968   6.290   5.201  12.470  0.7350 -1.4433  1.1318
13159TIP3    H260969   6.257   5.056  12.442 -1.3294 -0.7226 -0.4439
13160TIP3   OH260970   3.734   5.098  15.052 -0.4201 -0.3749 -0.2017
13160TIP3    H160971   3.821   5.071  15.021 -0.5162 -1.5761  0.4918
13160TIP3    H260972   3.751   5.175  15.106  0.6188 -2.0612  2.0819
13161TIP3   OH260973   2.125   0.041  11.183  0.1595  0.1844  0.1072
13161TIP3    H160974   2.099  -0.051  11.184  0.9016 -0.1373 -2.3834
13161TIP3    H260975   2.214   0.041  11.218  0.4687 -0.1918 -0.6534
13162TIP3   OH260976   0.563   4.369  11.883 -0.5859  0.1784  0.1088
13162TIP3    H160977   0.598   4.423  11.954  0.2570  0.0338 -0.1832
13162TIP3    H260978   0.602   4.407  11.804 -0.5684 -0.4051 -0.1648
13163TIP3   OH260979   1.914   5.545  13.456 -0.0927 -0.2680  0.0494
13163TIP3    H160980   1.819   5.552  13.471  0.0467 -1.2737  1.6748
13163TIP3    H260981   1.928   5.589  13.373 -1.7416  1.4932  0.6201
13164TIP3   OH260982   5.665   1.578   5.065  0.0446 -0.0397  0.3142
13164TIP3    H160983   5.613   1.653   5.036 -0.3282 -0.8049 -1.0397
13164TIP3    H260984   5.645   1.570   5.158  0.9872  2.2424  0.7895
13165TIP3   OH260985   0.671   5.292  17.000 -0.5322  0.0218  0.3805
13165TIP3    H160986   0.656   5.224  17.065 -1.1175  0.3193  0.5612
13165TIP3    H260987   0.712   5.363  17.048 -2.8336  1.0876  0.9239
13166TIP3   OH260988   3.410   4.616  15.232  0.0985 -0.0685 -0.6597
13166TIP3    H160989   3.373   4.646  15.149  1.3460 -1.1007 -1.6395
13166TIP3    H260990   3.474   4.549  15.207  0.1359 -0.7798  1.1788
13167TIP3   OH260991   5.518   6.476  14.384 -0.1625 -0.2560  0.0230
13167TIP3    H160992   5.567   6.520  14.453 -0.1199  0.6006 -0.5448
13167TIP3    H260993   5.450   6.427  14.431  1.0114 -1.2049  0.7962
13168TIP3   OH260994   2.913   1.613   0.008 -0.2723 -0.0038 -0.3344
13168TIP3    H160995   2.879   1.560   0.081  1.6574 -1.5254 -0.4464
13168TIP3    H260996   2.966   1.680   0.051 -0.7289  0.3192 -0.2735
13169TIP3   OH260997   1.715   1.892   6.633  0.4137  0.6563 -0.1253
13169TIP3    H160998   1.649   1.867   6.569 -1.2342 -0.1475  1.7920
13169TIP3    H260999   1.752   1.808   6.662  0.7781  0.9728  0.3337
13170TIP3   OH261000   4.477   2.294   0.349  0.7349  0.0432 -0.0529
13170TIP3    H161001   4.532   2.346   0.291 -0.2560  1.0776 -0.0990
13170TIP3    H261002   4.438   2.358   0.409 -1.1707 -0.5120 -0.6365
13171TIP3   OH261003   5.052   4.773  15.984 -0.2744 -0.4949  0.2196
13171TIP3    H161004   5.112   4.721  16.038  1.4303 -0.2538 -1.3373
13171TIP3    H261005   5.063   4.863  16.015 -2.9043 -0.8705  2.6212
13172TIP3   OH261006   5.979   4.864   0.307  0.1994 -0.5905 -0.6355
13172TIP3    H161007   6.004   4.943   0.354  2.0126 -0.0398 -2.3715
13172TIP3    H261008   5.889   4.848   0.333 -0.2238  2.0538 -0.2243
13173TIP3   OH261009   6.393   5.565  15.357  0.6701 -0.1404  0.8009
13173TIP3    H161010   6.309   5.579  15.400  0.2620 -1.2951  0.4349
13173TIP3    H261011   6.372   5.509  15.282  1.4881  1.1077 -0.4090
13174TIP3   OH261012   6.778   0.386  11.444  1.0202  0.0274 -0.2755
13174TIP3    H161013   6.860   0.385  11.493  2.6981  0.7193 -2.8455
13174TIP3    H261014   6.784   0.463  11.388 -1.2308 -0.1401 -0.8540
13175TIP3   OH261015   3.007   0.829  16.339  0.2317 -0.1070 -0.0077
13175TIP3    H161016   3.096   0.811  16.370  0.6958  1.1746 -0.5333
13175TIP3    H261017   2.996   0.774  16.262  0.1738 -1.0343  0.6373
13176TIP3   OH261018   5.210   6.404   2.320  0.2372 -0.5733  0.3785
13176TIP3    H161019   5.170   6.372   2.239  0.1185 -1.1792  0.6711
13176TIP3    H261020   5.275   6.338   2.342 -1.1445 -1.5117  1.8800
13177TIP3   OH261021   0.949   3.432   5.954  0.7018 -0.3924 -0.1348
13177TIP3    H161022   1.011   3.391   6.015  1.2565 -0.3392 -0.6570
13177TIP3    H261023   0.947   3.374   5.878 -1.9661 -1.8822  0.9318
13178TIP3   OH261024   4.516   4.766  14.950 -0.0885 -0.0124 -0.4096
13178TIP3    H161025   4.501   4.843  14.895  0.8234  0.8429  0.5018
13178TIP3    H261026   4.611   4.756  14.952  0.0567  1.0875  2.4330
13179TIP3   OH261027   2.903   1.065  11.335  0.6911 -0.3051 -0.2449
13179TIP3    H161028   2.869   1.144  11.293 -0.4221 -0.4348  0.3869
13179TIP3    H261029   2.898   1.082  11.429  1.6175 -0.6553 -0.1179
13180TIP3   OH261030   1.638   2.995   3.397 -0.3977  0.3503  0.1178
13180TIP3    H161031   1.580   2.939   3.346  0.6439 -0.1385 -0.5598
13180TIP3    H261032   1.631   3.081   3.355 -2.3403  0.9020  1.4314
13181TIP3   OH261033   3.218   6.615   1.315  0.0046  0.1469  0.8836
13181TIP3    H161034   3.156   6.637   1.384 -1.0240 -0.1705  0.0815
13181TIP3    H261035   3.183   6.656   1.236 -0.8381 -2.4659 -0.2057
13182TIP3   OH261036   5.635   3.688  14.734  0.5681 -0.0363 -0.0678
13182TIP3    H161037   5.555   3.741  14.728 -0.5917 -1.6807  0.0993
13182TIP3    H261038   5.625   3.639  14.815  1.3753 -0.8718 -0.4602
13183TIP3   OH261039   2.929   0.307   1.047 -0.0218 -0.4005 -0.3798
13183TIP3    H161040   2.974   0.330   1.128 -0.7340  0.8365 -0.3077
13183TIP3    H261041   2.836   0.311   1.070 -0.2101 -1.4813 -0.8912
13184TIP3   OH261042   0.827   3.477   0.973  0.2119  0.4501 -0.1411
13184TIP3    H161043   0.753   3.427   1.007 -0.2676 -0.7953 -2.7655
13184TIP3    H261044   0.884   3.411   0.934  1.7946  1.5794  0.1654
13185TIP3   OH261045   5.646   5.788  17.224 -0.3827 -0.0103  0.2680
13185TIP3    H161046   5.674   5.827  17.306  0.8522 -0.5615  0.1332
13185TIP3    H261047   5.585   5.852  17.187  0.5534  1.1731  0.6818
13186TIP3   OH261048   0.753   4.881  10.519 -0.3590  0.1470 -0.1730
13186TIP3    H161049   0.714   4.948  10.576 -0.8139  0.1627 -0.4958
13186TIP3    H261050   0.687   4.812  10.517  0.2298 -0.4427  0.3907
13187TIP3   OH261051   1.378   1.455  14.910 -0.2192 -0.0081 -0.1913
13187TIP3    H161052   1.326   1.390  14.863 -1.6024 -0.1762  1.4633
13187TIP3    H261053   1.448   1.404  14.950  0.3479 -0.0213 -1.1691
13188TIP3   OH261054   5.517   5.324   2.985 -0.1546  0.2221 -0.2060
13188TIP3    H161055   5.535   5.336   3.078 -1.7221  2.0705 -0.0910
13188TIP3    H261056   5.435   5.275   2.983  0.0592 -0.1203 -0.6246
13189TIP3   OH261057   4.652   6.117  16.628  0.1607  0.4003  0.3879
13189TIP3    H161058   4.671   6.034  16.584 -0.6535 -0.4008  1.4946
13189TIP3    H261059   4.558   6.115  16.644 -0.1977  2.3500 -1.1213
13190TIP3   OH261060   0.677   5.030  12.433  0.4006 -0.1880  0.5654
13190TIP3    H161061   0.687   5.039  12.338 -0.7609 -0.3644  0.4034
13190TIP3    H261062   0.675   5.120  12.465 -0.1548 -0.0995  0.2972
13191TIP3   OH261063   6.711   4.162  15.651 -0.5067  0.2504 -0.2777
13191TIP3    H161064   6.709   4.145  15.557 -0.5007 -0.7878 -0.0991
13191TIP3    H261065   6.700   4.257  15.659  2.5592  0.8339 -1.4750
13192TIP3   OH261066   2.832   2.730  13.864 -0.0662  0.3626 -0.2079
13192TIP3    H161067   2.926   2.714  13.867 -0.2392 -0.7961 -0.3289
13192TIP3    H261068   2.796   2.676  13.934 -0.6498  0.7566 -0.1951
13193TIP3   OH261069   2.705   0.134   2.486 -0.4911 -0.1888  0.4992
13193TIP3    H161070   2.705   0.038   2.489 -0.5140 -0.1995  0.1661
13193TIP3    H261071   2.621   0.159   2.524 -1.6583 -0.3833 -1.7968
13194TIP3   OH261072   2.858   2.371   5.160 -0.1748 -0.2808  0.5001
13194TIP3    H161073   2.861   2.459   5.197 -0.7938  0.8081 -1.8546
13194TIP3    H261074   2.924   2.322   5.210  0.8946  1.7683  1.2312
13195TIP3   OH261075   4.917   0.403   4.182  0.7412 -0.7076  0.4560
13195TIP3    H161076   4.965   0.403   4.265 -0.7664 -0.1734  1.3615
13195TIP3    H261077   4.825   0.400   4.208  0.0939  2.1432 -1.0924
13196TIP3   OH261078   5.203   4.587  14.484 -0.2425  0.0815 -0.2447
13196TIP3    H161079   5.177   4.499  14.511  0.2087 -0.2894 -0.9908
13196TIP3    H261080   5.197   4.585  14.388  0.2823  0.6972 -0.2935
13197TIP3   OH261081   4.511   4.430  15.617 -0.0636 -0.5247  0.1507
13197TIP3    H161082   4.468   4.516  15.624 -0.2153 -0.4409 -1.3996
13197TIP3    H261083   4.596   4.449  15.577  0.4591 -0.9655  1.0282
13198TIP3   OH261084   3.436   1.399  12.911 -0.0474  0.4319  0.0457
13198TIP3    H161085   3.516   1.451  12.917  0.3933 -0.3892  1.5863
13198TIP3    H261086   3.421   1.389  12.817  0.0234  3.0500 -0.3308
13199TIP3   OH261087   2.147   5.024  11.115 -0.7473  0.1119  0.0395
13199TIP3    H161088   2.200   4.949  11.090 -0.0737  0.3665  0.6681
13199TIP3    H261089   2.089   4.990  11.184  0.1674  0.3619  0.9568
13200TIP3   OH261090   0.216   0.779  15.075  0.0377 -0.0124  0.7850
13200TIP3    H161091   0.286   0.800  15.013 -1.4554 -1.5521 -1.6215
13200TIP3    H261092   0.173   0.863  15.092  0.4727  0.4655 -0.3462
13201TIP3   OH261093   6.011   4.683   2.484  0.2731 -0.0995 -0.4552
13201TIP3    H161094   6.030   4.747   2.553 -0.3585 -0.3231 -0.0680
13201TIP3    H261095   5.991   4.736   2.407 -0.9095  0.1920  0.0393
13202TIP3   OH261096   5.196   5.132   1.386  0.3700  0.0912  0.0427
13202TIP3    H161097   5.164   5.121   1.475 -1.0822 -0.8043 -0.5485
13202TIP3    H261098   5.242   5.050   1.367 -0.7450 -0.4117 -0.5683
13203TIP3   OH261099   4.052   0.293   5.098  0.5384 -0.2122  0.4972
13203TIP3    H161100   3.983   0.357   5.080  1.0040  0.2633  0.3495
13203TIP3    H261101   4.020   0.211   5.062 -0.1034 -0.0782  0.7572
13204TIP3   OH261102   4.433   1.320  12.836  0.1803  0.5583  0.2404
13204TIP3    H161103   4.395   1.398  12.794  0.8875  0.0827 -1.3651
13204TIP3    H261104   4.448   1.259  12.764 -1.3704 -1.5306  1.5780
13205TIP3   OH261105   2.398   4.981  12.100 -0.5339  0.0235 -0.4056
13205TIP3    H161106   2.303   4.989  12.095 -0.5479  0.4638  0.5169
13205TIP3    H261107   2.415   4.939  12.184  0.0590 -0.7619 -0.8956
13206TIP3   OH261108   6.533   5.377   4.354  0.1686 -0.1516  0.1657
13206TIP3    H161109   6.458   5.390   4.411  1.3504  1.6527  1.4397
13206TIP3    H261110   6.565   5.466   4.337  1.2318 -0.8011 -1.4185
13207TIP3   OH261111   5.961   0.260  16.664 -0.6973  0.5729  0.1893
13207TIP3    H161112   5.988   0.170  16.645 -1.8398 -0.3897  2.6490
13207TIP3    H261113   5.875   0.269  16.622 -0.7144  0.4013  0.1861
13208TIP3   OH261114   4.452   4.581  13.798 -0.0099  0.2590 -0.2805
13208TIP3    H161115   4.507   4.659  13.784  1.9299 -0.9178  0.3624
13208TIP3    H261116   4.500   4.511  13.755 -0.6890 -0.9468  0.8739
13209TIP3   OH261117   5.887   0.736  17.138 -0.2635  0.0770  0.2105
13209TIP3    H161118   5.831   0.790  17.194 -0.0351 -0.1323  0.6428
13209TIP3    H261119   5.921   0.668  17.196  0.6115  0.3258  0.0090
13210TIP3   OH261120   6.138   3.935   5.194 -0.7638 -0.1095  0.1781
13210TIP3    H161121   6.068   3.999   5.211 -0.3445  0.4136 -0.0277
13210TIP3    H261122   6.202   3.984   5.143  0.9524  0.1986  2.4622
13211TIP3   OH261123   6.284   2.121  16.351  0.2932  0.2163 -0.7191
13211TIP3    H161124   6.236   2.171  16.285 -0.0858  1.2712  0.3360
13211TIP3    H261125   6.217   2.075  16.400  0.5745 -0.5466 -1.0312
13212TIP3   OH261126   2.156   2.722   3.139  0.2659  0.3147 -0.0092
13212TIP3    H161127   2.125   2.632   3.126  1.7594 -0.1961 -0.1504
13212TIP3    H261128   2.225   2.733   3.075  1.8551  0.6720  1.6772
13213TIP3   OH261129   0.032   0.647   0.740 -0.1996 -0.1353  0.3240
13213TIP3    H161130   0.034   0.650   0.836 -0.3664  1.7252  0.2963
13213TIP3    H261131  -0.027   0.718   0.715 -0.7976 -1.1085 -1.1518
13214TIP3   OH261132   5.259   3.858  12.657  0.1819  0.5208 -0.1155
13214TIP3    H161133   5.225   3.948  12.649  1.2749  0.8170 -2.1753
13214TIP3    H261134   5.280   3.849  12.749 -0.4439  2.2091  0.2333
13215TIP3   OH261135   6.497   0.310   2.692  0.2296  0.0570 -0.3703
13215TIP3    H161136   6.531   0.225   2.664 -1.1977 -1.0762  1.1590
13215TIP3    H261137   6.473   0.354   2.610  0.8639 -1.0473 -1.1819
13216TIP3   OH261138   1.529   3.294   0.890  0.6505  0.6490  0.3192
13216TIP3    H161139   1.547   3.370   0.946  1.5207  0.2514  0.5926
13216TIP3    H261140   1.537   3.219   0.949  0.8995  0.2715 -0.1943
13217TIP3   OH261141   3.747   6.527   4.526 -0.3279 -0.5251 -0.4252
13217TIP3    H161142   3.738   6.618   4.556 -1.1036 -0.6593 -0.2184
13217TIP3    H261143   3.738   6.475   4.606  0.7929 -0.7719 -0.4385
13218TIP3   OH261144   4.313   5.351   3.740 -0.8010  0.5292 -0.1509
13218TIP3    H161145   4.398   5.387   3.766 -0.3792 -0.3208 -0.3383
13218TIP3    H261146   4.262   5.428   3.713  0.0449  1.0033 -0.4254
13219TIP3   OH261147   0.394   4.960  14.794  0.2540 -0.8207 -0.0526
13219TIP3    H161148   0.482   4.988  14.771  0.3098 -1.7108 -0.9620
13219TIP3    H261149   0.406   4.880  14.845 -0.0088 -0.4967  0.5394
13220TIP3   OH261150   5.378   5.518  17.224 -0.1365 -0.3043  0.1319
13220TIP3    H161151   5.382   5.478  17.137  1.5489  0.2133 -0.0581
13220TIP3    H261152   5.302   5.575  17.220 -0.3253 -0.5976 -0.8604
13221TIP3   OH261153   5.360   4.308   2.939  0.7335 -0.0246 -0.0858
13221TIP3    H161154   5.290   4.333   2.879 -0.1816 -1.9029  0.1185
13221TIP3    H261155   5.315   4.279   3.018  1.8567  0.8271  0.9087
13222TIP3   OH261156   0.732   4.894   6.506  0.4627 -0.0075  0.2095
13222TIP3    H161157   0.734   4.949   6.585 -2.9174  0.2305  0.2670
13222TIP3    H261158   0.714   4.806   6.539  0.7946 -0.2346 -0.2081
13223TIP3   OH261159   5.742   5.114   4.309 -0.0796 -0.1530 -0.4326
13223TIP3    H161160   5.737   5.035   4.254  2.3953  0.1535 -1.2284
13223TIP3    H261161   5.818   5.099   4.365 -0.4673  1.0695  0.4597
13224TIP3   OH261162   0.899   5.481  10.548  0.0059 -0.4858  0.5404
13224TIP3    H161163   0.915   5.443  10.461 -0.4922  0.1117  0.1751
13224TIP3    H261164   0.906   5.575  10.534 -0.1560 -0.3827  1.1336
13225TIP3   OH261165   6.447   3.076   5.481  0.4815 -0.0663 -0.1932
13225TIP3    H161166   6.427   3.060   5.389  0.0200  1.1810 -0.3323
13225TIP3    H261167   6.542   3.083   5.484  0.6623 -2.0001 -0.2234
13226TIP3   OH261168   0.138   3.527   2.464  0.1901 -0.1746  0.3385
13226TIP3    H161169   0.066   3.587   2.482  0.0514 -1.1230  3.5960
13226TIP3    H261170   0.096   3.443   2.446  0.3835 -0.7552  2.3477
13227TIP3   OH261171   1.888   4.549  14.997 -0.3185 -0.5539 -0.2783
13227TIP3    H161172   1.838   4.599  15.062  0.3754  0.1633 -0.2730
13227TIP3    H261173   1.968   4.525  15.043  0.8912  1.3031 -1.2934
13228TIP3   OH261174   3.197   1.931   6.575 -0.0849 -0.3144 -0.4842
13228TIP3    H161175   3.154   1.972   6.500 -4.0947 -0.4815  1.4320
13228TIP3    H261176   3.178   1.838   6.567  0.3227 -0.4728  0.2278
13229TIP3   OH261177   5.105   1.763   6.292  0.0240  0.0295  0.1254
13229TIP3    H161178   5.104   1.787   6.385 -1.0065 -3.2798  1.0833
13229TIP3    H261179   5.018   1.786   6.261 -0.0943 -0.1117  0.3487
13230TIP3   OH261180   3.565   1.073  16.339  0.0676  0.1818 -0.5022
13230TIP3    H161181   3.521   1.082  16.424 -1.6310 -2.3686 -0.9971
13230TIP3    H261182   3.498   1.098  16.275  1.3158  2.0355 -1.1590
13231TIP3   OH261183   6.309   6.416  14.699 -0.6107 -0.1682 -0.1414
13231TIP3    H161184   6.356   6.494  14.729 -0.0597  0.3034 -2.0958
13231TIP3    H261185   6.241   6.402  14.766  0.4150  0.8946  1.1863
13232TIP3   OH261186   0.736   0.304   3.640 -0.3427  0.0491 -0.3332
13232TIP3    H161187   0.814   0.249   3.637 -0.9066 -0.9418  1.2557
13232TIP3    H261188   0.769   0.393   3.654  0.5353 -0.1623 -1.0322
13233TIP3   OH261189   4.776   6.289   0.191 -0.0869 -0.6204  0.0797
13233TIP3    H161190   4.746   6.200   0.176 -1.0225 -0.4702  0.9384
13233TIP3    H261191   4.872   6.283   0.188 -0.1315 -1.7067  0.3866
13234TIP3   OH261192   4.468   5.763  11.845  0.0964  0.2624  0.3368
13234TIP3    H161193   4.445   5.700  11.914 -0.6148 -0.8612 -0.8748
13234TIP3    H261194   4.542   5.812  11.882  0.6577 -1.2421  1.3711
13235TIP3   OH261195   4.135   4.739   1.279  0.4998 -0.1330  0.0092
13235TIP3    H161196   4.105   4.704   1.195 -0.0928 -0.5375  0.3898
13235TIP3    H261197   4.059   4.786   1.314  0.8036  0.1971  0.2370
13236TIP3   OH261198   0.981   0.352   2.911 -0.0022 -0.2380  0.1843
13236TIP3    H161199   1.049   0.314   2.968  0.3311  0.9139  0.5725
13236TIP3    H261200   1.006   0.443   2.901 -0.3892 -0.2773 -1.3559
13237TIP3   OH261201   5.364   2.427  12.019 -0.1796  0.0454  0.5488
13237TIP3    H161202   5.371   2.451  12.111 -0.4441  2.2090  0.0540
13237TIP3    H261203   5.454   2.411  11.991  0.1114  1.2638  0.7398
13238TIP3   OH261204   6.682   0.429   0.060  0.1376  0.1220 -0.0263
13238TIP3    H161205   6.591   0.431   0.090 -0.3284 -0.9317 -1.3084
13238TIP3    H261206   6.711   0.520   0.066 -1.1979  0.5742 -0.1655
13239TIP3   OH261207   6.344   5.130   0.676 -0.1863 -0.1759 -0.0259
13239TIP3    H161208   6.382   5.083   0.750 -0.4057 -0.9220 -0.3806
13239TIP3    H261209   6.254   5.099   0.670 -0.8692  1.5201  0.7510
13240TIP3   OH261210   3.238   0.558   6.349  0.0637  0.0653  0.1650
13240TIP3    H161211   3.209   0.609   6.274 -0.7505  1.0599  1.1167
13240TIP3    H261212   3.161   0.554   6.407  0.3266 -1.6443  0.4417
13241TIP3   OH261213   0.277   3.908   5.944 -0.0018  0.7115 -0.1708
13241TIP3    H161214   0.273   3.867   5.858 -0.3142  0.3496  0.0138
13241TIP3    H261215   0.348   3.972   5.937  2.6386 -1.9246  0.4103
13242TIP3   OH261216   0.070   0.006   2.090 -0.7297  0.2964 -0.1245
13242TIP3    H161217   0.072   0.069   2.018 -0.7866  0.3981 -0.0377
13242TIP3    H261218   0.014  -0.065   2.058  1.8993 -1.2856 -1.5060
13243TIP3   OH261219   2.313   1.056  16.151  0.3119  0.2565  0.2100
13243TIP3    H161220   2.234   1.100  16.118 -0.4986 -0.3403  1.2970
13243TIP3    H261221   2.311   1.070  16.246  1.6418  0.4087  0.2385
13244TIP3   OH261222   1.301   4.923   4.345  0.3771  0.2670 -0.4371
13244TIP3    H161223   1.315   4.924   4.439  1.7450  1.2721 -0.6327
13244TIP3    H261224   1.222   4.976   4.332  1.9307  2.8161 -0.0766
13245TIP3   OH261225   3.237   4.948   5.307 -0.4711 -0.4784 -0.0902
13245TIP3    H161226   3.246   4.882   5.239  1.4747 -0.8677  0.4657
13245TIP3    H261227   3.173   4.913   5.368 -0.0562 -1.4868 -0.2233
13246TIP3   OH261228   5.620   4.274   0.628 -0.0293  0.1518 -0.5051
13246TIP3    H161229   5.541   4.273   0.575 -0.5907 -2.6594  0.2203
13246TIP3    H261230   5.673   4.202   0.593  1.5721  1.0677 -0.0634
13247TIP3   OH261231   4.575   2.458  16.790  0.2087  0.2803 -0.0105
13247TIP3    H161232   4.532   2.405  16.724 -0.0915  1.1955 -0.5625
13247TIP3    H261233   4.645   2.503  16.743  0.9062 -0.1346  0.5961
13248TIP3   OH261234   4.214   4.824   2.291 -0.0153  0.3262  1.0113
13248TIP3    H161235   4.287   4.763   2.299 -1.0247 -1.7140 -2.6317
13248TIP3    H261236   4.145   4.787   2.346 -0.9424 -2.6503 -1.8703
13249TIP3   OH261237   1.126   1.073   4.913  0.7184  0.0593 -0.2164
13249TIP3    H161238   1.091   1.159   4.892  2.7217  1.1175  0.5250
13249TIP3    H261239   1.059   1.012   4.884 -0.0031  1.7655 -2.3975
13250TIP3   OH261240   4.469   4.014   1.174 -0.4297 -0.2123 -0.1915
13250TIP3    H161241   4.460   3.947   1.107 -3.1178  0.6152 -0.7757
13250TIP3    H261242   4.547   4.064   1.147 -1.0699 -0.2769 -2.3993
13251TIP3   OH261243   1.757   1.994  17.077  0.1932  0.1279 -0.2070
13251TIP3    H161244   1.693   1.963  17.013  0.7315 -0.8106 -0.2988
13251TIP3    H261245   1.722   1.966  17.161  0.5753 -0.5740 -0.2739
13252TIP3   OH261246   2.732   1.748   0.790  0.5316  0.6714  0.5085
13252TIP3    H161247   2.679   1.694   0.731 -1.3737 -0.5189  3.1470
13252TIP3    H261248   2.725   1.837   0.753  1.6965 -0.3300 -2.4983
13253TIP3   OH261249   3.773   2.317  12.513 -0.8184  0.1551 -0.1460
13253TIP3    H161250   3.734   2.383  12.570 -1.3438 -0.0069 -0.3112
13253TIP3    H261251   3.821   2.259  12.573 -0.3547  0.6748 -0.0003
13254TIP3   OH261252   5.658   6.229  12.179 -0.1060 -0.6490  0.3404
13254TIP3    H161253   5.596   6.301  12.165  0.7407  0.1706  0.7097
13254TIP3    H261254   5.605   6.160  12.219 -0.5645  0.4730  1.7818
13255TIP3   OH261255   3.840   0.272   0.487 -0.0143  0.8410 -0.3081
13255TIP3    H161256   3.935   0.264   0.481 -0.0833  0.5860 -1.3862
13255TIP3    H261257   3.816   0.326   0.411 -0.8903 -0.7552 -1.2335
13256TIP3   OH261258   2.909   5.467  13.287  0.2753 -0.6711  0.3390
13256TIP3    H161259   2.958   5.461  13.205  0.6500 -1.5606  0.6145
13256TIP3    H261260   2.854   5.544  13.277 -0.7668 -1.5904 -1.3512
13257TIP3   OH261261   2.341   2.356   3.758  0.7194  0.2522  0.2724
13257TIP3    H161262   2.278   2.317   3.697  0.3066  1.1481  0.1115
13257TIP3    H261263   2.298   2.436   3.789  0.4863 -0.6455  2.4858
13258TIP3   OH261264   6.635   3.003   4.331  0.4525 -0.1815  0.6246
13258TIP3    H161265   6.691   2.927   4.320  0.7126  0.2267 -0.9919
13258TIP3    H261266   6.603   2.996   4.421 -1.2180 -3.3496 -0.0805
13259TIP3   OH261267   1.987   1.957   2.313  0.5455 -0.2274 -0.5444
13259TIP3    H161268   2.052   1.941   2.245  0.3352  1.7922 -1.2683
13259TIP3    H261269   1.952   2.044   2.294 -0.9471 -0.4307  0.9968
13260TIP3   OH261270   6.614   1.522  16.822  0.4782 -0.2948 -0.3445
13260TIP3    H161271   6.561   1.553  16.896 -0.1529  0.6721 -1.1701
13260TIP3    H261272   6.554   1.526  16.748  1.9696  1.9062 -1.5404
13261TIP3   OH261273   6.495   0.140  12.547  0.6667 -0.1181 -0.1115
13261TIP3    H161274   6.481   0.206  12.480  1.4091  0.0387 -0.1192
13261TIP3    H261275   6.566   0.174  12.601  1.5220 -1.2106 -0.5175
13262TIP3   OH261276   4.683   0.259  14.866 -0.1258 -0.3268  0.1722
13262TIP3    H161277   4.708   0.203  14.940 -0.8772 -0.0297  0.6676
13262TIP3    H261278   4.739   0.230  14.794  1.2921  0.0148  1.1017
13263TIP3   OH261279   1.528   0.284  16.430 -0.4195 -0.2976  0.3722
13263TIP3    H161280   1.565   0.275  16.342 -1.5627  0.2377 -0.1832
13263TIP3    H261281   1.541   0.198  16.470 -1.0800 -0.9756 -0.7959
13264TIP3   OH261282   4.621   3.068  12.787  0.6463  0.5299 -0.2279
13264TIP3    H161283   4.658   3.072  12.875 -0.2556  0.3948  0.1569
13264TIP3    H261284   4.673   3.132  12.737  0.7148  1.1015  0.5617
13265TIP3   OH261285   4.461   3.335   3.036  0.6324 -0.6235 -0.1056
13265TIP3    H161286   4.407   3.306   3.110 -0.8948  1.3878 -0.3517
13265TIP3    H261287   4.495   3.420   3.063  1.4620 -0.6335 -1.0699
13266TIP3   OH261288   6.186   1.720  15.664  0.2206 -0.5202  0.0403
13266TIP3    H161289   6.158   1.646  15.611 -0.1237 -0.0427 -0.4545
13266TIP3    H261290   6.240   1.681  15.733 -0.4937 -1.2940  0.1715
13267TIP3   OH261291   2.166   2.267  10.400 -0.3246 -0.5139 -0.3055
13267TIP3    H161292   2.104   2.201  10.369 -2.1756  0.2769  1.4859
13267TIP3    H261293   2.227   2.217  10.456  1.4192 -1.4702 -2.8938
13268TIP3   OH261294   0.337   5.030   5.359  0.0899 -0.2335 -0.2631
13268TIP3    H161295   0.431   5.016   5.368  0.1095  0.3387  0.4536
13268TIP3    H261296   0.313   5.084   5.435 -1.0644 -1.5834  0.3762
13269TIP3   OH261297   0.259   5.333   3.044 -0.0463 -0.6997 -1.3248
13269TIP3    H161298   0.281   5.242   3.065  0.0240 -0.5555 -0.7600
13269TIP3    H261299   0.342   5.380   3.048  0.1155 -0.8160 -2.7835
13270TIP3   OH261300   1.957   1.614   1.295  0.0111  0.3779  0.7946
13270TIP3    H161301   1.898   1.665   1.350  0.5432  2.0088 -0.0753
13270TIP3    H261302   1.991   1.677   1.231 -0.5184 -1.4064 -1.3840
13271TIP3   OH261303   3.646   0.315  16.330 -0.0550 -0.0883 -0.4351
13271TIP3    H161304   3.552   0.310  16.309 -0.3414  0.1728  0.7016
13271TIP3    H261305   3.663   0.237  16.382 -0.1908  0.9391  1.2653
13272TIP3   OH261306   3.321   5.529  14.216 -0.1315  0.6365 -0.3063
13272TIP3    H161307   3.266   5.519  14.138  0.0277  0.2659 -0.3724
13272TIP3    H261308   3.336   5.623  14.222 -1.2903  0.8169  0.0678
13273TIP3   OH261309   2.726   3.365   5.658 -0.2757  0.1579  0.0050
13273TIP3    H161310   2.736   3.373   5.753 -0.4635 -0.2572  0.0607
13273TIP3    H261311   2.725   3.271   5.642 -0.2187  0.2292 -0.4112
13274TIP3   OH261312   1.181   2.918   5.664  0.6845  0.0441  0.2966
13274TIP3    H161313   1.246   2.983   5.692  0.5457  0.6074 -0.6593
13274TIP3    H261314   1.105   2.969   5.638 -0.6064 -0.6628  2.4499
13275TIP3   OH261315   0.561   4.715  13.455  0.4805  0.0252  0.4020
13275TIP3    H161316   0.571   4.719  13.550  1.3309  0.8335  0.2956
13275TIP3    H261317   0.628   4.653  13.427  0.9095  0.5552  0.2461
13276TIP3   OH261318   0.827   3.929  17.059  0.2959 -0.6370  0.0782
13276TIP3    H161319   0.802   3.868  17.129 -2.4467  0.4378  0.1349
13276TIP3    H261320   0.745   3.954  17.019  1.6978 -0.1932 -2.7427
13277TIP3   OH261321   4.257   4.050   1.744 -0.2255 -0.4103  0.5919
13277TIP3    H161322   4.193   4.060   1.674 -1.0365  0.4390  1.4213
13277TIP3    H261323   4.276   3.957   1.746 -0.6398 -0.5286 -0.3501
13278TIP3   OH261324   0.503   3.745   2.192  0.5564  0.1109 -0.3399
13278TIP3    H161325   0.467   3.798   2.120  2.5291  1.5287 -0.3506
13278TIP3    H261326   0.524   3.661   2.151 -1.9660 -0.5342 -0.4848
13279TIP3   OH261327   0.931   2.954   2.918  0.0887  0.5433 -0.3088
13279TIP3    H161328   0.864   2.950   2.850 -0.6277 -0.0692  0.4080
13279TIP3    H261329   0.882   2.968   2.999  0.8255  0.0628  0.2392
13280TIP3   OH261330   1.100   5.996  11.531 -0.1287  0.1488 -0.4923
13280TIP3    H161331   1.104   5.908  11.495 -0.5424  0.6252 -1.7662
13280TIP3    H261332   1.041   6.044  11.472 -0.0894  1.2124  0.2983
13281TIP3   OH261333   6.150   0.689  17.092 -0.5581 -0.4787 -0.3683
13281TIP3    H161334   6.057   0.710  17.100  0.2650  3.9850  0.4620
13281TIP3    H261335   6.181   0.682  17.182 -0.0735 -2.2295 -0.6379
13282TIP3   OH261336   5.513   5.880  14.853 -0.0020  0.5647 -0.2091
13282TIP3    H161337   5.486   5.865  14.763  0.5153  0.5441 -0.3638
13282TIP3    H261338   5.590   5.824  14.865  0.0779  0.7499  0.1686
13283TIP3   OH261339   3.044   3.587  13.737 -0.2117 -0.1180  0.3167
13283TIP3    H161340   2.960   3.542  13.723 -1.2983  1.9082 -0.0932
13283TIP3    H261341   3.039   3.621  13.826  0.3896 -0.3932  0.4597
13284TIP3   OH261342   2.023   5.513  14.463  0.3288 -0.3439 -0.2761
13284TIP3    H161343   1.958   5.523  14.532  0.7164 -0.3544  0.0935
13284TIP3    H261344   1.984   5.450  14.403 -1.0154  1.3836 -1.2929
13285TIP3   OH261345   4.976   5.129   4.090  0.3052 -0.4526 -0.4539
13285TIP3    H161346   5.031   5.194   4.135  1.2364 -0.7937 -1.0586
13285TIP3    H261347   4.937   5.178   4.017  0.1201 -0.2988 -0.2509
13286TIP3   OH261348   5.464   5.737   0.324 -0.0334 -0.5441 -0.8343
13286TIP3    H161349   5.558   5.742   0.312 -0.0776  0.9380 -0.8136
13286TIP3    H261350   5.434   5.828   0.318 -1.2631 -0.8011  0.6944
13287TIP3   OH261351   2.254   1.930  12.916  0.0328  0.0339  0.7342
13287TIP3    H161352   2.258   2.007  12.973  1.1504  0.5790 -0.0507
13287TIP3    H261353   2.166   1.895  12.929 -0.9974  2.2201  0.1426
13288TIP3   OH261354   3.480   2.289   5.755 -0.3122 -0.1800  0.0569
13288TIP3    H161355   3.517   2.216   5.706  0.9198  1.3058 -1.3715
13288TIP3    H261356   3.437   2.342   5.689 -0.9434  0.5306  1.0133
13289TIP3   OH261357   2.229   1.886   0.150  0.6873  0.3395 -0.0729
13289TIP3    H161358   2.320   1.891   0.179  0.2679 -0.7227  1.5664
13289TIP3    H261359   2.182   1.948   0.207  0.3259  0.7015 -0.7427
13290TIP3   OH261360   3.910   1.892  15.912 -0.2535 -0.7233 -0.3126
13290TIP3    H161361   3.996   1.928  15.887  0.3516 -0.6533  1.7050
13290TIP3    H261362   3.858   1.899  15.832  1.4209 -0.1791 -1.4259
13291TIP3   OH261363   1.772   2.189  12.292  0.2583 -0.1612 -0.1571
13291TIP3    H161364   1.820   2.257  12.244  1.3255 -1.4870 -1.0447
13291TIP3    H261365   1.681   2.200  12.265  0.4704  0.7018 -0.5459
13292TIP3   OH261366   5.230   0.630  15.384  0.0280  1.1004 -0.5705
13292TIP3    H161367   5.171   0.610  15.311 -1.1085  0.6254  0.4590
13292TIP3    H261368   5.262   0.544  15.413 -0.3176  1.2045  0.1367
13293TIP3   OH261369   2.439   2.419  14.573  0.0283  0.0194 -0.4540
13293TIP3    H161370   2.475   2.342  14.618  0.3186  0.4154  0.0068
13293TIP3    H261371   2.479   2.493  14.618 -1.2371  0.4812 -0.0414
13294TIP3   OH261372   1.975   2.542  16.399 -0.7197  0.4059  0.1312
13294TIP3    H161373   2.000   2.457  16.364 -0.4447  0.5309  0.0220
13294TIP3    H261374   1.880   2.548  16.383 -0.5585  0.5769 -0.8496
13295TIP3   OH261375   4.704   2.211   5.568  0.5080 -0.0398 -0.0556
13295TIP3    H161376   4.786   2.162   5.560 -0.4095 -1.5604 -0.4353
13295TIP3    H261377   4.671   2.188   5.655  0.1971  0.1293 -0.1291
13296TIP3   OH261378   5.226   6.584  15.913  0.0646  0.8134  0.8979
13296TIP3    H161379   5.139   6.603  15.947  0.3506  0.8103  1.6525
13296TIP3    H261380   5.282   6.581  15.990  0.5240 -0.3656  0.5482
13297TIP3   OH261381   4.356   5.143   4.527 -0.3069  0.2405 -0.1447
13297TIP3    H161382   4.390   5.230   4.547 -0.1879  0.3273 -0.6859
13297TIP3    H261383   4.385   5.127   4.437  2.3571 -1.6265  0.9151
13298TIP3   OH261384   1.040   6.608  12.879 -0.4462  0.4300 -0.2268
13298TIP3    H161385   1.073   6.609  12.789 -1.7603  0.1474 -0.7364
13298TIP3    H261386   0.964   6.550  12.877  0.4909 -0.9489  1.4502
13299TIP3   OH261387   5.178   2.333  14.197 -0.5473  0.1659 -0.2890
13299TIP3    H161388   5.135   2.248  14.188 -0.1547 -0.2733  1.5159
13299TIP3    H261389   5.177   2.350  14.292 -1.1524  2.4588 -0.6425
13300TIP3   OH261390   0.695   0.726  16.017 -0.0670 -0.3132 -0.0481
13300TIP3    H161391   0.675   0.711  16.110  0.1845  0.2682  0.1079
13300TIP3    H261392   0.775   0.674  16.001  0.5064  0.4242  0.3497
13301TIP3   OH261393   2.706   3.855   5.303  0.3363  0.0426  0.0838
13301TIP3    H161394   2.735   3.821   5.388 -0.5789  0.8050  0.7101
13301TIP3    H261395   2.667   3.940   5.322 -2.0063 -0.7616 -0.7621
13302TIP3   OH261396   4.354   3.408  11.499 -0.3232  0.4540  0.3349
13302TIP3    H161397   4.386   3.480  11.444 -0.0662 -0.5596 -0.8925
13302TIP3    H261398   4.274   3.378  11.454  1.0115 -1.7492 -0.7398
13303TIP3   OH261399   4.028   0.410  11.856  0.3225 -0.0208  0.3270
13303TIP3    H161400   3.972   0.349  11.807  0.0455  0.4839  0.0122
13303TIP3    H261401   4.051   0.362  11.936  0.6329 -0.7865 -0.2092
13304TIP3   OH261402   0.601   3.619  16.856  0.0139  0.2784  0.3506
13304TIP3    H161403   0.530   3.664  16.901 -0.5845 -0.0650 -0.2328
13304TIP3    H261404   0.625   3.678  16.784  0.9451  0.8116  1.0797
13305TIP3   OH261405   4.324   3.285   0.019  0.0131  0.8277 -0.3075
13305TIP3    H161406   4.282   3.364   0.053 -0.3449  0.8362 -0.7547
13305TIP3    H261407   4.416   3.295   0.042 -0.1223  1.1128  0.1253
13306TIP3   OH261408   1.543   3.992  15.028  0.1231 -0.1123 -0.3389
13306TIP3    H161409   1.473   3.955  15.082  0.7340 -0.1400  0.4623
13306TIP3    H261410   1.571   4.070  15.076 -0.3790  0.7464 -1.4292
13307TIP3   OH261411   3.789   1.142   1.293 -0.2635  0.0758  0.1591
13307TIP3    H161412   3.809   1.058   1.333 -0.3412 -0.1303 -0.2380
13307TIP3    H261413   3.811   1.206   1.361 -0.8713 -0.2944  0.7184
13308TIP3   OH261414   6.667   1.123   3.175  0.5354 -0.3966  0.2438
13308TIP3    H161415   6.582   1.165   3.186  1.6837  1.8804  1.0825
13308TIP3    H261416   6.663   1.045   3.229 -1.2350 -0.7339 -0.3038
13309TIP3   OH261417   5.862   4.733  12.411 -0.1549 -0.2884 -0.4293
13309TIP3    H161418   5.907   4.814  12.390 -1.3784  1.1904  2.0741
13309TIP3    H261419   5.771   4.748  12.384 -0.5331 -0.4957  0.6412
13310TIP3   OH261420   1.709   1.198   2.442 -0.4661 -0.5863  0.6578
13310TIP3    H161421   1.770   1.200   2.517  0.0614  0.7853  0.2254
13310TIP3    H261422   1.721   1.111   2.404  1.9042 -0.0867  0.0828
13311TIP3   OH261423   6.312   2.439   5.674  0.1585  0.3781  0.3615
13311TIP3    H161424   6.274   2.377   5.612 -0.1469 -1.2137  2.0588
13311TIP3    H261425   6.404   2.445   5.648 -0.1408  0.3576 -0.7228
13312TIP3   OH261426   6.358   5.961  12.134 -0.5239  0.7527 -0.0671
13312TIP3    H161427   6.378   6.055  12.135  2.4499  0.2242 -0.3233
13312TIP3    H261428   6.388   5.929  12.219 -0.7081 -0.1154 -0.3155
13313TIP3   OH261429   5.278   1.833   0.016 -0.4397  0.3122 -0.1972
13313TIP3    H161430   5.211   1.809   0.080  0.1019  1.2880  0.7849
13313TIP3    H261431   5.343   1.763   0.021 -0.1698  0.6086  0.6945
13314TIP3   OH261432   5.960   0.766  13.215 -0.4044 -0.1153 -0.7584
13314TIP3    H161433   6.049   0.779  13.248  0.6446 -3.7014 -1.7686
13314TIP3    H261434   5.906   0.758  13.293  0.5264 -0.0540 -0.0949
13315TIP3   OH261435   0.642   2.446  12.502  0.1861 -0.6650  0.4959
13315TIP3    H161436   0.704   2.518  12.501 -1.8717  1.3566 -3.2118
13315TIP3    H261437   0.697   2.367  12.503  2.7888  0.9743 -0.9578
13316TIP3   OH261438   1.217   6.066   4.229  0.4637  0.3559 -0.0128
13316TIP3    H161439   1.263   6.020   4.300  1.3061  0.9184 -0.1714
13316TIP3    H261440   1.278   6.061   4.155 -0.2107  0.1750 -0.5648
13317TIP3   OH261441   6.801   4.730  13.888 -0.2326  0.1230  0.5159
13317TIP3    H161442   6.872   4.679  13.849  0.0741 -0.7720  2.1286
13317TIP3    H261443   6.771   4.787  13.818  2.1566  0.6145 -0.2079
13318TIP3   OH261444   5.940   0.640   5.043  0.5667 -0.3917  0.2551
13318TIP3    H161445   5.997   0.571   5.008  2.7820  0.3346  2.1483
13318TIP3    H261446   5.918   0.609   5.131 -1.4672 -0.3037 -0.1793
13319TIP3   OH261447   0.345   2.356  13.736 -0.4819 -0.5389  0.0467
13319TIP3    H161448   0.369   2.299  13.810 -1.8563 -1.6155 -0.3097
13319TIP3    H261449   0.351   2.445  13.772  0.6333 -0.9350  0.9213
13320TIP3   OH261450   5.377   4.225   5.458 -0.0524 -0.1952 -0.0769
13320TIP3    H161451   5.438   4.263   5.521  0.6040 -0.7561 -0.3582
13320TIP3    H261452   5.389   4.131   5.466 -1.6195 -0.3681  0.5679
13321TIP3   OH261453   5.587   5.684  15.391  0.0198 -0.3830  0.0453
13321TIP3    H161454   5.603   5.595  15.422 -1.2989 -0.7017 -0.1256
13321TIP3    H261455   5.515   5.716  15.445  1.4025  1.1327  1.0872
13322TIP3   OH261456   6.204   0.169  13.038  0.3958  0.0067 -0.5903
13322TIP3    H161457   6.137   0.180  12.971  0.4352  1.0332 -0.4866
13322TIP3    H261458   6.166   0.109  13.102 -0.6837  1.0421 -0.2206
13323TIP3   OH261459   3.866   3.085  12.812 -0.1822  0.1530 -0.2635
13323TIP3    H161460   3.806   3.045  12.749  0.7352 -2.5818  0.4673
13323TIP3    H261461   3.953   3.068  12.777  0.2683  1.3064  0.2547
13324TIP3   OH261462   5.081   5.247   0.105 -0.1753 -0.2299 -0.3147
13324TIP3    H161463   5.160   5.196   0.084  0.8232  1.3199 -0.4236
13324TIP3    H261464   5.077   5.314   0.037 -0.2955  1.1369  1.0112
13325TIP3   OH261465   1.919   0.497   4.798  0.1162  0.0478 -0.5885
13325TIP3    H161466   1.970   0.487   4.718 -0.5418  1.6668 -1.2630
13325TIP3    H261467   1.828   0.488   4.769 -0.0896 -0.2859  0.1506
13326TIP3   OH261468   4.252   2.676  16.239 -0.1659  0.7970  0.5012
13326TIP3    H161469   4.342   2.665  16.207 -0.3687  1.0024 -0.1477
13326TIP3    H261470   4.260   2.737  16.313  0.1026  1.6283 -0.2045
13327TIP3   OH261471   3.645   0.027   4.251  0.2793 -0.0388  0.0047
13327TIP3    H161472   3.553   0.011   4.231  0.1175  0.7425  0.0796
13327TIP3    H261473   3.689  -0.055   4.230 -0.1872  0.0801 -1.5672
13328TIP3   OH261474   2.795   0.244   1.557  0.1336 -0.1081  0.2356
13328TIP3    H161475   2.831   0.272   1.641  0.3953  3.3646 -0.8599
13328TIP3    H261476   2.871   0.209   1.509 -0.0279 -2.1387  1.3768
13329TIP3   OH261477   1.460   4.985   0.728 -0.2530 -0.7023 -0.6976
13329TIP3    H161478   1.547   4.996   0.689  1.2515 -3.1986  1.5629
13329TIP3    H261479   1.462   4.897   0.766 -3.7737 -0.7945 -0.4236
13330TIP3   OH261480   0.091   5.903   5.903  0.1157  0.1336  0.3929
13330TIP3    H161481   0.095   5.928   5.995 -1.0954  0.8637  0.2652
13330TIP3    H261482   0.033   5.827   5.901 -0.7337  0.7777  0.1148
13331TIP3   OH261483   5.356   4.876  15.294  0.0720 -0.1553  0.1335
13331TIP3    H161484   5.302   4.822  15.352 -0.0075  1.4604  1.6366
13331TIP3    H261485   5.429   4.819  15.271  0.0495 -0.9115  1.7536
13332TIP3   OH261486   3.896   0.511  17.257 -0.5025 -0.3754 -0.4123
13332TIP3    H161487   3.939   0.566  17.191 -0.3701  1.0596  0.8320
13332TIP3    H261488   3.842   0.451  17.205  0.2870  0.1077 -1.8668
13333TIP3   OH261489   3.906   0.745  16.267  0.4423  0.2562  0.4060
13333TIP3    H161490   3.851   0.814  16.230  1.8681  2.1415  1.6210
13333TIP3    H261491   3.920   0.684  16.194 -1.6917  0.6510 -0.4235
13334TIP3   OH261492   2.447   2.987  13.018  0.0671  0.3080 -0.0891
13334TIP3    H161493   2.387   3.002  12.945  0.0428  1.2231  0.1099
13334TIP3    H261494   2.420   3.050  13.085 -0.1638 -0.7737  0.8819
13335TIP3   OH261495   6.518   1.755   4.377  0.1982  0.1140  0.1540
13335TIP3    H161496   6.513   1.809   4.456 -1.6077  0.5359 -0.2008
13335TIP3    H261497   6.543   1.816   4.308 -1.9000  0.5852 -0.2579
13336TIP3   OH261498   6.150   6.806   2.041  0.1781  0.0580 -0.2254
13336TIP3    H161499   6.092   6.867   1.996  1.7357  1.9956  0.2160
13336TIP3    H261500   6.147   6.833   2.133  0.3074 -1.0605  0.1198
13337TIP3   OH261501   6.470   0.552   3.750 -0.5563  0.4071  0.1711
13337TIP3    H161502   6.401   0.544   3.684 -0.4307 -1.5991  0.2208
13337TIP3    H261503   6.529   0.619   3.716 -0.1168 -1.0522 -2.1399
13338TIP3   OH261504   3.499   6.659   5.774 -0.1542 -0.2528 -0.1607
13338TIP3    H161505   3.423   6.716   5.783  1.0681  1.7820 -1.8913
13338TIP3    H261506   3.467   6.585   5.723 -1.0067  0.5588 -0.8465
13339TIP3   OH261507   3.956   1.019   5.912 -0.4911  0.8095  0.5107
13339TIP3    H161508   4.030   1.028   5.972 -0.8290  1.9163  0.7886
13339TIP3    H261509   3.994   1.026   5.825 -0.3181  1.9390  0.6640
13340TIP3   OH261510   2.100   2.963   1.886  0.2518 -0.0871 -0.0191
13340TIP3    H161511   2.171   2.909   1.852  0.3304  0.3396 -0.5566
13340TIP3    H261512   2.025   2.905   1.891  0.6161 -0.5312  0.5058
13341TIP3   OH261513   2.049   0.655   3.881  0.1118  0.3751  0.1125
13341TIP3    H161514   1.996   0.678   3.804  1.4750 -0.6409 -1.1862
13341TIP3    H261515   1.991   0.604   3.936 -0.4066 -0.3933 -1.0969
13342TIP3   OH261516   5.253   3.764   1.335  0.0818 -0.0521  0.7172
13342TIP3    H161517   5.193   3.831   1.303 -1.0495 -1.5857 -0.4929
13342TIP3    H261518   5.314   3.812   1.392 -0.0138  2.1788 -0.9346
13343TIP3   OH261519   3.061   3.117  11.531 -0.2510  0.8948  0.2408
13343TIP3    H161520   3.134   3.168  11.565  0.5549 -0.7527  1.1151
13343TIP3    H261521   3.044   3.051  11.599 -2.5065  1.1657  0.0253
13344TIP3   OH261522   6.115   5.857  15.632  0.2490 -0.6336  0.2181
13344TIP3    H161523   6.099   5.950  15.652  1.3764 -0.0910 -1.2299
13344TIP3    H261524   6.089   5.811  15.712 -0.4586  0.9058  0.9315
13345TIP3   OH261525   2.304   1.712   6.325  0.1682  0.7001  0.4030
13345TIP3    H161526   2.268   1.680   6.408 -0.4569 -1.3960 -0.6215
13345TIP3    H261527   2.229   1.748   6.279  0.1041 -0.0906 -0.1205
13346TIP3   OH261528   4.331   5.909  16.171 -0.3225 -0.0212  0.2720
13346TIP3    H161529   4.377   5.873  16.096  1.3652  1.6455  0.4252
13346TIP3    H261530   4.268   5.970  16.134 -1.5045 -1.2644  0.1334
13347TIP3   OH261531   2.545   2.443   6.253 -0.1603 -0.2539 -0.0505
13347TIP3    H161532   2.579   2.427   6.165  0.0859  1.0980 -0.2151
13347TIP3    H261533   2.465   2.492   6.239  0.4597  0.9562  0.4951
13348TIP3   OH261534   5.836   6.557   3.899 -0.8529 -0.2531  0.3508
13348TIP3    H161535   5.757   6.577   3.948 -2.5563  0.6667 -2.4848
13348TIP3    H261536   5.820   6.472   3.859 -0.0280 -0.4745  0.4732
13349TIP3   OH261537   0.716   1.729   5.467 -0.0351  0.2751 -0.1713
13349TIP3    H161538   0.634   1.714   5.420  0.4686 -0.4605 -0.8492
13349TIP3    H261539   0.690   1.773   5.548 -1.0467  0.4539 -0.5819
13350TIP3   OH261540   2.569   1.531   0.181  0.3398  0.1067 -0.5568
13350TIP3    H161541   2.584   1.452   0.130  0.3070 -0.8868  0.9285
13350TIP3    H261542   2.609   1.513   0.266  0.0524  1.5618 -0.0825
13351TIP3   OH261543   0.723   5.612   4.375  0.5376  0.1117 -0.4292
13351TIP3    H161544   0.720   5.520   4.401  1.9092 -0.1821 -1.2493
13351TIP3    H261545   0.632   5.634   4.355 -0.2680 -0.2751  2.3365
13352TIP3   OH261546   4.255   6.313  15.426  0.2709  0.5269  0.1054
13352TIP3    H161547   4.211   6.387  15.468  2.2883  1.1410  1.2991
13352TIP3    H261548   4.310   6.353  15.359  0.6102  0.0113  0.0694
13353TIP3   OH261549   5.773   6.408  15.842  0.3020  1.0452  0.0752
13353TIP3    H161550   5.767   6.313  15.834 -2.9447  1.1987 -0.9070
13353TIP3    H261551   5.785   6.424  15.935  0.6621 -0.3155  0.2750
13354TIP3   OH261552   6.314   2.168  12.318  0.5932 -0.4651 -0.0217
13354TIP3    H161553   6.266   2.105  12.371  0.8947  0.3282  1.2290
13354TIP3    H261554   6.353   2.228  12.381  0.2150  1.0574 -1.1892
13355TIP3   OH261555   6.297   5.949  12.837 -0.9198 -0.0814  0.1889
13355TIP3    H161556   6.266   6.015  12.899  0.7568  1.0241 -0.0779
13355TIP3    H261557   6.284   5.865  12.882 -1.7473  0.5327  1.1282
13356TIP3   OH261558   3.240   3.975  16.496 -0.5178 -0.5023  0.0930
13356TIP3    H161559   3.197   4.057  16.521 -1.9549 -1.1418 -0.1974
13356TIP3    H261560   3.266   3.988  16.405 -0.0073 -0.0846  0.2939
13357TIP3   OH261561   0.600   6.111   1.472 -0.2580  0.2582 -0.0470
13357TIP3    H161562   0.597   6.131   1.566 -2.1775  2.1221 -0.4339
13357TIP3    H261563   0.686   6.143   1.444  0.8272 -1.3462  1.2047
13358TIP3   OH261564   1.578   5.677   4.186  0.2428 -0.6478 -0.1322
13358TIP3    H161565   1.606   5.603   4.133  1.6734 -0.0830 -0.1920
13358TIP3    H261566   1.652   5.738   4.185 -0.5380  0.3644  0.6972
13359TIP3   OH261567   6.266   6.059  15.113 -0.1419 -0.5371 -0.3750
13359TIP3    H161568   6.186   6.108  15.131  0.9566  0.8189  1.1064
13359TIP3    H261569   6.260   5.982  15.169 -0.5783 -0.6420 -0.5624
13360TIP3   OH261570   1.774   2.302   2.878 -0.1260  0.4109  0.7737
13360TIP3    H161571   1.693   2.335   2.838 -0.1398  0.4498  0.8336
13360TIP3    H261572   1.840   2.309   2.809 -0.5771 -1.3275  0.1088
13361TIP3   OH261573   0.029   2.568   0.334  0.5547  0.2211 -0.3332
13361TIP3    H161574   0.007   2.497   0.274  1.4571  0.4227 -0.9241
13361TIP3    H261575   0.124   2.572   0.332  0.5686  0.6326  0.6614
13362TIP3   OH261576   2.368   2.990  15.854  0.4281 -0.4450 -0.3829
13362TIP3    H161577   2.344   2.988  15.947  1.5300 -0.2664 -0.0736
13362TIP3    H261578   2.333   3.073  15.822  1.5067  0.3328  0.3283
13363TIP3   OH261579   5.601   0.789  12.180 -0.5853 -0.2360  0.1931
13363TIP3    H161580   5.574   0.834  12.261  0.3841 -1.0676  1.0136
13363TIP3    H261581   5.695   0.776  12.191 -0.2935  0.2482 -1.4044
13364TIP3   OH261582   1.629   1.479   0.539  0.0023  0.0280 -0.3271
13364TIP3    H161583   1.682   1.499   0.462  0.1501  1.2000  0.0674
13364TIP3    H261584   1.560   1.545   0.539  1.0253  1.2128  1.5049
13365TIP3   OH261585   2.925   6.312  13.511  0.1870 -0.1710 -0.0649
13365TIP3    H161586   2.956   6.336  13.424  1.6826  0.0739  0.5036
13365TIP3    H261587   2.832   6.334  13.511  0.4372  0.9627 -1.1887
13366TIP3   OH261588   0.732   4.480  15.465 -0.1857 -0.6461  0.1639
13366TIP3    H161589   0.761   4.538  15.394 -0.8791 -1.0365 -0.4487
13366TIP3    H261590   0.799   4.490  15.532 -0.9018  1.8307  0.6062
13367TIP3   OH261591   4.290   5.660  13.266 -0.5504  0.1786  0.0519
13367TIP3    H161592   4.249   5.577  13.241  0.7410 -0.8726  1.2172
13367TIP3    H261593   4.219   5.724  13.264 -1.6897 -1.0482 -0.3970
13368TIP3   OH261594   1.951   0.195   4.124  0.4523 -0.3572 -0.1951
13368TIP3    H161595   1.959   0.108   4.164  0.1216 -0.9294 -1.3189
13368TIP3    H261596   1.948   0.177   4.030 -1.5905  0.6913 -0.3841
13369TIP3   OH261597   0.040   1.710   2.379  0.0405  0.2311 -0.0891
13369TIP3    H161598   0.047   1.805   2.374  2.4504  0.0438 -1.9458
13369TIP3    H261599   0.128   1.680   2.399 -0.4353 -1.6575 -0.6084
13370TIP3   OH261600   1.643   5.834   2.128 -0.1174  0.0467  0.4880
13370TIP3    H161601   1.577   5.830   2.197 -0.7581  0.8209 -0.0502
13370TIP3    H261602   1.718   5.877   2.168 -0.0933 -0.4312  0.9770
13371TIP3   OH261603   6.120   6.766  15.275  0.2581 -0.0822 -0.3471
13371TIP3    H161604   6.187   6.753  15.342 -1.2706 -2.2393  0.8646
13371TIP3    H261605   6.163   6.737  15.194  0.9617 -1.0033  0.3264
13372TIP3   OH261606   0.832   5.326  10.254 -0.1306  0.3809  0.2788
13372TIP3    H161607   0.854   5.236  10.276 -1.9201 -0.3341 -0.7061
13372TIP3    H261608   0.755   5.320  10.197 -0.2928  2.5269  0.1644
13373TIP3   OH261609   3.390   5.849   6.332  0.4203  0.0537  0.0006
13373TIP3    H161610   3.335   5.825   6.406  1.0013 -1.2731  0.0190
13373TIP3    H261611   3.373   5.781   6.266  0.0593  1.0976 -1.0264
13374TIP3   OH261612   1.393   0.717  10.715 -0.1718  0.1517  0.5453
13374TIP3    H161613   1.386   0.671  10.632  2.0662  0.2035  0.2817
13374TIP3    H261614   1.305   0.709  10.754 -1.3087  0.2675 -1.8469
13375TIP3   OH261615   1.289   5.034  12.008  0.1285  0.9816  0.0911
13375TIP3    H161616   1.232   5.053  11.934  0.3712  1.8221  0.1139
13375TIP3    H261617   1.235   4.981  12.067  0.0799 -0.0786 -0.8842
13376TIP3   OH261618   6.381   2.583  13.786  0.1651 -0.4445 -0.3241
13376TIP3    H161619   6.299   2.549  13.749 -0.2433  0.4332 -0.2692
13376TIP3    H261620   6.372   2.571  13.880 -0.5284  0.9338 -0.1971
13377TIP3   OH261621   0.469   5.424   1.104 -0.5143  0.8937 -0.4106
13377TIP3    H161622   0.483   5.329   1.098 -1.9228  0.6116  0.1580
13377TIP3    H261623   0.457   5.452   1.013 -0.4685  0.4458 -0.5586
13378TIP3   OH261624   1.590   0.526  15.741  0.1784  0.0789  0.4204
13378TIP3    H161625   1.540   0.493  15.667  0.3714  1.0468 -0.1553
13378TIP3    H261626   1.541   0.602  15.772  1.7870  1.6932 -0.8250
13379TIP3   OH261627   1.941   4.305   0.966 -0.6900  0.1148 -0.3035
13379TIP3    H161628   1.960   4.363   0.892 -2.3883  0.6431 -0.3718
13379TIP3    H261629   1.992   4.342   1.038  0.0447  0.3129 -0.9043
13380TIP3   OH261630   3.444   2.529   5.062  0.1202 -0.1645 -0.0303
13380TIP3    H161631   3.477   2.514   5.151 -1.9069  1.1019  1.0164
13380TIP3    H261632   3.379   2.599   5.072 -2.0169 -1.6763 -2.0792
13381TIP3   OH261633   3.290   4.721   3.280  0.4501 -0.1004  0.0405
13381TIP3    H161634   3.268   4.660   3.350  0.5326 -0.8834 -0.6127
13381TIP3    H261635   3.284   4.808   3.322  0.3021 -0.5402  0.9585
13382TIP3   OH261636   4.619   2.888  10.817  0.0427 -0.1691 -0.3665
13382TIP3    H161637   4.646   2.894  10.725  1.5265 -1.0907 -0.0274
13382TIP3    H261638   4.659   2.965  10.859 -2.4847  1.5326 -0.8448
13383TIP3   OH261639   4.546   2.677   2.415 -0.0963 -0.2607  0.0979
13383TIP3    H161640   4.615   2.687   2.350 -0.9286 -1.7029 -1.0947
13383TIP3    H261641   4.465   2.671   2.363 -1.0709  0.8597  1.4135
13384TIP3   OH261642   0.936   4.136  15.743  0.3295 -0.1507 -0.4782
13384TIP3    H161643   0.960   4.168  15.657 -1.6529 -0.5771 -1.2512
13384TIP3    H261644   0.841   4.147  15.747  0.4133  0.2799  1.8290
13385TIP3   OH261645   3.160   4.527   5.450  0.0933 -0.2066  0.0042
13385TIP3    H161646   3.250   4.494   5.457 -0.2022 -0.9234  0.6288
13385TIP3    H261647   3.165   4.617   5.481  0.3100 -0.7704  1.7226
13386TIP3   OH261648   2.977   1.067  14.532 -0.0763 -0.2927  0.3048
13386TIP3    H161649   2.983   1.158  14.504  0.6912 -0.5142 -0.3234
13386TIP3    H261650   2.922   1.025  14.465 -1.2583 -0.1029  1.1334
13387TIP3   OH261651   0.898   0.427  15.826 -0.0589  0.0118  0.2020
13387TIP3    H161652   0.892   0.522  15.813 -1.3175 -0.2552 -1.4151
13387TIP3    H261653   0.878   0.415  15.919 -0.2450  1.2956  0.3551
13388TIP3   OH261654   5.295   2.441  17.162  0.2924  0.1184 -0.6066
13388TIP3    H161655   5.282   2.478  17.249  0.7349 -3.3805  1.1503
13388TIP3    H261656   5.209   2.410  17.136  0.6178 -1.5076  0.0660
13389TIP3   OH261657   5.691   6.035  17.070  0.0463  0.5257  0.0109
13389TIP3    H161658   5.769   6.046  17.015  0.2878 -0.3063  0.1645
13389TIP3    H261659   5.630   5.986  17.015 -0.5278  1.5145 -0.2454
13390TIP3   OH261660   4.407   2.130  12.742 -0.9034  0.5874  0.2295
13390TIP3    H161661   4.368   2.217  12.740  0.8221  1.4261  0.7197
13390TIP3    H261662   4.477   2.136  12.807 -1.6509 -1.5958  1.3391
13391TIP3   OH261663   3.969   6.019   0.959  0.1178  0.0119 -0.1168
13391TIP3    H161664   4.043   6.036   1.017 -0.9660  0.8393  1.0687
13391TIP3    H261665   3.990   5.935   0.918  0.8380 -0.7110  1.6351
13392TIP3   OH261666   1.307   2.274  13.825 -0.2761  0.1823  0.2444
13392TIP3    H161667   1.399   2.248  13.821 -0.5721 -0.8720  0.0529
13392TIP3    H261668   1.310   2.370  13.832  0.8322  0.1575  0.3712
13393TIP3   OH261669   1.374   4.878  14.720 -0.4059 -0.1793 -0.2790
13393TIP3    H161670   1.322   4.880  14.639 -1.4133 -2.2864  0.2606
13393TIP3    H261671   1.444   4.816  14.701  0.2002  0.4227 -0.0079
13394TIP3   OH261672   0.159   5.519  15.718 -0.0078  0.0443  0.0096
13394TIP3    H161673   0.102   5.494  15.645  0.5268  0.8002 -0.6776
13394TIP3    H261674   0.129   5.464  15.791 -1.9705  0.7845 -0.1677
13395TIP3   OH261675   1.590   1.445  11.009 -0.2941  0.2518  0.2468
13395TIP3    H161676   1.582   1.417  10.918  3.2227  1.2279 -0.5002
13395TIP3    H261677   1.622   1.367  11.055 -1.5787 -0.0964  0.5773
13396TIP3   OH261678   4.845   4.327   3.194  0.0827  0.1825  0.3477
13396TIP3    H161679   4.823   4.405   3.246  0.1113 -0.2717  1.0508
13396TIP3    H261680   4.936   4.307   3.219  0.0452 -0.1253  0.2321
13397TIP3   OH261681   0.435   3.588   1.146  0.6240 -0.4384 -0.3919
13397TIP3    H161682   0.517   3.566   1.102  1.5442  2.2179 -0.2226
13397TIP3    H261683   0.412   3.511   1.197  2.1587 -1.8140 -1.6908
13398TIP3   OH261684   5.513   2.821  15.767  0.2965 -0.0389  0.1989
13398TIP3    H161685   5.512   2.731  15.800 -1.8871 -0.5024 -0.9211
13398TIP3    H261686   5.425   2.853  15.786  1.1984  2.1034  1.0790
13399TIP3   OH261687   3.549   4.755  12.771  0.4589 -0.0978  0.6003
13399TIP3    H161688   3.592   4.694  12.710  0.5758 -0.4615  1.0429
13399TIP3    H261689   3.509   4.699  12.837  0.0723  0.2834  0.6942
13400TIP3   OH261690   5.523   5.043  15.573 -0.5968  0.1101  0.4204
13400TIP3    H161691   5.435   5.066  15.604 -0.6645 -1.2561  1.3103
13400TIP3    H261692   5.529   4.949  15.586  0.9335  0.1549  0.1733
13401TIP3   OH261693   6.556   6.786   1.126 -0.9499  0.3982 -0.1393
13401TIP3    H161694   6.585   6.699   1.098 -1.9108 -0.1853  0.6008
13401TIP3    H261695   6.488   6.810   1.063 -2.6771 -0.6463  1.2516
13402TIP3   OH261696   6.350   5.572  16.533 -0.4067  0.6210  0.4944
13402TIP3    H161697   6.286   5.611  16.473 -0.8903 -1.0957 -0.1566
13402TIP3    H261698   6.435   5.589  16.493 -0.6549  0.3789 -0.1366
13403TIP3   OH261699   0.724   6.604  15.114 -0.1951  0.5992 -0.9390
13403TIP3    H161700   0.712   6.616  15.020 -2.4287  0.4310 -0.7208
13403TIP3    H261701   0.641   6.631  15.153  0.8537  1.1852  1.0572
13404TIP3   OH261702   5.986   6.302   1.792  0.3585  0.4481  0.3789
13404TIP3    H161703   6.049   6.307   1.721  1.8381 -1.3546  1.4861
13404TIP3    H261704   6.027   6.349   1.864  0.3742 -0.5671  1.0522
13405TIP3   OH261705   5.311   6.245  11.417  0.5800 -0.0023 -0.1353
13405TIP3    H161706   5.314   6.321  11.358  1.1142 -0.7450 -1.0897
13405TIP3    H261707   5.391   6.196  11.397  0.9149 -0.1383  1.4204
13406TIP3   OH261708   5.932   3.186   3.979 -0.8491 -0.1537  0.1814
13406TIP3    H161709   5.917   3.256   4.042 -1.9047  0.6939 -0.9598
13406TIP3    H261710   5.960   3.230   3.899  0.1622 -1.1789 -0.0588
13407TIP3   OH261711   6.751   2.390  16.508  0.1759 -0.2861  0.1882
13407TIP3    H161712   6.826   2.332  16.526  0.7499  0.1589 -0.7030
13407TIP3    H261713   6.768   2.467  16.563 -0.3932 -0.7847  1.0866
13408TIP3   OH261714   5.417   6.397   5.725  0.0937  0.0123 -0.2547
13408TIP3    H161715   5.389   6.326   5.782  0.2854  1.1239  1.2806
13408TIP3    H261716   5.453   6.463   5.784 -0.1731  1.4410 -1.6231
13409TIP3   OH261717   5.460   5.124   3.264  0.2283 -0.0700 -0.3101
13409TIP3    H161718   5.427   5.082   3.184  2.0436  1.6641 -2.0987
13409TIP3    H261719   5.399   5.196   3.280  1.6220  1.6663 -2.2187
13410TIP3   OH261720   0.658   4.156  15.724  0.2225 -0.1779  0.1509
13410TIP3    H161721   0.621   4.229  15.774 -0.0618 -0.1531 -0.0953
13410TIP3    H261722   0.586   4.093  15.717 -0.1580  0.3903 -1.3718
13411TIP3   OH261723   1.534   2.565  14.725  0.1925  0.0518 -0.5745
13411TIP3    H161724   1.481   2.485  14.722 -1.1200  0.8866 -0.9366
13411TIP3    H261725   1.566   2.569  14.816  1.9402 -1.8593 -1.0310
13412TIP3   OH261726   6.102   5.730   6.063 -0.2487 -0.2464 -0.3070
13412TIP3    H161727   6.136   5.778   5.987 -1.4538  1.4111  0.1458
13412TIP3    H261728   6.137   5.777   6.139  0.4436 -1.5222  0.2075
13413TIP3   OH261729   4.427   5.275   3.026 -0.0448 -0.2923 -0.6196
13413TIP3    H161730   4.424   5.273   3.121 -2.4798  0.8127 -0.6020
13413TIP3    H261731   4.510   5.318   3.006  0.3496 -0.2361  0.9949
13414TIP3   OH261732   0.376   2.218   6.066  0.0088 -0.0705 -0.3190
13414TIP3    H161733   0.461   2.261   6.050  0.4230 -0.3562  1.0105
13414TIP3    H261734   0.389   2.170   6.148 -1.3088 -0.4933 -0.3456
13415TIP3   OH261735   2.894   6.366   0.929  0.6719  0.5480 -0.5739
13415TIP3    H161736   2.944   6.344   1.008  1.3831 -0.0873 -1.1826
13415TIP3    H261737   2.831   6.294   0.920  0.6961  0.5392 -0.6698
13416TIP3   OH261738   1.120   2.127  11.983  0.5350  0.0005 -0.4861
13416TIP3    H161739   1.153   2.168  11.903  1.1046  1.4727  0.4817
13416TIP3    H261740   1.046   2.074  11.953 -0.4627  1.9938 -1.7649
13417TIP3   OH261741   0.074   3.290  15.158 -0.1144  0.4778 -0.3429
13417TIP3    H161742  -0.003   3.310  15.210 -0.1514 -1.8322  0.5948
13417TIP3    H261743   0.043   3.229  15.091  0.8323 -0.3574 -0.0515
13418TIP3   OH261744   0.675   4.095   2.678  0.2304 -0.2608  0.2187
13418TIP3    H161745   0.653   4.168   2.619 -1.3225 -1.2035 -0.4374
13418TIP3    H261746   0.713   4.028   2.622  0.1342 -0.5897  0.5376
13419TIP3   OH261747   0.933   0.238   4.454 -0.2113  0.0136 -0.6030
13419TIP3    H161748   0.855   0.283   4.422  0.5994 -0.1623 -2.9964
13419TIP3    H261749   0.934   0.155   4.407 -0.0526 -1.2809  1.5242
13420TIP3   OH261750   3.022   0.194   4.986  0.4738  0.0624  0.1867
13420TIP3    H161751   2.959   0.187   5.059  0.6106  1.1084  0.4303
13420TIP3    H261752   3.055   0.105   4.974 -0.9293 -0.4945  0.1604
13421TIP3   OH261753   3.043   5.447  13.976  0.1580  0.2783  0.0800
13421TIP3    H161754   3.021   5.403  14.059  1.0913 -0.0807  0.1482
13421TIP3    H261755   3.025   5.381  13.909  2.8485 -0.7480  0.2791
13422TIP3   OH261756   3.205   2.763   2.782 -0.5102  0.9244  0.2216
13422TIP3    H161757   3.234   2.789   2.694  1.9210  0.7112  0.8749
13422TIP3    H261758   3.220   2.841   2.836 -0.6302  0.6160  0.7045
13423TIP3   OH261759   1.112   5.427  16.852  0.4873  0.1425 -0.7379
13423TIP3    H161760   1.062   5.347  16.834 -0.6058  0.9585 -1.5043
13423TIP3    H261761   1.077   5.459  16.935 -0.6461  0.9428 -1.4808
13424TIP3   OH261762   0.099   3.484  11.695 -0.2539  0.5010 -0.3654
13424TIP3    H161763   0.100   3.445  11.607  4.4673 -0.4134 -0.1607
13424TIP3    H261764   0.066   3.414  11.752 -0.5413  0.0522 -1.0698
13425TIP3   OH261765   3.820   5.492  15.001 -0.0219  0.0947 -0.1459
13425TIP3    H161766   3.774   5.490  14.917  0.6587  1.3107 -0.5836
13425TIP3    H261767   3.787   5.571  15.044  0.2012 -0.1049  0.3913
13426TIP3   OH261768   2.924   6.541  13.209  0.3202  0.6191  0.2125
13426TIP3    H161769   2.933   6.446  13.223  0.0802  0.5821  0.1015
13426TIP3    H261770   3.010   6.576  13.235  1.1440  0.1593 -1.7177
13427TIP3   OH261771   6.236   6.183   4.319  0.1476 -0.1481 -0.4439
13427TIP3    H161772   6.308   6.123   4.340 -0.8445 -1.4895 -0.7018
13427TIP3    H261773   6.157   6.137   4.349 -0.4965  2.2727  2.0623
13428TIP3   OH261774   2.551   4.490   3.083 -0.2117  0.1773  0.3672
13428TIP3    H161775   2.585   4.577   3.104  0.0725 -0.1468  1.3033
13428TIP3    H261776   2.605   4.430   3.135 -0.0954 -0.6033 -0.6131
13429TIP3   OH261777   2.948   4.905   0.667  0.2415 -0.2775 -0.1062
13429TIP3    H161778   2.964   4.951   0.749 -1.7091  0.8461 -0.2679
13429TIP3    H261779   2.879   4.842   0.688  0.3751 -0.6220 -0.6834
13430TIP3   OH261780   5.441   2.893  11.216 -0.3585  0.4125  0.1136
13430TIP3    H161781   5.433   2.798  11.221 -1.2156  0.5082  0.7543
13430TIP3    H261782   5.403   2.917  11.132  2.0022  0.0016 -1.1622
13431TIP3   OH261783   4.224   1.780  14.943 -0.3290  0.0424  0.5092
13431TIP3    H161784   4.245   1.691  14.970 -1.5686 -0.6246 -0.6203
13431TIP3    H261785   4.183   1.819  15.020  0.0868 -0.3990  0.9654
13432TIP3   OH261786   6.122   4.202   6.016  0.0809 -0.2197 -0.1345
13432TIP3    H161787   6.111   4.279   5.961 -1.9602  0.1072  0.6358
13432TIP3    H261788   6.165   4.235   6.095 -0.5718  0.1188  0.0927
13433TIP3   OH261789   0.352   0.764  16.157 -0.5151 -0.7489 -0.3829
13433TIP3    H161790   0.320   0.792  16.243  1.7643 -1.5985  0.8422
13433TIP3    H261791   0.394   0.842  16.121 -0.4384 -0.7026 -0.1934
13434TIP3   OH261792   1.315   6.479  14.569 -0.4333 -0.3187  0.3459
13434TIP3    H161793   1.401   6.518  14.582  0.1931 -1.2626 -0.6879
13434TIP3    H261794   1.306   6.417  14.641 -0.4539  0.1122  0.7176
13435TIP3   OH261795   5.283   6.665  16.219  0.2206  0.3651 -0.1711
13435TIP3    H161796   5.280   6.712  16.302  0.0196  0.4528 -0.2264
13435TIP3    H261797   5.362   6.611  16.224  0.3568  0.5782 -0.0355
13436TIP3   OH261798   0.968   6.051  17.136 -0.1098 -0.1863 -0.3070
13436TIP3    H161799   0.947   5.965  17.100  0.2750  0.9880 -3.6007
13436TIP3    H261800   0.919   6.055  17.219 -1.9684 -2.6692 -1.1766
13437TIP3   OH261801   2.712   4.392   4.468 -0.4226  0.4215  0.0766
13437TIP3    H161802   2.660   4.336   4.410 -1.3327  0.0348  1.2334
13437TIP3    H261803   2.656   4.468   4.483 -0.5825  0.1093  1.1470
13438TIP3   OH261804   6.461   4.790   4.947  0.5943 -0.0469  0.1352
13438TIP3    H161805   6.502   4.789   4.861  0.9652  1.8310  0.2501
13438TIP3    H261806   6.379   4.837   4.934  0.4383 -0.1528  0.7124
13439TIP3   OH261807   2.503   4.599   5.482  0.0068 -0.1059 -0.3706
13439TIP3    H161808   2.594   4.604   5.510 -0.1481  1.2150 -0.0399
13439TIP3    H261809   2.456   4.658   5.541 -1.4809 -2.4841  0.9670
13440TIP3   OH261810   2.358   0.269  11.706  0.0098  0.6533  0.2545
13440TIP3    H161811   2.308   0.350  11.693 -0.3992  0.0943 -2.1055
13440TIP3    H261812   2.449   0.298  11.713 -0.2082  1.3661  0.2798
13441TIP3   OH261813   1.536   4.014   0.421  0.7019 -0.0423 -0.7833
13441TIP3    H161814   1.518   3.936   0.367  2.2417 -0.4621 -0.7490
13441TIP3    H261815   1.616   4.050   0.383  0.2239  1.3109 -0.5347
13442TIP3   OH261816   1.244   0.920   5.418 -0.3412  0.3325 -0.3836
13442TIP3    H161817   1.296   0.847   5.384  0.1547 -0.2512  1.5304
13442TIP3    H261818   1.297   0.998   5.401  0.0536  0.0239 -0.5675
13443TIP3   OH261819   4.781   1.245   2.089 -0.2949 -0.0982  0.6895
13443TIP3    H161820   4.839   1.306   2.135  0.4261  0.5384 -0.9529
13443TIP3    H261821   4.698   1.292   2.080  0.4918  1.0453 -1.2527
13444TIP3   OH261822   4.432   1.950  10.577  0.3429  0.5378 -0.3762
13444TIP3    H161823   4.482   1.882  10.531  1.6712  0.1842  1.4829
13444TIP3    H261824   4.341   1.922  10.568  0.7451 -0.6822 -0.9406
13445TIP3   OH261825   0.155   4.342  12.846  0.5594  0.0099  0.0118
13445TIP3    H161826   0.114   4.330  12.932  1.6310 -2.4177  0.2774
13445TIP3    H261827   0.081   4.340  12.785 -0.4038  3.4356  0.8647
13446TIP3   OH261828   3.488   1.357   3.126  0.2445  0.0171  0.1106
13446TIP3    H161829   3.434   1.384   3.200  1.0144 -2.6638  1.8092
13446TIP3    H261830   3.431   1.298   3.076  0.6485 -0.4909  0.2434
13447TIP3   OH261831   4.867   5.864   4.659  0.3688  1.0208  0.1997
13447TIP3    H161832   4.930   5.798   4.630 -1.3538  0.3269 -2.2677
13447TIP3    H261833   4.847   5.840   4.750  0.0805 -1.6894 -0.5013
13448TIP3   OH261834   3.008   6.669  14.754  0.0404 -0.0311  0.1561
13448TIP3    H161835   3.089   6.662  14.704  0.8904  1.0769  1.2886
13448TIP3    H261836   2.939   6.657  14.690  1.0496  2.4005 -1.5605
13449TIP3   OH261837   6.320   4.832   0.482 -0.3137 -0.1880 -0.2550
13449TIP3    H161838   6.388   4.897   0.500 -0.7504  0.1214  0.2743
13449TIP3    H261839   6.358   4.777   0.413  0.9314 -0.7060  0.7991
13450TIP3   OH261840   6.032   6.683   3.786  0.1827  0.1516  0.1335
13450TIP3    H161841   6.004   6.668   3.695 -1.5891  1.2366  0.4678
13450TIP3    H261842   5.966   6.638   3.839  2.2336 -2.1467  0.9304
13451TIP3   OH261843   3.866   3.960  13.492 -0.5519 -0.1077  0.2892
13451TIP3    H161844   3.901   3.888  13.440 -0.6733 -0.9848  1.3648
13451TIP3    H261845   3.930   4.030  13.484 -0.4723 -0.3000 -0.8483
13452TIP3   OH261846   0.787   4.590  12.768 -0.1459 -0.2935  0.6283
13452TIP3    H161847   0.732   4.525  12.725  0.2881 -0.4131  0.2293
13452TIP3    H261848   0.772   4.578  12.861 -1.9709  0.7256  0.5020
13453TIP3   OH261849   3.600   0.911  16.878 -0.3463  0.3185 -0.3971
13453TIP3    H161850   3.516   0.920  16.922  0.0477 -1.2477  0.7414
13453TIP3    H261851   3.589   0.836  16.820  0.7046 -0.9506  0.9580
13454TIP3   OH261852   3.273   6.577  16.136  0.0355  0.4288  0.2994
13454TIP3    H161853   3.283   6.576  16.231  3.4620  0.7255  0.0846
13454TIP3    H261854   3.179   6.587  16.122 -0.5350  1.0852  3.6271
13455TIP3   OH261855   1.651   1.688  12.474  0.1605 -0.7442 -0.1404
13455TIP3    H161856   1.736   1.727  12.496 -1.1200  1.2674  1.7371
13455TIP3    H261857   1.614   1.746  12.408 -0.8963  0.1419  1.1626
13456TIP3   OH261858   5.165   6.658  17.036 -0.3802  0.3675  0.0914
13456TIP3    H161859   5.148   6.573  16.997  1.7811 -0.7640  1.3790
13456TIP3    H261860   5.095   6.670  17.099 -3.2274  1.6767 -3.0253
13457TIP3   OH261861   6.191   5.509  12.356 -0.0172  0.2182 -0.5966
13457TIP3    H161862   6.202   5.507  12.451 -0.7974 -0.8292 -0.5203
13457TIP3    H261863   6.138   5.432  12.336 -0.5333  0.8627 -1.7979
13458TIP3   OH261864   2.267   1.457  16.790 -0.2507  0.4240  0.1112
13458TIP3    H161865   2.207   1.505  16.733 -1.1096 -0.3844  0.3177
13458TIP3    H261866   2.301   1.387  16.735 -1.8120 -0.9488  0.8092
13459TIP3   OH261867   4.546   0.865   0.145 -0.3341 -0.4856 -0.0672
13459TIP3    H161868   4.630   0.824   0.126  0.0908 -0.0198  0.7290
13459TIP3    H261869   4.545   0.944   0.090  0.9971  0.9899  1.8860
13460TIP3   OH261870   1.527   2.816   4.729  0.0746 -0.1403 -0.0273
13460TIP3    H161871   1.467   2.744   4.712  1.0812 -1.1294  0.4744
13460TIP3    H261872   1.538   2.816   4.824  2.0020 -0.9706 -0.2041
13461TIP3   OH261873   4.292   0.376   5.190  0.0272 -0.2057 -0.6963
13461TIP3    H161874   4.207   0.354   5.152 -0.7244  1.4241 -0.0310
13461TIP3    H261875   4.293   0.330   5.274  0.1295 -0.8004 -1.0115
13462TIP3   OH261876   0.752   6.186   4.635  0.0997  0.2963  0.2512
13462TIP3    H161877   0.684   6.229   4.584  1.8608  2.6749 -0.2907
13462TIP3    H261878   0.783   6.254   4.695  1.4318 -0.9392  1.0271
13463TIP3   OH261879   5.676   2.977   0.980 -0.0984 -0.4929  0.2027
13463TIP3    H161880   5.763   2.983   1.018  0.0708  1.5381 -0.3715
13463TIP3    H261881   5.674   2.892   0.937  1.9071 -0.2470 -0.4636
13464TIP3   OH261882   4.472   1.688  14.490 -0.0355  0.3321  0.7434
13464TIP3    H161883   4.565   1.677  14.513 -0.5073 -0.0843  2.6598
13464TIP3    H261884   4.466   1.777  14.456  1.1143  0.2586  0.2969
13465TIP3   OH261885   1.666   4.667   0.548  0.5670  0.5146 -0.0707
13465TIP3    H161886   1.635   4.740   0.494 -0.4581  0.9965  1.1072
13465TIP3    H261887   1.595   4.603   0.544  0.8279  0.2150  0.0753
13466TIP3   OH261888   3.448   6.540  13.736 -0.2503 -0.0878 -0.3307
13466TIP3    H161889   3.379   6.476  13.716  0.7678 -1.9240  1.6429
13466TIP3    H261890   3.481   6.567  13.650 -1.8266 -0.9512 -1.2558
13467TIP3   OH261891   1.207   2.883  17.081 -0.7701 -0.9633  0.2240
13467TIP3    H161892   1.189   2.951  17.016  0.3003 -0.7682  0.1084
13467TIP3    H261893   1.242   2.810  17.031 -0.0169 -0.8417  0.5462
13468TIP3   OH261894   5.858   1.765   2.618 -0.1724  0.1892 -0.2425
13468TIP3    H161895   5.827   1.846   2.577  1.6783  0.2911 -1.5735
13468TIP3    H261896   5.870   1.705   2.545  0.7822 -0.4844  0.4512
13469TIP3   OH261897   5.000   4.536   2.473  0.4633  0.2214  0.4039
13469TIP3    H161898   4.957   4.600   2.529  0.1300  1.4416 -1.1949
13469TIP3    H261899   5.056   4.486   2.533  0.0560  1.4114  1.8315
13470TIP3   OH261900   4.311   6.204  13.377 -0.1056  0.0207 -0.1692
13470TIP3    H161901   4.367   6.187  13.301 -0.3673 -1.3894 -0.0777
13470TIP3    H261902   4.359   6.168  13.451  1.2389  3.4107  0.8027
13471TIP3   OH261903   6.289   4.270   0.755  0.1375 -0.5190 -0.1735
13471TIP3    H161904   6.274   4.193   0.699 -2.2855 -0.8567  0.8288
13471TIP3    H261905   6.218   4.330   0.732 -0.1135 -0.1066  1.5720
13472TIP3   OH261906   2.082   1.546   5.685 -0.0881 -0.1138 -0.4597
13472TIP3    H161907   2.097   1.553   5.591  3.2172 -0.5931 -0.0731
13472TIP3    H261908   2.096   1.454   5.704  2.2635  0.4669  0.8778
13473TIP3   OH261909   0.276   5.524   6.203  0.1359  0.0739  0.6171
13473TIP3    H161910   0.245   5.459   6.141 -0.1448  0.7034  0.0871
13473TIP3    H261911   0.368   5.501   6.219 -0.4761 -1.6162  1.9645
13474TIP3   OH261912   2.542   5.853   0.191 -0.4554  0.3556 -0.5396
13474TIP3    H161913   2.544   5.864   0.096 -0.1171  0.8790 -0.4747
13474TIP3    H261914   2.464   5.900   0.219 -0.7345 -0.0729 -0.5897
13475TIP3   OH261915   1.605   6.443  15.704  0.3113  0.1236 -0.4988
13475TIP3    H161916   1.604   6.353  15.674  0.5915  0.1078 -0.4655
13475TIP3    H261917   1.521   6.456  15.746  0.4301 -0.2414 -0.1525
13476TIP3   OH261918   0.625   2.032  12.460 -0.0681  0.3379  0.0793
13476TIP3    H161919   0.561   1.976  12.415  0.3933 -0.9117  0.9349
13476TIP3    H261920   0.584   2.118  12.461 -0.2652  0.3666 -2.4026
13477TIP3   OH261921   0.137   5.623   1.898  0.1702 -0.0383  0.7182
13477TIP3    H161922   0.185   5.546   1.928  0.6616  0.8531  2.3629
13477TIP3    H261923   0.111   5.602   1.808  1.1579 -1.6925  0.7771
13478TIP3   OH261924   0.456   0.784  14.923  0.1734 -0.3819 -0.8758
13478TIP3    H161925   0.543   0.809  14.892  1.3074 -1.2822  1.3646
13478TIP3    H261926   0.472   0.718  14.990 -2.2674 -0.7593 -0.5717
13479TIP3   OH261927   3.323   1.069  12.265  0.1336 -0.0254 -0.0720
13479TIP3    H161928   3.355   1.050  12.353 -1.2328  0.7590  0.6250
13479TIP3    H261929   3.236   1.106  12.279 -0.0227  0.2973 -1.7476
13480TIP3   OH261930   5.128   4.389  16.075  0.6053 -0.5935 -0.1048
13480TIP3    H161931   5.188   4.398  16.150  2.3465 -0.0506 -1.4939
13480TIP3    H261932   5.185   4.392  15.999 -1.0888 -1.5444 -1.4705
13481TIP3   OH261933   0.959   4.649   1.576  0.1959 -0.1745  0.4558
13481TIP3    H161934   0.956   4.744   1.588  2.0980  0.0038 -0.1984
13481TIP3    H261935   1.049   4.625   1.596 -0.0583 -1.7516 -0.1529
13482TIP3   OH261936   3.416   5.473   5.732  0.2034 -0.1205 -0.1627
13482TIP3    H161937   3.370   5.441   5.655  0.8305 -3.5567  0.7287
13482TIP3    H261938   3.509   5.464   5.710  0.4616  1.9417 -0.1123
13483TIP3   OH261939   0.259   0.561   2.954  0.4010  0.2213  0.1292
13483TIP3    H161940   0.318   0.489   2.976 -0.7097 -1.1505 -1.1237
13483TIP3    H261941   0.280   0.630   3.016  0.6323 -1.6610  2.2479
13484TIP3   OH261942   6.426   0.570  12.786 -0.1536 -0.0949 -0.4294
13484TIP3    H161943   6.349   0.514  12.780  0.4800 -0.8454 -2.3015
13484TIP3    H261944   6.471   0.541  12.866 -1.1492 -0.4847  0.0045
13485TIP3   OH261945   0.945   5.466   1.248 -0.0682  0.4805 -0.0276
13485TIP3    H161946   0.923   5.373   1.245  1.8198  0.0254 -1.9180
13485TIP3    H261947   0.866   5.510   1.217 -0.3427 -0.6394 -1.0069
13486TIP3   OH261948   6.818   1.807  14.488  0.2896  0.3908  0.5353
13486TIP3    H161949   6.880   1.777  14.421  0.3419  0.6630  0.4643
13486TIP3    H261950   6.810   1.732  14.548 -0.0000  0.0287  0.0505
13487TIP3   OH261951   6.078   3.862  14.925 -0.1943  0.1856 -0.4114
13487TIP3    H161952   6.082   3.955  14.947  0.2047  0.5087 -1.7655
13487TIP3    H261953   6.129   3.818  14.992 -0.3640  0.9451  0.2196
13488TIP3   OH261954   3.996   5.317   3.900  0.2045 -0.2328 -0.3886
13488TIP3    H161955   4.013   5.393   3.843  0.2719  1.5640  1.8806
13488TIP3    H261956   3.925   5.346   3.958  1.1362 -1.3876  1.4155
13489TIP3   OH261957   1.453   3.524  15.100  0.4600 -0.7153 -0.7110
13489TIP3    H161958   1.489   3.557  15.182 -1.3729 -0.5668  0.0758
13489TIP3    H261959   1.450   3.601  15.042 -0.2326 -0.3330 -0.1785
13490TIP3   OH261960   1.238   2.629  12.042  0.0949  0.0908 -0.0039
13490TIP3    H161961   1.142   2.635  12.048 -0.0512  1.5669 -2.4048
13490TIP3    H261962   1.258   2.542  12.075 -1.8988  0.2543  1.9071
13491TIP3   OH261963   5.601   4.092  12.499  0.0952 -0.3284 -0.2755
13491TIP3    H161964   5.638   4.084  12.411  1.4359  1.0078  0.1208
13491TIP3    H261965   5.676   4.081  12.557 -0.3199  1.1754  0.6055
13492TIP3   OH261966   2.013   5.889   1.707  0.0662  0.4466 -0.1959
13492TIP3    H161967   1.961   5.956   1.662  0.4442  0.7902 -0.1328
13492TIP3    H261968   2.055   5.839   1.637 -0.6175 -0.0550 -0.2548
13493TIP3   OH261969   4.955   0.818  17.054 -0.6617  0.0876 -0.0421
13493TIP3    H161970   5.030   0.812  16.995  0.1035 -0.9631  0.9892
13493TIP3    H261971   4.950   0.911  17.078  0.6030  0.0945  0.2293
13494TIP3   OH261972   6.305   5.336   1.516 -0.0913 -0.0435  0.3449
13494TIP3    H161973   6.213   5.352   1.497 -0.4264 -0.1677  1.7295
13494TIP3    H261974   6.304   5.281   1.594  1.1568 -0.1602  0.3012
13495TIP3   OH261975   0.871   1.880  13.427 -0.4281 -0.0295 -0.2082
13495TIP3    H161976   0.834   1.851  13.510  0.1801 -0.2032  0.0007
13495TIP3    H261977   0.826   1.963  13.409  1.8146  1.8394  2.0005
13496TIP3   OH261978   1.687   3.773  16.974  0.3992  0.3223 -0.4402
13496TIP3    H161979   1.605   3.725  16.964  0.5196 -0.0224  0.1983
13496TIP3    H261980   1.683   3.840  16.906 -0.6238  0.6040 -0.1271
13497TIP3   OH261981   2.960   5.362   2.313  0.0386 -0.3763  0.1783
13497TIP3    H161982   3.035   5.416   2.340 -0.6907  0.9180 -0.3082
13497TIP3    H261983   2.913   5.343   2.394  0.4056 -0.4615  0.3746
13498TIP3   OH261984   0.295   1.832  10.926  0.3621  0.1016  0.3078
13498TIP3    H161985   0.270   1.813  11.017 -1.1441  0.1042 -0.0804
13498TIP3    H261986   0.301   1.746  10.884 -0.2690  0.1572  0.0914
13499TIP3   OH261987   4.172   5.283   2.032  0.3007 -0.2619 -0.3707
13499TIP3    H161988   4.133   5.217   2.089  1.8826 -1.4492 -0.5972
13499TIP3    H261989   4.180   5.361   2.088 -2.0001 -0.0567 -0.2298
13500TIP3   OH261990   1.358   1.359   4.473 -0.4842  0.1295 -0.3538
13500TIP3    H161991   1.362   1.390   4.383  1.2415  0.5799 -0.1663
13500TIP3    H261992   1.427   1.294   4.479  0.8442  1.5921  1.1398
13501TIP3   OH261993   0.263   0.335   4.381  0.1321 -0.0391  0.3101
13501TIP3    H161994   0.329   0.267   4.368  1.3903  1.4888 -1.9791
13501TIP3    H261995   0.185   0.288   4.409  0.8561 -2.4721 -1.4747
13502TIP3   OH261996   6.754   1.588  14.644  0.3528 -0.7599 -0.3101
13502TIP3    H161997   6.692   1.560  14.711  0.1391 -0.3469 -0.3338
13502TIP3    H261998   6.837   1.550  14.671  0.3454 -0.2920  0.3947
13503TIP3   OH261999   3.056   4.012   3.243 -0.1285  0.0000 -0.2493
13503TIP3    H162000   3.058   4.105   3.219 -0.9981 -0.5228 -2.6559
13503TIP3    H262001   3.116   3.971   3.181  1.5778 -0.8903  1.8886
13504TIP3   OH262002   5.378   3.630   5.503 -0.1477 -0.5084  0.2101
13504TIP3    H162003   5.345   3.617   5.414  1.9406 -3.2170 -0.3267
13504TIP3    H262004   5.307   3.600   5.560 -0.4589 -1.5148 -0.6767
13505TIP3   OH262005   5.773   3.070   5.171  0.0147 -0.0043  0.0695
13505TIP3    H162006   5.769   2.974   5.172 -1.2859  0.0151  2.5036
13505TIP3    H262007   5.860   3.089   5.136 -0.2337 -1.9999 -1.8676
13506TIP3   OH262008   0.950   1.681  11.312  0.2868 -0.4281  0.0615
13506TIP3    H162009   0.866   1.676  11.266  0.6337 -1.2835 -0.5075
13506TIP3    H262010   0.944   1.613  11.380  0.2678 -0.0392  0.4525
13507TIP3   OH262011   6.537   1.347  14.337  0.1286  0.0630 -0.3345
13507TIP3    H162012   6.557   1.432  14.376  0.8086  0.6842 -1.9392
13507TIP3    H262013   6.621   1.317  14.301 -0.4860 -0.3663 -1.4734
13508TIP3   OH262014   1.931   1.097  17.254 -0.4560  0.3998 -0.4298
13508TIP3    H162015   1.849   1.146  17.262 -1.7302 -1.7588  1.0344
13508TIP3    H262016   1.936   1.076  17.160 -0.5324  2.1529 -0.8616
13509TIP3   OH262017   4.147   1.617   2.399 -0.3712 -0.1169  0.7338
13509TIP3    H162018   4.195   1.688   2.355  1.3926 -1.1595  0.8536
13509TIP3    H262019   4.112   1.657   2.479 -1.6134  1.2185 -0.4200
13510TIP3   OH262020   1.524   3.814  12.052 -0.4096 -0.2731  1.2735
13510TIP3    H162021   1.597   3.868  12.022  0.0579  0.3078  3.3159
13510TIP3    H262022   1.462   3.876  12.090 -2.3642 -0.6771 -1.0091
13511TIP3   OH262023   1.673   0.072   3.382  0.0294  0.0856 -0.8562
13511TIP3    H162024   1.602   0.112   3.331 -0.3358 -0.3791 -0.7086
13511TIP3    H262025   1.660  -0.022   3.373 -1.7830 -0.1262  2.4225
13512TIP3   OH262026   0.331   5.252   0.627 -0.3845 -0.1881 -0.5054
13512TIP3    H162027   0.257   5.284   0.678 -0.1718  0.4246 -0.5722
13512TIP3    H262028   0.353   5.324   0.568 -1.0782 -1.1262 -1.9931
13513TIP3   OH262029   3.246   3.123  16.465  0.4028  0.3214  0.1848
13513TIP3    H162030   3.199   3.148  16.385  0.5715  0.8084  0.2317
13513TIP3    H262031   3.250   3.204  16.516  0.3828  0.0367  0.6456
13514TIP3   OH262032   0.750   3.001   0.471 -0.3472  0.2807  0.1796
13514TIP3    H162033   0.700   2.998   0.553  0.2322  1.7910  0.6242
13514TIP3    H262034   0.687   2.977   0.403 -0.7518 -1.3764  1.0752
13515TIP3   OH262035   0.492   5.974  13.888 -0.6192 -0.5129  0.8598
13515TIP3    H162036   0.405   6.003  13.916 -0.5599 -1.1591  1.7596
13515TIP3    H262037   0.531   5.937  13.967  0.6019  0.0516  0.5421
13516TIP3   OH262038   4.007   0.975   5.646 -0.0409 -0.2929 -0.1835
13516TIP3    H162039   3.950   0.954   5.573  0.4019 -0.3231 -0.5260
13516TIP3    H262040   4.073   0.906   5.646  2.5812  1.9675 -2.5186
13517TIP3   OH262041   4.603   3.345  16.406  0.3061 -0.0335 -0.7958
13517TIP3    H162042   4.621   3.255  16.380  2.7939  0.0861  0.2692
13517TIP3    H262043   4.571   3.387  16.326 -0.6633 -1.7544 -1.3674
13518TIP3   OH262044   5.352   2.981  14.685 -0.5077  0.4783  0.1549
13518TIP3    H162045   5.444   2.955  14.683 -0.0314  1.8161  2.1330
13518TIP3    H262046   5.327   2.988  14.593  1.9386  1.9158 -0.4878
13519TIP3   OH262047   0.714   3.928  13.411 -0.1288  0.7173 -0.0721
13519TIP3    H162048   0.802   3.895  13.428  0.4465  1.4001 -1.5222
13519TIP3    H262049   0.703   3.919  13.316 -1.5594  0.8274  0.0567
13520TIP3   OH262050   1.223   1.008  12.735 -0.2390 -0.7699 -0.1264
13520TIP3    H162051   1.253   0.917  12.742  0.5605 -0.5588 -0.6853
13520TIP3    H262052   1.273   1.055  12.802  1.0283 -0.3492 -1.3056
13521TIP3   OH262053   2.628   0.896  14.662  0.1582  0.1505  0.4237
13521TIP3    H162054   2.657   0.986  14.649  1.7527 -0.1877  1.2941
13521TIP3    H262055   2.692   0.860  14.724 -0.2071 -1.6918 -0.2247
13522TIP3   OH262056   0.444   0.544  15.696  0.4664 -0.1406  0.4702
13522TIP3    H162057   0.461   0.550  15.790 -1.4345 -1.6277  0.9841
13522TIP3    H262058   0.429   0.634  15.669 -3.2255  0.1126  2.5963
13523TIP3   OH262059   1.158   4.515  11.135  0.0762 -0.1536 -0.6346
13523TIP3    H162060   1.233   4.540  11.080 -0.6751  2.0950 -0.7365
13523TIP3    H262061   1.193   4.447  11.193  2.0285  0.3841 -1.0832
13524TIP3   OH262062   2.406   3.146   4.387  0.5985  0.4016  0.2564
13524TIP3    H162063   2.322   3.155   4.433  0.9296  2.3616  0.5628
13524TIP3    H262064   2.465   3.108   4.453  0.0394 -0.8214  0.0922
13525TIP3   OH262065   6.419   4.056  14.518  0.4409  0.5339 -0.2224
13525TIP3    H162066   6.358   4.083  14.450  0.6399  1.9194  0.1091
13525TIP3    H262067   6.501   4.100  14.495  1.1869 -0.9222 -0.4079
13526TIP3   OH262068   5.345   5.121  17.113  0.0259 -0.0282  0.3059
13526TIP3    H162069   5.388   5.202  17.085  0.4301 -0.1261  0.6228
13526TIP3    H262070   5.325   5.075  17.032  0.8759 -0.1561  0.1506
13527TIP3   OH262071   4.939   1.249  15.704 -0.2828 -0.3257  0.2813
13527TIP3    H162072   5.028   1.275  15.728 -1.3587  1.9297  2.1383
13527TIP3    H262073   4.904   1.208  15.783 -1.7137  1.1868  0.4816
13528TIP3   OH262074   3.586   0.420  14.158  0.0293  0.4846  0.3524
13528TIP3    H162075   3.680   0.432  14.140 -0.1676 -0.7083 -1.7436
13528TIP3    H262076   3.583   0.345  14.217  0.3987  1.0609  1.1396
13529TIP3   OH262077   3.518   3.198  12.840  0.2295  0.1093  0.0615
13529TIP3    H162078   3.428   3.193  12.870  0.3369 -0.6156  0.2812
13529TIP3    H262079   3.570   3.204  12.920  0.4438 -0.6567 -0.0132
13530TIP3   OH262080   6.163   6.014  16.445  0.2112 -0.8896 -0.8328
13530TIP3    H162081   6.117   5.964  16.377 -1.8656  1.9870 -1.7404
13530TIP3    H262082   6.107   6.090  16.461  1.9703 -0.0770  2.2274
13531TIP3   OH262083   1.631   1.104  16.935 -0.0506 -0.6263  0.1026
13531TIP3    H162084   1.614   1.194  16.964  1.0828 -0.7576  1.2701
13531TIP3    H262085   1.550   1.057  16.953 -0.5973  0.1191 -0.3705
13532TIP3   OH262086   6.649   0.040   3.464  0.1707  0.1315 -0.0281
13532TIP3    H162087   6.698   0.101   3.408  0.4957 -0.4772 -0.4225
13532TIP3    H262088   6.569   0.088   3.488  0.0706  0.4446 -0.9373
13533TIP3   OH262089   6.353   2.498  13.038 -0.1469 -0.8868 -0.2095
13533TIP3    H162090   6.377   2.453  13.119 -2.4315  0.0203  1.0815
13533TIP3    H262091   6.331   2.587  13.066  0.1189 -0.2025 -2.0252
13534TIP3   OH262092   0.348   5.211   5.849  0.4932 -0.5664 -0.7295
13534TIP3    H162093   0.273   5.153   5.835  0.9189 -0.9312 -1.5822
13534TIP3    H262094   0.390   5.178   5.928 -0.7393  0.1973  0.2942
13535TIP3   OH262095   3.149   3.783   2.457  0.2691  0.1926  0.1678
13535TIP3    H162096   3.232   3.831   2.452  0.8644 -0.6325  1.6510
13535TIP3    H262097   3.115   3.786   2.367  2.5617 -0.6238 -0.8122
13536TIP3   OH262098   4.246   3.692   1.989  0.6563  0.1562  0.2448
13536TIP3    H162099   4.306   3.732   1.926  0.2584  2.1794  1.0870
13536TIP3    H262100   4.161   3.731   1.969 -0.2200 -1.8459 -0.2054
13537TIP3   OH262101   4.114   1.413   2.079  0.2617  0.3535  0.2406
13537TIP3    H162102   4.115   1.339   2.019 -0.8561  0.6028 -0.1225
13537TIP3    H262103   4.197   1.407   2.127  0.6484 -0.5195 -0.5070
13538TIP3   OH262104   3.466   2.183   1.359  0.6123 -0.0429 -0.3274
13538TIP3    H162105   3.480   2.120   1.430  2.4575  0.9240  0.2469
13538TIP3    H262106   3.481   2.133   1.279  1.2789 -0.5339  0.0952
13539TIP3   OH262107   6.753   4.263   0.872  0.6168 -0.2913  0.1144
13539TIP3    H162108   6.707   4.281   0.790  1.7252  2.8572  0.0485
13539TIP3    H262109   6.840   4.233   0.846  1.3039  1.6335  0.0268
13540TIP3   OH262110   4.574   3.162   0.534  0.4943  0.1726  0.1059
13540TIP3    H162111   4.606   3.239   0.580 -0.4464  0.3349  0.5044
13540TIP3    H262112   4.483   3.153   0.561 -0.1900  0.4301 -1.9071
13541TIP3   OH262113   6.355   1.857   6.351  0.4960  0.3095  0.0606
13541TIP3    H162114   6.262   1.875   6.338  0.2760 -1.0162 -0.3456
13541TIP3    H262115   6.358   1.799   6.427  0.9015 -0.4456 -0.5216
13542TIP3   OH262116   4.527   5.545   3.153 -0.4557  0.7554  0.1014
13542TIP3    H162117   4.559   5.595   3.228 -1.9506  0.9589  0.6264
13542TIP3    H262118   4.597   5.482   3.134  0.2734  1.2281  1.1458
13543TIP3   OH262119   4.664   2.594  11.640 -0.1590  0.0133 -0.6142
13543TIP3    H162120   4.648   2.652  11.714  0.6553  0.4195 -0.7459
13543TIP3    H262121   4.594   2.528  11.645  0.3759 -0.4762  1.0218
13544TIP3   OH262122   1.025   6.292   3.681  0.3448  0.2137  0.4601
13544TIP3    H162123   0.985   6.205   3.682  1.7409 -0.4580  1.3683
13544TIP3    H262124   0.951   6.353   3.684 -0.7119 -0.9780  4.0951
13545TIP3   OH262125   5.367   1.294  17.065  0.3174  0.1111  0.1800
13545TIP3    H162126   5.398   1.233  16.998  0.2173 -0.1444  0.3686
13545TIP3    H262127   5.425   1.280  17.140  1.0845  1.1070 -0.1925
13546TIP3   OH262128   4.356   5.115  13.223  0.0643  0.0861  0.2354
13546TIP3    H162129   4.262   5.120  13.242  0.1622  0.0312  0.7586
13546TIP3    H262130   4.362   5.128  13.129 -0.2180  3.4626  0.5427
13547TIP3   OH262131   1.011   1.703  12.250  0.2992  0.0846 -0.5002
13547TIP3    H162132   0.968   1.774  12.202 -1.2555 -0.7823 -0.4441
13547TIP3    H262133   0.987   1.718  12.341  0.9053  0.1108 -0.3405
13548TIP3   OH262134   4.072   2.869  16.001 -0.5651  0.8344  0.0702
13548TIP3    H162135   4.004   2.823  15.951 -0.5609  0.7043  0.1846
13548TIP3    H262136   4.154   2.844  15.957 -0.5685  0.7877  0.0919
13549TIP3   OH262137   1.627   3.657  11.100  0.3811 -0.2021  0.5237
13549TIP3    H162138   1.684   3.677  11.026 -1.6758  0.2019 -1.0393
13549TIP3    H262139   1.656   3.717  11.169  2.4187 -0.6650  0.1306
13550TIP3   OH262140   4.300   1.362   1.827  0.2581  0.3042  0.7155
13550TIP3    H162141   4.394   1.349   1.812 -0.0893 -0.0631 -1.4286
13550TIP3    H262142   4.262   1.274   1.820 -0.5697  0.7753 -1.4421
13551TIP3   OH262143   4.273   6.528  12.247 -0.5391  0.2015 -0.1635
13551TIP3    H162144   4.208   6.498  12.310 -0.7171  0.8039 -0.0545
13551TIP3    H262145   4.318   6.449  12.219  0.0882  0.0210  1.3185
13552TIP3   OH262146   5.879   2.118  13.905 -0.0424  0.1356  0.3011
13552TIP3    H162147   5.845   2.042  13.858  0.9330 -0.6888  0.8818
13552TIP3    H262148   5.923   2.170  13.839  2.5233 -1.6989  0.4225
13553TIP3   OH262149   5.185   4.623  17.107  0.9409  0.2613  0.8274
13553TIP3    H162150   5.182   4.539  17.151  2.1273 -0.5640 -0.5571
13553TIP3    H262151   5.273   4.627  17.069  0.3361  1.3503 -0.5650
13554TIP3   OH262152   3.756   0.755  14.170 -0.2694 -0.4329 -0.4781
13554TIP3    H162153   3.803   0.828  14.130 -0.9678 -0.9751 -2.4148
13554TIP3    H262154   3.772   0.681  14.111 -1.4404 -1.2684  0.2079
13555TIP3   OH262155   3.619   0.719   3.450  0.2452  0.1267  0.3919
13555TIP3    H162156   3.595   0.798   3.402  0.3584 -1.3625 -2.2997
13555TIP3    H262157   3.713   0.708   3.434  0.0134 -1.1287 -0.2390
13556TIP3   OH262158   5.454   0.671  13.660  0.6512 -0.3583 -0.1716
13556TIP3    H162159   5.402   0.690  13.582  1.4547 -0.6571 -0.7940
13556TIP3    H262160   5.390   0.639  13.724 -0.2777  1.5091 -0.1154
13557TIP3   OH262161   3.342   2.712  15.846 -0.1201  0.1191 -0.4522
13557TIP3    H162162   3.354   2.727  15.940  1.2425 -0.2947 -0.5346
13557TIP3    H262163   3.343   2.799  15.808 -2.5663  0.4403  0.0714
13558TIP3   OH262164   5.469   5.168  14.416  0.1052  0.3965 -0.2225
13558TIP3    H162165   5.532   5.120  14.469 -0.9966 -0.7179  0.1122
13558TIP3    H262166   5.385   5.129  14.437 -0.4735  0.5277 -2.1335
13559TIP3   OH262167   5.556   5.201  13.419  0.1044  0.4166  0.5479
13559TIP3    H162168   5.492   5.205  13.490  0.4490 -1.3902  1.0335
13559TIP3    H262169   5.504   5.208  13.339 -0.6332 -0.2379  0.9515
13560TIP3   OH262170   4.556   1.364  13.461 -0.2640 -0.3091  0.0935
13560TIP3    H162171   4.634   1.312  13.479  0.7232  1.5578  1.7036
13560TIP3    H262172   4.506   1.361  13.543 -0.5130  0.6907 -0.0122
13561TIP3   OH262173   0.654   3.221   4.911  0.6222  0.4609  0.0611
13561TIP3    H162174   0.600   3.143   4.924 -0.2276  1.1780  0.9401
13561TIP3    H262175   0.630   3.253   4.824  0.8124 -0.1189 -0.2100
13562TIP3   OH262176   0.758   4.007   4.288  0.3742 -0.1494  0.8037
13562TIP3    H162177   0.757   3.933   4.229  0.1939 -0.5620  1.3166
13562TIP3    H262178   0.667   4.039   4.288  0.5453  0.3544  0.2385
13563TIP3   OH262179   0.363   3.690   5.758 -0.1063  1.2180 -0.0050
13563TIP3    H162180   0.451   3.709   5.725 -0.0994  0.2050 -0.6067
13563TIP3    H262181   0.377   3.667   5.850  0.6693 -1.5864 -0.7185
13564TIP3   OH262182   2.697   4.465   2.151  0.3637 -0.1071  0.5326
13564TIP3    H162183   2.681   4.546   2.199 -1.6915 -0.6241  0.7945
13564TIP3    H262184   2.659   4.396   2.206  0.9690 -1.1121 -0.2618
13565TIP3   OH262185   1.035   3.838  16.915  0.1506  0.0502  0.0065
13565TIP3    H162186   1.010   3.758  16.961 -1.7559 -1.3962 -3.2202
13565TIP3    H262187   0.967   3.902  16.940 -1.8173 -1.1943 -1.8223
13566TIP3   OH262188   5.469   1.808   4.548  0.9051  0.4600 -0.3415
13566TIP3    H162189   5.519   1.845   4.621 -0.7694  1.0224  0.5790
13566TIP3    H262190   5.413   1.880   4.519 -1.3682 -0.8660  0.5131
13567TIP3   OH262191   1.253   6.393  11.609  0.5071  0.8678 -0.5814
13567TIP3    H162192   1.259   6.346  11.526 -0.6245  0.5982 -0.5301
13567TIP3    H262193   1.260   6.324  11.675  0.8425  1.0170 -0.4566
13568TIP3   OH262194   4.935   2.556  12.328 -0.1009  0.5195 -0.5464
13568TIP3    H162195   4.935   2.495  12.254 -0.5524  0.0529 -0.1786
13568TIP3    H262196   5.024   2.589  12.333  0.4312 -0.9197 -0.1119
13569TIP3   OH262197   2.249   4.550   5.267  0.4001  0.9123  0.1993
13569TIP3    H162198   2.197   4.469   5.273 -1.4668  2.0513  0.1158
13569TIP3    H262199   2.340   4.520   5.273 -0.2499 -1.1417  0.7156
13570TIP3   OH262200   0.671   1.799  11.254  0.0830 -0.2241  0.1151
13570TIP3    H162201   0.595   1.743  11.242  0.1946 -0.4801  0.5759
13570TIP3    H262202   0.675   1.852  11.174 -0.4133 -0.4016 -0.0291
13571TIP3   OH262203   1.746   2.501  13.496  0.7457 -0.4328  0.8677
13571TIP3    H162204   1.674   2.561  13.481  1.6399  0.8430  1.5017
13571TIP3    H262205   1.822   2.543  13.456  1.0910 -1.9544 -0.1855
13572TIP3   OH262206   5.670   5.276   4.855 -0.4624  0.2361 -0.4096
13572TIP3    H162207   5.613   5.298   4.929 -1.2897  2.0656 -1.5248
13572TIP3    H262208   5.756   5.310   4.881 -1.1548  2.6252 -0.9888
13573TIP3   OH262209   2.655   5.614   5.111  0.3728 -0.4000 -0.6876
13573TIP3    H162210   2.605   5.694   5.129  1.0137  0.0650 -0.9598
13573TIP3    H262211   2.742   5.632   5.145  0.3679 -1.2206 -0.1895
13574TIP3   OH262212   0.023   6.060   0.915  0.3621 -0.4590  0.1438
13574TIP3    H162213   0.079   6.027   0.845 -0.0835 -1.6015  0.3160
13574TIP3    H262214  -0.025   6.132   0.875  0.6783 -0.5987 -0.5041
13575TIP3   OH262215   1.477   4.326   2.271 -0.6591 -0.0621  0.1779
13575TIP3    H162216   1.422   4.271   2.216 -0.9213  0.0708  0.3036
13575TIP3    H262217   1.565   4.318   2.234 -1.2030  1.8872 -1.7685
13576TIP3   OH262218   5.229   1.735   6.805 -0.5512 -0.1789 -0.8686
13576TIP3    H162219   5.281   1.668   6.849  0.7770  0.5885 -1.2167
13576TIP3    H262220   5.245   1.719   6.711 -2.1015 -0.8209 -1.0523
13577TIP3   OH262221   2.923   2.694  17.208  0.0022 -0.1004  0.0867
13577TIP3    H162222   2.908   2.679  17.115  1.0230 -0.9999  0.0495
13577TIP3    H262223   2.955   2.784  17.213  1.3103 -0.4992 -0.6202
13578TIP3   OH262224   5.515   1.539   2.828 -0.1105 -0.3058  0.0776
13578TIP3    H162225   5.447   1.605   2.846 -0.5922 -1.0057  0.9485
13578TIP3    H262226   5.595   1.590   2.817 -0.3259  0.4083  1.4793
13579TIP3   OH262227   1.210   0.536   4.929 -0.7522  0.0070 -0.5058
13579TIP3    H162228   1.148   0.600   4.892 -2.3286 -0.0152  1.8949
13579TIP3    H262229   1.200   0.545   5.024  0.1969 -2.6542 -0.0732
13580TIP3   OH262230   2.737   3.980  11.251 -0.0223 -0.1607 -0.3931
13580TIP3    H162231   2.773   4.048  11.194 -1.5228  1.0484  0.0028
13580TIP3    H262232   2.806   3.915  11.259  1.6885  1.5712 -0.4060
13581TIP3   OH262233   4.446   3.711  16.462  0.1638  0.0998  0.0639
13581TIP3    H162234   4.499   3.637  16.492  1.1021  0.3104 -1.0073
13581TIP3    H262235   4.508   3.768  16.417 -0.8501  0.7108 -0.5982
13582TIP3   OH262236   3.177   1.184   0.144 -0.5091  0.3238  0.3350
13582TIP3    H162237   3.165   1.103   0.095 -0.0966  1.0750 -1.0781
13582TIP3    H262238   3.270   1.185   0.167 -0.3827  0.6291 -0.1471
13583TIP3   OH262239   3.951   2.892   4.338 -0.2052  0.1345 -0.6059
13583TIP3    H162240   4.020   2.944   4.379  0.3064 -1.1272  0.2042
13583TIP3    H262241   3.998   2.831   4.281 -0.6416 -0.6441 -0.1520
13584TIP3   OH262242   2.063   1.593  12.773  0.0095 -0.0508  0.1083
13584TIP3    H162243   2.073   1.645  12.852  1.3204  1.4664 -0.9881
13584TIP3    H262244   2.137   1.619  12.718 -1.8350  0.2952 -2.3662
13585TIP3   OH262245   0.114   3.174  10.383 -0.0497 -0.2811 -0.0298
13585TIP3    H162246   0.149   3.220  10.307 -2.4355  2.4613  0.3662
13585TIP3    H262247   0.167   3.205  10.456 -1.0606  1.2445  0.0991
13586TIP3   OH262248   1.242   5.425  15.496 -0.1734  0.5621  0.1754
13586TIP3    H162249   1.313   5.488  15.510 -1.3589  1.5630  2.0579
13586TIP3    H262250   1.285   5.349  15.457  1.9156  1.2262  1.0508
13587TIP3   OH262251   2.608   5.882  12.082  0.8879 -0.2733 -0.2511
13587TIP3    H162252   2.648   5.955  12.127  0.7503 -0.6413  0.4744
13587TIP3    H262253   2.518   5.911  12.065  1.0555  0.0216 -0.6682
13588TIP3   OH262254   4.668   1.584   3.222 -0.5373  0.5748 -0.1427
13588TIP3    H162255   4.597   1.520   3.223  0.1358 -0.2359 -1.3366
13588TIP3    H262256   4.655   1.636   3.301 -1.3053 -0.8305  0.6974
13589TIP3   OH262257   0.283   0.557  11.672  0.2511 -0.6631  0.2827
13589TIP3    H162258   0.239   0.634  11.709 -0.8751 -1.4462  0.6347
13589TIP3    H262259   0.351   0.593  11.616 -0.9732  0.6262 -0.4537
13590TIP3   OH262260   4.273   1.608  16.703 -0.2845 -0.2607  0.8756
13590TIP3    H162261   4.224   1.614  16.622 -0.4898  1.2002  1.0778
13590TIP3    H262262   4.214   1.644  16.770  0.2606 -0.4773  1.4879
13591TIP3   OH262263   2.966   2.437  14.079 -0.2776 -0.0424  0.4920
13591TIP3    H162264   2.922   2.377  14.020 -1.4637  0.4279  0.8665
13591TIP3    H262265   2.897   2.498  14.108  0.6197  0.7320  1.0760
13592TIP3   OH262266   0.468   1.059  11.233 -0.6074 -0.3728 -0.2889
13592TIP3    H162267   0.481   0.966  11.250  0.6725 -0.0089  0.9493
13592TIP3    H262268   0.483   1.101  11.317  0.5610  1.0949 -1.1711
13593TIP3   OH262269   0.536   6.677   3.491  0.2033 -0.1302  0.0601
13593TIP3    H162270   0.582   6.682   3.407 -0.9623 -0.6142 -0.6253
13593TIP3    H262271   0.463   6.738   3.483  0.1481 -0.0855  0.7775
13594TIP3   OH262272   5.617   4.982  14.865 -0.5544 -0.2438  0.1814
13594TIP3    H162273   5.560   4.909  14.891 -0.1799 -0.0977  1.4757
13594TIP3    H262274   5.684   4.986  14.933  1.2373 -0.6116 -1.4595
13595TIP3   OH262275   4.857   0.366  15.518 -0.1074 -0.0889  0.3391
13595TIP3    H162276   4.766   0.376  15.546 -0.0553 -1.0053  0.8846
13595TIP3    H262277   4.852   0.312  15.440 -0.0220 -0.3323  0.4999
13596TIP3   OH262278   5.551   6.420   3.548  0.1846  0.1785 -0.3761
13596TIP3    H162279   5.499   6.353   3.504  1.6828 -1.4420  0.2300
13596TIP3    H262280   5.579   6.479   3.478  1.4967 -1.6509 -1.4628
13597TIP3   OH262281   0.614   2.050   2.228 -0.0461  0.6131  0.1421
13597TIP3    H162282   0.520   2.039   2.216  0.2361 -0.8191 -1.1999
13597TIP3    H262283   0.646   2.074   2.141  0.8483  0.9887  0.5618
13598TIP3   OH262284   1.019   4.853  13.787  0.5608  0.3353 -0.1150
13598TIP3    H162285   1.017   4.936  13.739 -0.1721 -0.2269 -1.0864
13598TIP3    H262286   1.111   4.826  13.784  0.5700  0.4330 -1.0031
13599TIP3   OH262287   3.819   6.076  16.456 -0.4894  0.4028  0.1362
13599TIP3    H162288   3.797   6.012  16.524 -1.3807  1.4720  0.8894
13599TIP3    H262289   3.735   6.114  16.430  0.0507  1.6388  0.0929
13600TIP3   OH262290   0.238   2.670  15.847 -0.0896 -0.3561  0.1624
13600TIP3    H162291   0.261   2.577  15.852  0.9664 -0.1460 -0.3206
13600TIP3    H262292   0.272   2.707  15.929  1.6648  0.0042 -0.6693
13601TIP3   OH262293   5.124   5.091   5.815 -0.6235 -0.1590  0.0016
13601TIP3    H162294   5.050   5.128   5.864 -0.3295  1.4051 -0.6995
13601TIP3    H262295   5.110   5.121   5.725  0.1854 -0.9253 -0.3898
13602TIP3   OH262296   2.515   3.873  15.984  0.4513 -0.3585 -0.1172
13602TIP3    H162297   2.536   3.951  15.933  0.4041 -0.2920 -0.0352
13602TIP3    H262298   2.422   3.882  16.005  0.7604  0.2779  1.1139
13603TIP3   OH262299   5.897   4.342   1.296  0.1892  0.3714  0.7690
13603TIP3    H162300   5.965   4.275   1.300 -0.6502 -0.5265  0.3800
13603TIP3    H262301   5.833   4.314   1.362  0.4011  1.4538  1.4573
13604TIP3   OH262302   0.170   6.562  15.134  0.8528  0.2486 -0.2800
13604TIP3    H162303   0.175   6.657  15.134  1.1335  0.2340  0.1215
13604TIP3    H262304   0.077   6.542  15.144  0.6973  0.4796 -1.1527
13605TIP3   OH262305   0.738   3.725  12.035  0.3160 -0.2166 -0.7603
13605TIP3    H162306   0.668   3.661  12.023 -0.1388  0.1145  0.0399
13605TIP3    H262307   0.753   3.727  12.130 -0.4928  1.6687 -0.6224
13606TIP3   OH262308   2.347   2.139  15.461 -0.2141  0.7463 -0.3703
13606TIP3    H162309   2.406   2.213  15.475 -1.3630  1.3689  1.6644
13606TIP3    H262310   2.278   2.174  15.405 -1.0838  1.4734  1.0872
13607TIP3   OH262311   2.785   6.144  15.277 -0.0892  0.2854  0.2193
13607TIP3    H162312   2.720   6.189  15.331  2.3253  1.8294  2.0603
13607TIP3    H262313   2.847   6.212  15.253  1.3963 -1.2834 -0.5944
13608TIP3   OH262314   6.053   3.839  13.915  0.7291  0.3237  0.4076
13608TIP3    H162315   6.030   3.905  13.850 -0.2645  0.2997  0.7200
13608TIP3    H262316   5.995   3.856  13.989  1.2769 -0.1624  0.9703
13609TIP3   OH262317   6.807   0.307   3.951  0.4914  0.1120 -0.2962
13609TIP3    H162318   6.804   0.393   3.993  0.2533  0.2712 -0.6259
13609TIP3    H262319   6.899   0.282   3.952  0.2703 -0.8802  2.2563
13610TIP3   OH262320   4.664   0.630  13.184  0.1500  0.0443 -0.3436
13610TIP3    H162321   4.589   0.572  13.172  0.3829  0.1446 -2.8486
13610TIP3    H262322   4.643   0.707  13.132  0.9668  1.1484  0.8914
13611TIP3   OH262323   0.920   4.441   1.053 -0.0060 -0.0194  0.8954
13611TIP3    H162324   0.867   4.471   0.979 -0.0457  0.8082  1.2459
13611TIP3    H262325   0.951   4.354   1.027  1.1569  0.8262 -0.7201
13612TIP3   OH262326   2.064   3.699   3.111  0.3285 -0.0444  0.5531
13612TIP3    H162327   2.063   3.646   3.031  0.2672  3.5150 -1.9901
13612TIP3    H262328   1.972   3.709   3.134  0.2400  0.3597  0.0350
13613TIP3   OH262329   5.179   6.548   0.158 -0.6414  0.8173  0.5473
13613TIP3    H162330   5.167   6.636   0.195  0.1699  2.0108 -1.8153
13613TIP3    H262331   5.215   6.564   0.070  0.6888 -1.9329  0.5016
13614TIP3   OH262332   5.871   0.740  13.890 -0.1420  0.1055 -0.1824
13614TIP3    H162333   5.860   0.798  13.966 -0.1405 -1.8767  1.4055
13614TIP3    H262334   5.965   0.743  13.872 -0.3840  2.0836 -1.4154
13615TIP3   OH262335   0.831   5.311   3.827 -0.1353 -0.8423  0.2359
13615TIP3    H162336   0.859   5.396   3.793 -1.2769 -0.4505  0.2213
13615TIP3    H262337   0.741   5.301   3.794 -1.0288 -0.7842  2.5124
13616TIP3   OH262338   6.741   0.244  10.596  0.6561 -0.4914  0.4224
13616TIP3    H162339   6.654   0.284  10.602  0.6347 -0.5760  0.6910
13616TIP3    H262340   6.746   0.212  10.506  0.5404 -0.1892  0.3072
13617TIP3   OH262341   1.182   1.227   5.152 -0.2649 -0.2591 -0.6737
13617TIP3    H162342   1.265   1.226   5.199  0.1708 -0.2009 -1.4314
13617TIP3    H262343   1.179   1.143   5.107 -0.6859 -0.3154 -0.5523
13618TIP3   OH262344   5.527   1.280   0.031  0.0866  0.5023 -0.9126
13618TIP3    H162345   5.603   1.239   0.072 -0.4995 -0.9545 -1.1805
13618TIP3    H262346   5.465   1.292   0.102  0.5158  1.6044 -0.7106
13619TIP3   OH262347   2.342   3.333   4.598 -0.2142 -0.0914  0.0819
13619TIP3    H162348   2.423   3.332   4.547 -0.6228 -1.0865 -0.5635
13619TIP3    H262349   2.353   3.406   4.659 -0.2386  1.9600 -2.2424
13620TIP3   OH262350   3.110   0.446   5.222  0.7298 -0.5783  0.1084
13620TIP3    H162351   3.180   0.493   5.177 -0.2025 -0.7494 -1.6028
13620TIP3    H262352   3.037   0.508   5.226  0.5607 -0.8087  0.7319
13621TIP3   OH262353   5.875   1.349  10.884 -0.1878 -0.4742 -0.6243
13621TIP3    H162354   5.847   1.430  10.841 -2.1895 -0.7703 -0.0007
13621TIP3    H262355   5.956   1.325  10.840 -1.5404 -0.1955 -3.5414
13622TIP3   OH262356   2.023   3.682   1.039 -0.1481  0.4887  0.2427
13622TIP3    H162357   1.954   3.626   1.003 -1.3658  1.0348  1.6348
13622TIP3    H262358   2.066   3.628   1.105  1.8235 -0.3742 -1.6307
13623TIP3   OH262359   3.968   6.141   5.084 -0.1416  0.0937  0.8481
13623TIP3    H162360   4.057   6.159   5.113 -0.7752  1.6240  1.9490
13623TIP3    H262361   3.912   6.178   5.153 -1.6341 -0.8012  0.1687
13624TIP3   OH262362   1.738   4.671  11.984 -0.4317 -0.1579  0.5627
13624TIP3    H162363   1.678   4.743  11.963  1.8421  1.4202 -1.0261
13624TIP3    H262364   1.791   4.704  12.057  1.3633  0.3347 -0.8868
13625TIP3   OH262365   4.851   4.712  15.286 -0.0513 -0.1067  0.8794
13625TIP3    H162366   4.826   4.643  15.348 -0.0775 -1.8460 -0.9691
13625TIP3    H262367   4.875   4.665  15.206  3.6113  1.7845  0.6571
13626TIP3   OH262368   2.571   5.579  17.110  0.4833 -0.3545  0.5341
13626TIP3    H162369   2.503   5.642  17.133  0.6132  0.1689 -0.4606
13626TIP3    H262370   2.653   5.625  17.124  0.5680 -0.0439 -0.8407
13627TIP3   OH262371   3.357   4.385  16.718  0.1117 -0.4362  0.0492
13627TIP3    H162372   3.297   4.445  16.763 -0.2407 -0.3542 -0.5176
13627TIP3    H262373   3.374   4.315  16.782 -1.0586 -0.7654  0.0199
13628TIP3   OH262374   2.272   3.452   5.235 -0.3355  0.8829  0.1330
13628TIP3    H162375   2.327   3.398   5.178 -0.6204 -0.0703  0.7370
13628TIP3    H262376   2.333   3.497   5.293 -0.1910 -1.0140  1.5386
13629TIP3   OH262377   1.381   5.610   5.964 -0.2525  0.2845  0.2494
13629TIP3    H162378   1.287   5.615   5.979  0.2511  0.6181  4.2134
13629TIP3    H262379   1.408   5.701   5.952 -0.0399  0.6683  3.0280
13630TIP3   OH262380   0.562   3.299   5.987  0.7234  0.5000 -0.3601
13630TIP3    H162381   0.490   3.246   6.019  0.8935  0.7793  0.5253
13630TIP3    H262382   0.614   3.240   5.933  0.6357 -0.0983  0.2014
13631TIP3   OH262383   3.608   4.249  10.798  0.1657  1.0014 -0.3392
13631TIP3    H162384   3.666   4.307  10.748  1.0673 -0.5051 -1.0891
13631TIP3    H262385   3.570   4.190  10.733 -2.0135  1.7211  0.1817
13632TIP3   OH262386   0.797   1.216   3.995  0.4603 -0.3669  0.2073
13632TIP3    H162387   0.702   1.218   4.004  0.3302  3.5014 -0.1068
13632TIP3    H262388   0.812   1.199   3.902 -0.1096  1.1023 -0.1920
13633TIP3   OH262389   5.714   6.498   6.432 -0.4784 -0.3452 -0.3493
13633TIP3    H162390   5.731   6.447   6.353  0.7244 -0.3043 -0.1423
13633TIP3    H262391   5.795   6.548   6.446 -0.0390 -1.5222  1.7541
13634TIP3   OH262392   0.258   3.156   5.428 -0.3349  0.1717 -0.0334
13634TIP3    H162393   0.184   3.195   5.381 -0.0488  1.4957  0.5614
13634TIP3    H262394   0.326   3.146   5.362 -0.8951 -0.6718 -0.4967
13635TIP3   OH262395   3.074   2.346  14.444  0.4672  0.1542  0.0517
13635TIP3    H162396   3.145   2.405  14.467  0.3886  0.7392 -1.1508
13635TIP3    H262397   3.116   2.278  14.391  0.4784 -0.6568  1.0604
13636TIP3   OH262398   3.954   1.564  12.263  0.4324  0.4222  0.7705
13636TIP3    H162399   3.870   1.568  12.218  0.3914  2.0613  0.9169
13636TIP3    H262400   4.018   1.553  12.192  0.1202 -0.7875  0.6583
13637TIP3   OH262401   3.879   4.250  16.495  0.4452 -0.3767  0.3461
13637TIP3    H162402   3.945   4.188  16.527  1.1541  0.1887  0.0263
13637TIP3    H262403   3.907   4.334  16.532 -1.4704 -0.4782  2.2353
13638TIP3   OH262404   6.480   1.379  15.209  0.5761  0.0095  0.0087
13638TIP3    H162405   6.466   1.284  15.214  3.0692 -0.4062  0.6847
13638TIP3    H262406   6.498   1.406  15.299  0.6066  1.0052 -0.2848
13639TIP3   OH262407   1.635   2.581  15.114  0.1861 -0.1732 -0.3606
13639TIP3    H162408   1.642   2.649  15.048 -0.4056 -0.5940 -0.8750
13639TIP3    H262409   1.617   2.627  15.195  1.4907  0.3945 -0.3616
13640TIP3   OH262410   5.062   6.001  15.882 -0.0020 -0.4445  0.0297
13640TIP3    H162411   5.082   6.047  15.800  1.1929 -1.0850 -0.0575
13640TIP3    H262412   5.141   6.013  15.935 -0.7470 -0.0814  1.0784
13641TIP3   OH262413   0.020   3.005  15.698  0.3819  0.0599 -0.0835
13641TIP3    H162414  -0.055   2.976  15.647  1.7307 -4.1360  0.0046
13641TIP3    H262415  -0.014   3.013  15.787 -0.2197 -0.5530 -0.2503
13642TIP3   OH262416   4.430   0.524  13.851 -0.6665  0.6621  0.5584
13642TIP3    H162417   4.418   0.448  13.908 -0.4100  0.8118  0.8077
13642TIP3    H262418   4.341   0.553  13.832 -0.7675  0.2810  0.4368
13643TIP3   OH262419   2.993   4.281  13.492  0.7108 -0.0725  0.4387
13643TIP3    H162420   2.977   4.227  13.570 -1.3371 -2.3904 -1.4289
13643TIP3    H262421   3.034   4.360  13.527  0.2318 -1.1227  3.8297
13644TIP3   OH262422   6.308   6.049  16.956 -0.1317 -0.3111 -0.1699
13644TIP3    H162423   6.313   6.045  16.860 -0.0744  0.3412 -0.2008
13644TIP3    H262424   6.222   6.087  16.974 -0.8914 -2.0685  0.0944
13645TIP3   OH262425   5.728   3.571  14.063  0.5256 -0.4967  0.0698
13645TIP3    H162426   5.783   3.566  14.141  0.0831 -1.5820  0.3324
13645TIP3    H262427   5.668   3.497  14.071 -0.6518  0.3586 -0.4603
13646TIP3   OH262428   1.773   3.464  14.481  0.3654 -0.8029 -0.2141
13646TIP3    H162429   1.806   3.426  14.400 -1.5872 -0.7309 -1.1118
13646TIP3    H262430   1.696   3.515  14.454  1.0068  1.1787  1.3784
13647TIP3   OH262431   6.323   4.208  14.285 -0.6796  0.2136 -0.4303
13647TIP3    H162432   6.378   4.262  14.343  1.0543 -0.0595 -1.7633
13647TIP3    H262433   6.311   4.262  14.207 -0.3807 -0.6425 -1.0747
13648TIP3   OH262434   0.207   4.408   0.806 -0.4706 -0.6673 -0.5485
13648TIP3    H162435   0.118   4.419   0.840  0.2818 -0.7735  1.6137
13648TIP3    H262436   0.263   4.435   0.878  1.2690 -3.1607 -0.8357
13649TIP3   OH262437   6.256   6.718   2.559  0.0086  0.1598 -0.4448
13649TIP3    H162438   6.232   6.811   2.560  0.2555  0.2663 -2.1369
13649TIP3    H262439   6.278   6.698   2.650 -3.1078  0.9219  0.6038
13650TIP3   OH262440   6.149   4.595   1.748  0.1601  0.5177  0.5980
13650TIP3    H162441   6.229   4.647   1.744 -0.8997  2.2072  0.3857
13650TIP3    H262442   6.170   4.515   1.700  0.7111  2.4409 -2.6963
13651TIP3   OH262443   5.351   6.787  12.086 -0.1804 -0.3621 -0.4289
13651TIP3    H162444   5.426   6.824  12.133  0.7775 -0.4554 -1.8207
13651TIP3    H262445   5.387   6.756  12.003 -1.9101  0.3760 -1.5186
13652TIP3   OH262446   2.832   6.031  16.257  0.2221 -0.3548 -0.4857
13652TIP3    H162447   2.800   5.945  16.282  2.6205 -0.9762  0.7252
13652TIP3    H262448   2.844   6.026  16.163  2.2415 -2.0876 -0.1898
13653TIP3   OH262449   6.108   4.102   1.717  0.4889 -0.1947  0.0780
13653TIP3    H162450   6.052   4.052   1.658  1.1247  0.1526 -0.8546
13653TIP3    H262451   6.048   4.142   1.780 -0.1219 -1.2542  0.1822
13654TIP3   OH262452   3.918   0.148   1.769 -0.3452  0.2654 -0.4791
13654TIP3    H162453   3.823   0.139   1.767 -0.3305  0.0493 -0.1935
13654TIP3    H262454   3.933   0.237   1.801 -0.4556  0.5314 -1.1352
13655TIP3   OH262455   6.046   3.271   0.272  0.2583 -0.1907  0.0036
13655TIP3    H162456   6.050   3.184   0.312  0.5415 -0.4109 -0.4866
13655TIP3    H262457   6.131   3.310   0.291  0.5433 -0.4493 -0.7065
13656TIP3   OH262458   3.389   5.710   2.011 -0.2382  0.1970 -0.7295
13656TIP3    H162459   3.476   5.748   2.022 -0.0351 -0.3291 -0.4979
13656TIP3    H262460   3.347   5.722   2.096  0.6230 -2.0726  0.0975
13657TIP3   OH262461   0.805   2.355   0.929 -0.0385  0.5712  0.2892
13657TIP3    H162462   0.828   2.283   0.989 -1.7798 -0.4855 -0.2292
13657TIP3    H262463   0.715   2.379   0.954 -1.1515 -0.4602 -2.3275
13658TIP3   OH262464   0.100   3.812   1.613 -0.2236 -0.0517  0.3459
13658TIP3    H162465   0.020   3.821   1.664  0.4998 -1.1193  1.7398
13658TIP3    H262466   0.085   3.736   1.557  0.4597 -1.4783  1.9972
13659TIP3   OH262467   6.450   3.366  11.763 -0.7724  0.1483 -0.4978
13659TIP3    H162468   6.385   3.297  11.773  2.5781 -3.5751 -1.8186
13659TIP3    H262469   6.505   3.359  11.841  0.9799 -0.3538 -1.7352
13660TIP3   OH262470   4.128   3.554   2.965 -0.0698 -0.4890  0.2410
13660TIP3    H162471   4.076   3.577   3.042 -0.1050 -0.0873  0.0973
13660TIP3    H262472   4.081   3.481   2.925  1.2160 -2.4187  1.9694
13661TIP3   OH262473   3.804   5.726  16.084 -0.0724  0.2648  0.5982
13661TIP3    H162474   3.895   5.750  16.067 -0.4866  0.3528 -1.8547
13661TIP3    H262475   3.773   5.792  16.146  0.6456  2.2520 -1.0424
13662TIP3   OH262476   5.567   1.723   1.996  0.3498 -0.2402 -0.4353
13662TIP3    H162477   5.647   1.691   2.038 -0.0532 -0.0296  0.5211
13662TIP3    H262478   5.497   1.675   2.039 -0.0784 -0.0231 -0.8858
13663TIP3   OH262479   1.807   2.180   2.249  0.1833  0.1905  0.3815
13663TIP3    H162480   1.776   2.270   2.249 -1.6246 -0.3762  1.7574
13663TIP3    H262481   1.747   2.133   2.308  0.4677 -2.1143 -1.0175
13664TIP3   OH262482   1.993   0.027   6.008  0.2622 -0.3782  0.1127
13664TIP3    H162483   2.046   0.020   5.928  1.0956 -0.5371  0.6588
13664TIP3    H262484   1.928   0.094   5.988 -0.2450 -1.1943 -1.0734
13665TIP3   OH262485   2.651   5.273   3.396 -0.0273 -0.5015  0.3387
13665TIP3    H162486   2.727   5.320   3.431  0.5698  0.1590 -1.6680
13665TIP3    H262487   2.681   5.183   3.386 -0.4386 -0.8624  2.0997
13666TIP3   OH262488   6.052   6.182   1.340 -0.7567  0.7382  0.4026
13666TIP3    H162489   5.981   6.143   1.392  0.2027 -1.4194  0.2276
13666TIP3    H262490   6.065   6.120   1.268 -0.1028  2.1811 -0.7635
13667TIP3   OH262491   1.325   3.656  11.886 -0.0050  0.9391 -0.0472
13667TIP3    H162492   1.400   3.710  11.860  0.6755  1.0443  1.9775
13667TIP3    H262493   1.250   3.714  11.875  0.2589  1.0679 -1.4185
13668TIP3   OH262494   1.404   2.567  14.423  0.0203 -0.3174  0.1533
13668TIP3    H162495   1.393   2.576  14.518 -0.6440 -0.1025  0.0641
13668TIP3    H262496   1.453   2.486  14.412  1.7615  0.5977  0.7615
13669TIP3   OH262497   6.038   5.396  15.025  0.0058 -0.2841 -0.0238
13669TIP3    H162498   6.096   5.326  15.055  0.6312 -0.1405 -0.8613
13669TIP3    H262499   6.016   5.445  15.104 -0.0472 -1.1325  0.4930
13670TIP3   OH262500   2.689   3.709  13.592  0.2797  0.3743  0.5705
13670TIP3    H162501   2.672   3.664  13.510  0.6497 -1.9836  1.7132
13670TIP3    H262502   2.725   3.794  13.566  2.3880 -1.0830 -1.7059
13671TIP3   OH262503   2.464   2.630   3.969 -0.4091  0.9160  0.3457
13671TIP3    H162504   2.522   2.609   4.041  0.7484  0.7716 -0.5976
13671TIP3    H262505   2.377   2.634   4.008  0.5414  4.4809  2.4958
13672TIP3   OH262506   1.992   6.784   4.256  0.5262 -0.0299  0.0487
13672TIP3    H162507   2.073   6.736   4.273 -0.5418 -2.3495 -1.0463
13672TIP3    H262508   1.942   6.776   4.337  0.0526 -1.4406 -0.3676
13673TIP3   OH262509   3.839   6.784   1.056  0.1240  0.0348  0.2824
13673TIP3    H162510   3.789   6.797   0.975 -0.8463 -2.0481  0.4870
13673TIP3    H262511   3.894   6.708   1.039  1.1102  0.5419  1.0693
13674TIP3   OH262512   2.133   5.502  15.898  0.1747  0.5672 -0.0949
13674TIP3    H162513   2.130   5.571  15.965  0.9532  1.5964 -1.0918
13674TIP3    H262514   2.066   5.528  15.835 -0.6962 -0.5104  0.3628
13675TIP3   OH262515   2.686   6.367  12.366 -0.2977  0.1353  1.0841
13675TIP3    H162516   2.687   6.445  12.422  0.8928  0.5427  0.5296
13675TIP3    H262517   2.653   6.297  12.423 -0.3748  0.8129  1.8942
13676TIP3   OH262518   5.170   4.063   2.575 -0.5973 -0.2936 -0.2903
13676TIP3    H162519   5.174   4.155   2.601 -2.2405 -0.0834 -0.6631
13676TIP3    H262520   5.080   4.037   2.593 -0.0219 -1.9981  0.3022
13677TIP3   OH262521   4.813   6.310  15.181 -0.9655 -0.3904 -0.0953
13677TIP3    H162522   4.757   6.301  15.104 -1.3505 -0.6609  0.2110
13677TIP3    H262523   4.824   6.220  15.213  1.2160 -0.6056 -1.2357
13678TIP3   OH262524   1.078   5.640  14.468  0.4120 -0.0799  0.0063
13678TIP3    H162525   1.156   5.584  14.463  0.7234  0.3321  0.1352
13678TIP3    H262526   1.112   5.729  14.456  0.1132  0.2022  1.0896
13679TIP3   OH262527   1.792   0.051  15.385 -0.4019 -0.0441 -0.4029
13679TIP3    H162528   1.767   0.090  15.469  0.2547  0.1613 -0.2973
13679TIP3    H262529   1.786  -0.043  15.399  1.2265 -0.0611  0.3690
13680TIP3   OH262530   4.532   1.901   3.159 -0.3427  0.0497  0.7048
13680TIP3    H162531   4.556   1.840   3.229 -0.9266  0.0753  0.9303
13680TIP3    H262532   4.615   1.922   3.116 -0.4583 -3.8304 -1.8369
13681TIP3   OH262533   0.074   1.777   5.572 -0.2442  0.1155  0.4417
13681TIP3    H162534   0.085   1.848   5.634  1.4121  1.5461 -1.3287
13681TIP3    H262535   0.008   1.720   5.611 -0.0598  1.4747  2.9431
13682TIP3   OH262536   6.638   6.242   0.157  0.3245  0.4331 -0.1242
13682TIP3    H162537   6.727   6.263   0.128  0.9953 -0.8402  0.8948
13682TIP3    H262538   6.621   6.155   0.120 -0.8540  1.0245 -1.0280
13683TIP3   OH262539   4.307   2.592  13.995  0.0142 -0.2009 -0.2647
13683TIP3    H162540   4.282   2.684  13.989 -0.1419 -0.1570  0.8816
13683TIP3    H262541   4.236   2.545  13.951  0.3792  0.2459 -1.3712
13684TIP3   OH262542   3.546   2.075   3.415  0.2043  0.7556 -0.1044
13684TIP3    H162543   3.458   2.101   3.386  0.7640  1.0873 -1.6003
13684TIP3    H262544   3.592   2.158   3.427 -0.3120  0.7006  2.9718
13685TIP3   OH262545   1.826   4.378   5.957 -0.2633  0.1921 -0.7616
13685TIP3    H162546   1.904   4.348   5.910  0.4021  2.7174 -1.4011
13685TIP3    H262547   1.769   4.301   5.959  1.8583 -1.4957 -1.0284
13686TIP3   OH262548   0.637   6.513  11.537 -0.0148  0.2784  0.6517
13686TIP3    H162549   0.547   6.482  11.539  0.0004  0.2818  1.6652
13686TIP3    H262550   0.631   6.602  11.502 -0.4368  0.3712  0.9537
13687TIP3   OH262551   5.755   5.420   3.267 -0.7136  0.3954  0.6981
13687TIP3    H162552   5.848   5.432   3.251 -0.7742  0.1710  0.1575
13687TIP3    H262553   5.713   5.496   3.228 -0.9588 -0.6960 -1.3223
13688TIP3   OH262554   1.296   6.149  16.219  0.0682  0.2297  0.0495
13688TIP3    H162555   1.294   6.069  16.271  2.0773 -0.7062 -1.2063
13688TIP3    H262556   1.386   6.156  16.187 -1.2791 -0.2059 -4.6452
13689TIP3   OH262557   1.830   5.077  12.654  0.1375  0.3266 -0.7818
13689TIP3    H162558   1.833   5.158  12.705 -0.7343 -0.1160  0.0127
13689TIP3    H262559   1.742   5.076  12.616 -1.9214 -2.5364  3.2605
13690TIP3   OH262560   1.444   5.713  16.335 -0.4237  0.4781  0.2993
13690TIP3    H162561   1.391   5.790  16.357  0.5357  1.3187 -0.2244
13690TIP3    H262562   1.435   5.705  16.240 -2.0597 -1.2507  0.5392
13691TIP3   OH262563   5.103   1.348   6.338 -0.4561 -0.0157  0.7546
13691TIP3    H162564   5.131   1.322   6.426 -1.5184  0.7002  1.3204
13691TIP3    H262565   5.092   1.265   6.292  1.3063 -0.3745  0.8838
13692TIP3   OH262566   0.714   6.262   0.945 -0.1452  0.2864  0.0937
13692TIP3    H162567   0.768   6.291   1.019 -1.6495 -0.1836  1.4275
13692TIP3    H262568   0.659   6.338   0.924 -1.4521 -0.3410  1.1215
13693TIP3   OH262569   2.274   2.879  11.599 -0.6898 -0.0131  0.3395
13693TIP3    H162570   2.355   2.871  11.649 -1.0215 -1.5846  0.7020
13693TIP3    H262571   2.281   2.811  11.532 -1.1892  0.6367 -0.3935
13694TIP3   OH262572   2.944   4.146  12.380  0.3195 -0.1261 -0.4076
13694TIP3    H162573   2.944   4.234  12.341  1.5374  0.2780  0.4600
13694TIP3    H262574   2.870   4.146  12.440 -1.6454 -0.7830 -2.6685
13695TIP3   OH262575   0.658   2.581  15.573  0.6285  0.2797 -0.2851
13695TIP3    H162576   0.628   2.524  15.502  1.0050 -0.0562 -0.1798
13695TIP3    H262577   0.644   2.670  15.540  1.4155  0.1349 -1.0593
13696TIP3   OH262578   1.235   4.216  13.648  0.6855 -0.0128  0.6708
13696TIP3    H162579   1.223   4.291  13.706  0.7364 -0.3697  1.1585
13696TIP3    H262580   1.313   4.237  13.597 -0.5198  1.2070 -0.7355
13697TIP3   OH262581   5.451   2.615  11.202  0.1994  0.1301  0.0140
13697TIP3    H162582   5.495   2.604  11.118  0.4570  0.2834  0.1255
13697TIP3    H262583   5.486   2.545  11.257  0.1192  0.1010  0.0280
13698TIP3   OH262584   6.527   2.287   1.305 -0.2529  0.2883 -0.0676
13698TIP3    H162585   6.545   2.360   1.246 -0.4063  0.2351 -0.1797
13698TIP3    H262586   6.554   2.320   1.391 -0.2396  0.4456 -0.1310
13699TIP3   OH262587   3.421   4.551  10.700  0.1561  0.3899 -0.4698
13699TIP3    H162588   3.497   4.511  10.658 -0.3057 -0.4133 -0.5687
13699TIP3    H262589   3.457   4.599  10.774  0.6520 -1.0440  0.2606
13700TIP3   OH262590   4.819   0.554   4.700 -0.5010  0.2223  0.8640
13700TIP3    H162591   4.748   0.562   4.764 -2.2942  1.6129 -1.1599
13700TIP3    H262592   4.867   0.636   4.707 -0.6571  0.3473  0.4902
13701TIP3   OH262593   5.901   0.795   1.081 -0.6741 -0.8828 -0.1798
13701TIP3    H162594   5.884   0.708   1.046 -0.1272 -1.0695  0.0247
13701TIP3    H262595   5.894   0.853   1.004  2.7935 -1.5345 -1.1531
13702TIP3   OH262596   4.683   0.722  13.459  0.7976 -0.3880  0.3023
13702TIP3    H162597   4.774   0.750  13.465  0.5962  0.4828 -0.5347
13702TIP3    H262598   4.679   0.671  13.378  0.7413 -1.2540  0.8357
13703TIP3   OH262599   0.126   2.049   4.412 -0.4188  0.2760 -0.3746
13703TIP3    H162600   0.189   1.988   4.376 -0.9419 -0.0710 -0.7157
13703TIP3    H262601   0.043   2.025   4.372 -1.2266 -0.7067  1.7142
13704TIP3   OH262602   2.027   4.913  13.837  0.3653 -0.6173  0.0287
13704TIP3    H162603   1.997   4.931  13.748  0.5805  0.5398  0.1698
13704TIP3    H262604   1.956   4.862  13.877  0.4626 -1.5269 -0.9279
13705TIP3   OH262605   5.241   5.206  15.411  0.1811 -0.2942  0.1033
13705TIP3    H162606   5.256   5.133  15.471 -3.6651 -0.1149  1.6029
13705TIP3    H262607   5.206   5.166  15.332 -1.4304 -0.2036  0.7300
13706TIP3   OH262608   5.349   2.469   1.218 -0.2706  0.1988 -0.4487
13706TIP3    H162609   5.375   2.470   1.126 -2.8105 -1.8434 -1.3202
13706TIP3    H262610   5.333   2.376   1.237 -1.5950  0.7539  1.4736
13707TIP3   OH262611   2.239   4.279  12.293  0.3408 -0.3650 -0.3036
13707TIP3    H162612   2.298   4.298  12.220  1.7232 -0.7988  0.6744
13707TIP3    H262613   2.183   4.208  12.261 -0.2828  0.6331 -1.5442
13708TIP3   OH262614   3.898   5.594   4.543 -0.0803 -0.2074 -0.4044
13708TIP3    H162615   3.888   5.657   4.471 -0.2089 -1.1746 -1.2589
13708TIP3    H262616   3.992   5.584   4.552 -0.0588  0.1117 -0.2634
13709TIP3   OH262617   3.643   2.530   5.787  0.0224  0.0954 -0.4473
13709TIP3    H162618   3.591   2.450   5.797 -1.5027  1.1947  1.0428
13709TIP3    H262619   3.730   2.500   5.763 -0.3420 -2.0492  0.7294
13710TIP3   OH262620   3.521   2.211   5.030 -0.1136  0.7086  0.0344
13710TIP3    H162621   3.577   2.281   4.997  0.7811  0.0229  0.0586
13710TIP3    H262622   3.529   2.217   5.126 -0.6906  1.0907  0.0607
13711TIP3   OH262623   2.352   3.439  16.796  0.2485  0.0208  0.1057
13711TIP3    H162624   2.268   3.484  16.806  0.0481 -0.4983  0.8004
13711TIP3    H262625   2.351   3.371  16.862  1.8802  0.9985  1.2162
13712TIP3   OH262626   2.077   3.944   0.269 -0.1605  0.1965  0.1957
13712TIP3    H162627   2.047   3.853   0.275  1.4697 -0.4080 -0.1425
13712TIP3    H262628   2.106   3.966   0.357 -2.6777  1.2320  0.8405
13713TIP3   OH262629   1.822   1.873  13.185  0.1716  0.1689  0.1595
13713TIP3    H162630   1.768   1.914  13.117 -0.4183 -0.2292  0.3722
13713TIP3    H262631   1.779   1.789  13.202  0.8242 -0.1225  0.3926
13714TIP3   OH262632   4.149   0.650   3.836 -0.0093  0.2871 -0.4841
13714TIP3    H162633   4.065   0.683   3.866 -0.9614 -2.8277  0.6865
13714TIP3    H262634   4.194   0.622   3.916  0.9942 -0.5385 -1.3025
13715TIP3   OH262635   2.689   6.819   4.549 -0.1867  0.0788  0.3279
13715TIP3    H162636   2.718   6.815   4.458  0.9170  2.2094  0.5014
13715TIP3    H262637   2.769   6.805   4.600 -0.5439  0.1947  0.9289
13716TIP3   OH262638   6.198   5.145  12.875 -0.5444  0.4361 -0.3880
13716TIP3    H162639   6.257   5.173  12.805  0.3309 -0.3553  0.0262
13716TIP3    H262640   6.250   5.151  12.954 -1.6555  1.7607  0.3037
13717TIP3   OH262641   5.445   1.923  13.136 -0.0366  0.1762 -0.4708
13717TIP3    H162642   5.506   1.910  13.064 -0.6591  2.0324 -1.3773
13717TIP3    H262643   5.361   1.944  13.094 -0.3827  1.4240  0.7661
13718TIP3   OH262644   4.060   3.004   2.962  0.0919  0.0319  0.5638
13718TIP3    H162645   4.131   3.011   2.899  1.8571 -0.8442  2.3375
13718TIP3    H262646   4.103   3.002   3.048 -1.9230 -2.0258  1.6746
13719TIP3   OH262647   4.637   5.934   2.971 -0.2169  0.5166  0.0195
13719TIP3    H162648   4.636   6.011   3.029  1.0014  1.5840 -1.2930
13719TIP3    H262649   4.618   5.970   2.885 -0.3902 -0.8008 -0.5008
13720TIP3   OH262650   0.958   5.578  10.261 -0.2975  0.4113 -0.1362
13720TIP3    H162651   0.886   5.629  10.224 -0.7938 -0.8356 -0.9386
13720TIP3    H262652   0.929   5.487  10.254  0.6324 -0.0040  1.1245
13721TIP3   OH262653   3.865   2.443   0.896  0.7484 -0.6012 -0.2285
13721TIP3    H162654   3.841   2.353   0.872 -0.5191 -0.5200  0.6076
13721TIP3    H262655   3.940   2.434   0.954  0.1241 -1.1959  0.5071
13722TIP3   OH262656   1.327   4.633  13.820  0.3930  0.1220 -0.1891
13722TIP3    H162657   1.360   4.699  13.758 -0.0725 -0.7791 -1.4306
13722TIP3    H262658   1.392   4.563  13.818  0.4402  0.1422  0.4545
13723TIP3   OH262659   0.524   4.028   5.851 -0.1350  0.0099  0.1821
13723TIP3    H162660   0.595   4.017   5.788 -0.1131 -0.5546  0.3000
13723TIP3    H262661   0.560   3.995   5.934 -0.1078  0.8872  0.5377
13724TIP3   OH262662   4.308   6.636   2.427 -0.5210  0.1111  0.4396
13724TIP3    H162663   4.306   6.662   2.518 -0.1881 -0.7049  0.6919
13724TIP3    H262664   4.399   6.650   2.400  0.4223 -3.2628  1.3765
13725TIP3   OH262665   3.154   5.854  13.584 -0.3605  0.5392  0.8767
13725TIP3    H162666   3.091   5.783  13.598 -2.4968  2.2770  0.8053
13725TIP3    H262667   3.214   5.849  13.658 -1.1881 -0.6075  1.4984
13726TIP3   OH262668   1.491   0.471   4.824 -0.0205 -0.3912  0.6746
13726TIP3    H162669   1.407   0.447   4.863 -0.2897 -0.8066 -0.1437
13726TIP3    H262670   1.552   0.476   4.899 -0.5279 -1.1338  1.1490
13727TIP3   OH262671   0.966   4.642   0.652 -0.0955 -0.5981 -0.7318
13727TIP3    H162672   0.913   4.665   0.576 -0.0946 -0.9135 -0.8314
13727TIP3    H262673   0.931   4.696   0.723 -2.1328 -2.4404 -0.2181
13728TIP3   OH262674   2.869   0.104   3.242  0.9075  0.5229  0.0715
13728TIP3    H162675   2.836   0.041   3.306  2.3231  0.6966  1.0074
13728TIP3    H262676   2.879   0.054   3.161  0.8254 -0.1388  0.4693
13729TIP3   OH262677   6.057   6.248  16.005  0.5909  0.0424 -0.5715
13729TIP3    H162678   6.019   6.184  16.065  2.0864 -0.3101  0.0388
13729TIP3    H262679   6.048   6.332  16.051  0.8890 -0.0885 -0.2807
13730TIP3   OH262680   3.478   5.947  15.517 -0.1533  1.0440 -0.5353
13730TIP3    H162681   3.492   5.972  15.608  0.8915  1.5310 -0.8046
13730TIP3    H262682   3.432   5.864  15.522  2.4339 -0.4665  0.5313
13731TIP3   OH262683   2.476   5.968  14.642 -0.1531 -0.2270  0.3319
13731TIP3    H162684   2.467   5.917  14.723 -1.5981  0.7474  0.8392
13731TIP3    H262685   2.386   5.992  14.619  0.1826 -0.8551 -1.8422
13732TIP3   OH262686   5.043   5.696   1.181  0.1769 -0.1834 -0.1386
13732TIP3    H162687   5.067   5.685   1.088 -0.4826 -0.1026 -0.3201
13732TIP3    H262688   4.955   5.659   1.188 -0.2185  0.7891  0.2234
13733TIP3   OH262689   5.189   2.436  14.914 -0.0338  1.0188  0.9247
13733TIP3    H162690   5.277   2.448  14.951 -0.5832  0.0544  2.6560
13733TIP3    H262691   5.159   2.525  14.896  0.6923  1.4627  1.8095
13734TIP3   OH262692   3.433   0.999  16.583  0.2645 -0.2829 -0.4929
13734TIP3    H162693   3.344   0.979  16.554 -0.8718 -1.3760  3.1908
13734TIP3    H262694   3.485   0.925  16.551 -0.8796 -1.3934  0.1019
13735TIP3   OH262695   1.008   1.156  11.862 -0.2216  0.3465  0.0276
13735TIP3    H162696   0.950   1.084  11.837 -0.7484  0.4122  0.9850
13735TIP3    H262697   1.064   1.119  11.930 -0.2980  0.7482  0.3178
13736TIP3   OH262698   4.106   3.695  11.864 -0.3264  0.0470 -0.2628
13736TIP3    H162699   4.150   3.630  11.809 -1.1200  0.7811 -1.8240
13736TIP3    H262700   4.156   3.695  11.945  0.5263 -1.5068 -0.7424
13737TIP3   OH262701   5.093   5.989   1.851  0.2851 -0.3402 -0.3208
13737TIP3    H162702   5.086   5.899   1.821  0.5488  0.3150 -2.4624
13737TIP3    H262703   5.003   6.022   1.849  0.4090 -0.0499 -1.2124
13738TIP3   OH262704   5.394   5.913   3.323 -0.5799 -0.4102 -0.2797
13738TIP3    H162705   5.437   5.837   3.362  1.6974  1.3050  0.7922
13738TIP3    H262706   5.324   5.935   3.386 -1.7965 -2.0113 -1.0038
13739TIP3   OH262707   1.589   5.208  15.450 -0.0798  0.8447 -0.0390
13739TIP3    H162708   1.552   5.204  15.538  1.4557  0.8597  0.6511
13739TIP3    H262709   1.684   5.209  15.464  0.3164 -1.6484 -1.7660
13740TIP3   OH262710   0.992   3.849  13.907  0.6108  0.0758  0.5034
13740TIP3    H162711   1.033   3.772  13.946  3.1404  1.2455  0.3929
13740TIP3    H262712   1.058   3.883  13.846 -1.1719  1.2702 -0.8726
13741TIP3   OH262713   1.467   1.315  10.451  0.4645  0.5543  0.3533
13741TIP3    H162714   1.378   1.278  10.453  1.0170 -0.8680  2.4398
13741TIP3    H262715   1.510   1.268  10.380 -0.0428  0.1763  0.2882
13742TIP3   OH262716   2.968   3.178   5.952  0.1962  0.4885  0.4724
13742TIP3    H162717   2.936   3.122   6.023  0.0360 -0.2760 -0.1909
13742TIP3    H262718   3.064   3.172   5.959  0.1832 -0.3943  0.0123
13743TIP3   OH262719   2.715   0.160  14.119 -0.1120  0.2687 -0.2119
13743TIP3    H162720   2.769   0.195  14.048 -0.5143 -0.4591 -0.8878
13743TIP3    H262721   2.760   0.081  14.147  0.4603  0.9623  0.8935
13744TIP3   OH262722   0.684   1.408   3.060  0.0770 -0.4853  0.5470
13744TIP3    H162723   0.724   1.470   2.999  1.7472 -1.1566  0.9304
13744TIP3    H262724   0.757   1.366   3.104 -1.0458 -2.1316  0.9242
13745TIP3   OH262725   3.503   6.409   2.269 -0.5003  0.2688  0.3778
13745TIP3    H162726   3.447   6.381   2.341 -0.3669 -0.6448  0.1389
13745TIP3    H262727   3.514   6.331   2.215 -2.5642  1.4762 -1.9954
13746TIP3   OH262728   2.073   2.950   0.621 -0.6338 -0.3032  0.4805
13746TIP3    H162729   2.056   2.855   0.622 -1.0035 -0.2512  1.8456
13746TIP3    H262730   2.113   2.967   0.707  2.4412  0.2913 -0.9238
13747TIP3   OH262731   3.010   1.846  15.139 -0.9887 -0.2704 -0.7651
13747TIP3    H162732   3.031   1.802  15.221  0.5877  1.0638 -0.4066
13747TIP3    H262733   2.981   1.934  15.165  0.0735  0.3676 -1.6299
13748TIP3   OH262734   2.984   2.632  11.117 -0.4633  0.2133  0.2445
13748TIP3    H162735   2.896   2.597  11.126 -0.3810 -0.1627 -0.3307
13748TIP3    H262736   3.015   2.597  11.033 -0.1652  1.2056 -0.0684
13749TIP3   OH262737   6.125   4.708   2.093  0.9014  0.5461  0.1090
13749TIP3    H162738   6.199   4.762   2.119  0.1734  1.3190  0.6391
13749TIP3    H262739   6.052   4.738   2.148  0.2623 -0.3922 -0.1827
13750TIP3   OH262740   0.890   3.805  12.909 -0.1492 -0.1185 -0.1819
13750TIP3    H162741   0.946   3.842  12.978 -0.4649  0.7048 -0.3632
13750TIP3    H262742   0.847   3.731  12.952  1.5166 -1.1673 -0.2052
13751TIP3   OH262743   3.165   5.572   2.756 -0.1971 -0.3254 -0.5310
13751TIP3    H162744   3.116   5.598   2.834 -0.8377  0.2264 -1.1000
13751TIP3    H262745   3.124   5.490   2.727  0.9941 -1.3380  0.5311
13752TIP3   OH262746   4.462   0.132  11.161  0.1550  0.2293 -0.1575
13752TIP3    H162747   4.515   0.208  11.185  0.9815 -0.1087 -0.8415
13752TIP3    H262748   4.502   0.059  11.208  0.9519 -0.2019 -1.4364
13753TIP3   OH262749   3.580   5.198   2.284 -0.5249 -0.1056 -0.1282
13753TIP3    H162750   3.578   5.174   2.191 -0.5180  0.1773 -0.2032
13753TIP3    H262751   3.488   5.209   2.308 -0.4804  1.0483 -0.4302
13754TIP3   OH262752   1.500   3.393  16.416  0.2596 -0.2095 -0.3248
13754TIP3    H162753   1.410   3.366  16.398  0.8194 -2.0881 -0.5279
13754TIP3    H262754   1.527   3.439  16.336 -0.7105  0.9867  0.0073
13755TIP3   OH262755   2.473   0.545   2.521 -0.2263 -1.0058  0.0136
13755TIP3    H162756   2.385   0.562   2.555 -0.2322 -3.9355  1.8121
13755TIP3    H262757   2.526   0.530   2.600  1.4762 -1.0704 -1.0957
13756TIP3   OH262758   5.936   2.823   1.006  0.7701 -0.2103 -0.5215
13756TIP3    H162759   5.978   2.755   1.059  0.1129 -0.4860 -0.3380
13756TIP3    H262760   5.997   2.896   1.008 -0.3208  0.7881  2.8359
13757TIP3   OH262761   1.587   1.235  15.504 -0.4120 -0.3702  0.0720
13757TIP3    H162762   1.551   1.218  15.591 -0.3273  1.0919  0.4172
13757TIP3    H262763   1.511   1.236  15.446 -0.6108 -0.1224  0.3342
13758TIP3   OH262764   0.606   1.780  14.849  0.3239 -0.4894 -0.6546
13758TIP3    H162765   0.689   1.819  14.878 -0.6055  1.8641 -0.8819
13758TIP3    H262766   0.599   1.806  14.757 -0.3336 -1.2748 -0.8286
13759TIP3   OH262767   5.998   4.230   5.383  0.7933 -0.4461  0.2516
13759TIP3    H162768   5.967   4.238   5.474  0.0380  0.0198 -0.0315
13759TIP3    H262769   5.931   4.177   5.340  1.3299 -0.9611  0.0440
13760TIP3   OH262770   3.601   0.384   1.852  0.3589 -0.3920  0.2308
13760TIP3    H162771   3.653   0.446   1.904  0.6140 -0.4989  0.1057
13760TIP3    H262772   3.582   0.312   1.911 -0.9486  0.3410  0.7358
13761TIP3   OH262773   3.244   4.082  11.340 -0.0366  0.1849 -0.2242
13761TIP3    H162774   3.255   4.177  11.342  0.6758  0.0983  0.9550
13761TIP3    H262775   3.306   4.052  11.274  1.5534  0.3521  1.1438
13762TIP3   OH262776   1.463   6.635   3.654  0.5627 -0.5211  0.2011
13762TIP3    H162777   1.484   6.723   3.685 -1.9567  0.1312  0.2718
13762TIP3    H262778   1.470   6.580   3.732  0.5899 -0.0794  0.5136
13763TIP3   OH262779   3.462   3.906   4.581  0.1076 -0.1575 -0.6251
13763TIP3    H162780   3.442   3.818   4.614 -0.0748 -0.1278 -0.6527
13763TIP3    H262781   3.391   3.925   4.520 -0.0823  0.1760 -0.3026
13764TIP3   OH262782   1.601   4.919  16.061  0.3299  0.3826 -0.2915
13764TIP3    H162783   1.671   4.902  16.124 -0.3600 -2.0097 -0.0948
13764TIP3    H262784   1.596   5.015  16.057  1.0471  0.6458  2.5793
13765TIP3   OH262785   3.611   4.054  15.821 -0.4613  0.6417  0.2141
13765TIP3    H162786   3.591   3.978  15.877 -2.5129  0.9842  0.0332
13765TIP3    H262787   3.543   4.118  15.844  1.0259  2.3041  0.1070
13766TIP3   OH262788   3.001   6.406  16.150  0.7532 -0.0672 -0.2564
13766TIP3    H162789   2.916   6.375  16.120  0.3621 -2.0561  2.5106
13766TIP3    H262790   2.982   6.451  16.233  2.2626  0.5609 -0.2276
13767TIP3   OH262791   5.950   4.041  15.135 -0.0130  0.0826  0.2023
13767TIP3    H162792   5.973   4.065  15.225 -0.7867 -0.5784  0.5980
13767TIP3    H262793   6.009   4.091  15.080  0.9415 -0.0224  1.1057
13768TIP3   OH262794   3.707   0.849  12.157 -0.3207  0.4552  0.3918
13768TIP3    H162795   3.775   0.797  12.199 -0.0093  2.8278  3.1732
13768TIP3    H262796   3.734   0.940  12.171 -2.6406  1.4566 -0.9777
13769TIP3   OH262797   1.426   1.885  13.875 -0.0016 -0.0508  0.0860
13769TIP3    H162798   1.364   1.836  13.930 -0.6295 -0.1858 -0.7297
13769TIP3    H262799   1.386   1.972  13.865 -0.5967 -0.4695 -1.3196
13770TIP3   OH262800   1.779   0.453   5.132 -0.5362  0.0422  0.2044
13770TIP3    H162801   1.684   0.454   5.121 -0.4607 -0.0780 -0.5550
13770TIP3    H262802   1.794   0.404   5.213 -1.1461  0.7068  0.7290
13771TIP3   OH262803   1.372   1.468   2.193  0.0894 -0.1125  0.0162
13771TIP3    H162804   1.417   1.433   2.270 -0.5520 -1.1007 -0.0304
13771TIP3    H262805   1.282   1.482   2.222  0.3537  1.6939  0.0693
13772TIP3   OH262806   0.722   1.264  14.132 -0.1236  0.3394  0.0703
13772TIP3    H162807   0.700   1.267  14.039 -1.0760 -1.2053  0.2189
13772TIP3    H262808   0.660   1.324  14.174 -1.4662 -0.9719  0.0074
13773TIP3   OH262809   6.574   4.117  16.071  0.5768 -0.3883 -0.1842
13773TIP3    H162810   6.550   4.084  16.158 -0.5322  1.3943  0.2411
13773TIP3    H262811   6.602   4.207  16.086 -1.9257  0.8072 -1.8684
13774TIP3   OH262812   5.152   0.509   3.492  0.4934 -0.4838  0.0314
13774TIP3    H162813   5.088   0.579   3.485  0.2764 -0.8337 -2.4290
13774TIP3    H262814   5.117   0.439   3.436  0.5168 -2.7657  2.6485
13775TIP3   OH262815   1.666   5.286  14.318 -0.2359 -0.5563  0.1633
13775TIP3    H162816   1.653   5.237  14.399 -0.2367 -0.3473  0.2900
13775TIP3    H262817   1.743   5.246  14.278 -1.2529 -1.8324 -0.6069
13776TIP3   OH262818   6.544   0.057   5.284  0.1485 -0.7588 -0.8444
13776TIP3    H162819   6.532   0.149   5.259  1.1777 -0.0500  1.0358
13776TIP3    H262820   6.628   0.032   5.247  1.2097 -0.0141  0.9423
13777TIP3   OH262821   6.450   4.185  10.999  0.1322  0.4696  0.2212
13777TIP3    H162822   6.540   4.155  11.014  0.8822  2.7958  0.7633
13777TIP3    H262823   6.447   4.203  10.905  0.4253  0.9390  0.2983
13778TIP3   OH262824   3.986   6.031  15.132  0.3448  0.1212 -0.7288
13778TIP3    H162825   3.895   6.045  15.108 -0.0180 -0.0441  0.4932
13778TIP3    H262826   4.015   6.115  15.169  0.6461  0.1219 -0.9552
13779TIP3   OH262827   3.557   0.160   2.038  0.9592 -0.0506 -0.6211
13779TIP3    H162828   3.470   0.119   2.043  1.6873 -2.1785 -3.2671
13779TIP3    H262829   3.612   0.106   2.095  0.6434  1.2224  0.9559
13780TIP3   OH262830   5.839   2.926  15.132 -0.3728 -0.2051 -0.1848
13780TIP3    H162831   5.914   2.929  15.073  0.2658 -0.8724  0.5679
13780TIP3    H262832   5.852   3.000  15.192 -1.4191  0.9367 -1.3138
13781TIP3   OH262833   2.736   2.029  17.078 -0.1882 -0.2542  0.4645
13781TIP3    H162834   2.829   2.040  17.063 -0.0786 -1.0238  0.5206
13781TIP3    H262835   2.694   2.076  17.006  0.2798 -1.4860 -0.6360
13782TIP3   OH262836   3.459   5.565  16.125  0.3146  0.0362  0.3375
13782TIP3    H162837   3.522   5.556  16.054  0.3690 -1.0019  0.5036
13782TIP3    H262838   3.505   5.533  16.203 -0.2181 -0.2112  0.5652
13783TIP3   OH262839   2.980   5.599  11.177 -0.3100  0.2392  0.0058
13783TIP3    H162840   2.924   5.569  11.106  1.0458 -1.7459 -0.3188
13783TIP3    H262841   3.066   5.611  11.137 -0.2996  2.5951  0.6140
13784TIP3   OH262842   4.140   2.813   4.158  0.0257 -0.6757 -0.3489
13784TIP3    H162843   4.064   2.843   4.108 -0.5577 -1.0795  0.2770
13784TIP3    H262844   4.215   2.858   4.118 -0.2539 -1.8044 -2.2969
13785TIP3   OH262845   3.621   3.369   3.894 -0.4682  0.0924  0.2905
13785TIP3    H162846   3.670   3.432   3.946  0.0731 -0.3298  0.3036
13785TIP3    H262847   3.643   3.284   3.933  0.1351 -0.2486 -0.7745
13786TIP3   OH262848   1.714   6.553   3.506 -0.5428 -0.4125 -0.0588
13786TIP3    H162849   1.667   6.564   3.424  0.2937 -0.7203 -0.6011
13786TIP3    H262850   1.653   6.506   3.563 -1.2117 -0.0018 -0.4250
13787TIP3   OH262851   5.001   5.981  17.094 -0.6339 -0.4581  0.1556
13787TIP3    H162852   4.984   5.902  17.147 -0.0607 -0.5524  0.2059
13787TIP3    H262853   4.923   5.990  17.039 -1.3869 -0.1846  1.2258
13788TIP3   OH262854   2.188   0.313   2.522  0.0245  0.4843 -0.3445
13788TIP3    H162855   2.102   0.333   2.559 -1.2527 -1.6892 -1.9141
13788TIP3    H262856   2.176   0.321   2.427  0.9636 -1.7407 -0.7052
13789TIP3   OH262857   6.561   2.969  16.564 -0.2226 -0.2598  0.5788
13789TIP3    H162858   6.563   2.875  16.547  0.3083 -0.5036  1.8727
13789TIP3    H262859   6.595   2.978  16.653 -1.3326  1.0695  0.8947
13790TIP3   OH262860   6.331   5.285   0.132  0.3203 -0.1824 -0.7698
13790TIP3    H162861   6.306   5.231   0.206  1.6779  0.8981  0.5465
13790TIP3    H262862   6.310   5.375   0.159  1.1761  0.2703 -1.5170
13791TIP3   OH262863   5.634   0.541   3.855  0.7408  0.9511  0.1225
13791TIP3    H162864   5.558   0.509   3.805  2.0376  1.0727 -2.0524
13791TIP3    H262865   5.624   0.636   3.854 -0.2322  0.8952  1.8215
13792TIP3   OH262866   1.994   4.995  16.918  0.4697 -0.1743  0.2134
13792TIP3    H162867   1.994   5.020  16.825  1.0566 -0.6154  0.0873
13792TIP3    H262868   1.940   5.061  16.961 -1.0770 -0.8349 -0.6668
13793TIP3   OH262869   1.717   0.618   6.623 -0.1260 -0.3250  0.3889
13793TIP3    H162870   1.692   0.559   6.553  1.2592 -0.0630 -0.3620
13793TIP3    H262871   1.778   0.680   6.582 -1.6583  1.7734  1.0907
13794TIP3   OH262872   4.828   1.109  12.577  0.4345 -0.0696 -0.1281
13794TIP3    H162873   4.888   1.037  12.600  0.4129  0.6256  2.2935
13794TIP3    H262874   4.878   1.188  12.597 -0.5868  0.5478  0.0021
13795TIP3   OH262875   6.392   3.958  16.665  0.4925  0.2597 -0.0065
13795TIP3    H162876   6.382   4.024  16.734 -0.5751 -0.6873  0.7523
13795TIP3    H262877   6.341   3.992  16.592 -0.8756 -0.1643  0.7222
13796TIP3   OH262878   0.341   3.443   2.126  0.1659 -0.4012  0.4616
13796TIP3    H162879   0.430   3.427   2.095  0.7821  1.1109  1.3876
13796TIP3    H262880   0.322   3.533   2.101 -1.5726 -1.0308 -0.7500
13797TIP3   OH262881   2.477   3.096  14.599 -0.0076 -0.0821 -0.1022
13797TIP3    H162882   2.465   3.079  14.505 -0.4530  1.4760 -0.3590
13797TIP3    H262883   2.414   3.165  14.619  0.4323 -0.0364  1.2431
13798TIP3   OH262884   3.583   6.088  11.210 -0.0355 -0.0998 -0.2848
13798TIP3    H162885   3.632   6.162  11.175  0.7849 -1.2262 -1.6035
13798TIP3    H262886   3.574   6.107  11.303  0.9267  1.2212 -0.4354
13799TIP3   OH262887   4.451   6.588   1.746  0.0338 -0.4870 -0.0702
13799TIP3    H162888   4.508   6.651   1.701  1.3183 -1.1509  0.5542
13799TIP3    H262889   4.497   6.504   1.737 -2.4080 -1.7408 -2.3056
13800TIP3   OH262890   5.082   1.696   0.179 -0.8213  0.1136 -0.1770
13800TIP3    H162891   5.042   1.611   0.161 -0.0855 -0.0442 -1.1285
13800TIP3    H262892   5.014   1.759   0.155 -0.8348 -0.1749 -0.9236
13801TIP3   OH262893   4.520   4.966   5.760 -0.1380  0.2469 -0.4772
13801TIP3    H162894   4.424   4.960   5.766 -0.0120 -1.6567  0.2484
13801TIP3    H262895   4.537   4.968   5.666 -0.8615 -0.3966 -0.6387
13802TIP3   OH262896   1.688   6.556   0.555  0.7279  0.3002 -0.5382
13802TIP3    H162897   1.725   6.628   0.606  1.2496  0.8844 -1.6915
13802TIP3    H262898   1.751   6.542   0.484 -0.4578  0.2160 -1.6026
13803TIP3   OH262899   2.257   1.637   3.592  0.6062  0.1255  0.0759
13803TIP3    H162900   2.320   1.567   3.572  0.4515  0.2130 -0.7798
13803TIP3    H262901   2.179   1.591   3.622  0.7387 -0.0359  0.1752
13804TIP3   OH262902   0.047   0.446   1.115 -0.9880 -0.2526 -0.1623
13804TIP3    H162903   0.069   0.519   1.173  1.6051 -0.1031 -1.2212
13804TIP3    H262904   0.131   0.408   1.091 -1.5753  0.9192 -5.3400
13805TIP3   OH262905   0.944   1.461  14.242 -0.1492  0.4443  0.4662
13805TIP3    H162906   0.949   1.381  14.295 -1.6186 -0.6452 -0.9496
13805TIP3    H262907   0.853   1.490  14.250 -0.3375  0.4078 -1.1994
13806TIP3   OH262908   2.932   1.345  11.029 -0.2848  0.4611  0.4974
13806TIP3    H162909   2.903   1.309  10.945 -0.0073 -0.4482  0.7805
13806TIP3    H262910   3.007   1.292  11.054 -1.4026 -0.4469  2.1448
13807TIP3   OH262911   2.851   3.813  13.330 -0.2998 -0.1729  0.3114
13807TIP3    H162912   2.789   3.882  13.306  1.3723  1.2086 -0.2664
13807TIP3    H262913   2.921   3.821  13.265 -0.0777 -2.4902  0.1890
13808TIP3   OH262914   0.092   3.278   2.877 -0.4758  0.1024  0.6433
13808TIP3    H162915   0.099   3.249   2.786 -0.7688 -0.2700  0.7400
13808TIP3    H262916  -0.001   3.297   2.889 -0.3896  0.4464  0.7761
13809TIP3   OH262917   0.560   1.040   3.765  0.0037  0.7121  0.3057
13809TIP3    H162918   0.564   1.077   3.853  0.9887  0.2296  0.4826
13809TIP3    H262919   0.467   1.027   3.748 -0.1264 -1.3333  2.1889
13810TIP3   OH262920   0.815   3.159  12.347 -0.4407  0.4359  0.2817
13810TIP3    H162921   0.854   3.102  12.414 -1.1918 -1.5437 -0.8703
13810TIP3    H262922   0.799   3.242  12.392  2.2055  0.3484  1.6145
13811TIP3   OH262923   1.081   3.163  14.413  0.1122  0.1248  0.3778
13811TIP3    H162924   1.158   3.135  14.462 -1.4045 -0.3147  2.6392
13811TIP3    H262925   1.053   3.086  14.364 -1.2387 -1.0741  2.8358
13812TIP3   OH262926   3.546   6.470   3.275 -0.4364 -0.2100 -0.0578
13812TIP3    H162927   3.594   6.410   3.332  1.9982  0.2661 -1.4668
13812TIP3    H262928   3.578   6.451   3.187 -2.7368  0.3257 -1.0874
13813TIP3   OH262929   0.793   1.123   2.750 -0.7933 -0.5633 -0.1007
13813TIP3    H162930   0.735   1.123   2.827  0.4183 -3.1280  0.9436
13813TIP3    H262931   0.811   1.030   2.735  2.8951  0.0883 -0.4319
13814TIP3   OH262932   2.429   5.515  13.945 -0.3714  1.0391 -0.4056
13814TIP3    H162933   2.509   5.465  13.957 -0.4472  0.6534 -1.3697
13814TIP3    H262934   2.424   5.530  13.850 -1.4573  1.0085 -0.3711
13815TIP3   OH262935   4.712   5.571  15.370  0.1372  0.2983 -0.2967
13815TIP3    H162936   4.636   5.580  15.427  1.2366 -0.2792  1.3341
13815TIP3    H262937   4.702   5.640  15.305 -0.9261  1.2937  0.8802
13816TIP3   OH262938   5.049   1.406  16.711 -0.3340 -0.3088  0.5258
13816TIP3    H162939   5.034   1.485  16.659 -1.5227 -0.6499  0.3274
13816TIP3    H262940   5.137   1.418  16.747 -1.4638  2.4555  2.7927
13817TIP3   OH262941   6.809   2.178  13.692  0.2387 -0.6406  0.2213
13817TIP3    H162942   6.855   2.160  13.775  1.6451  0.7733 -0.1947
13817TIP3    H262943   6.861   2.247  13.650 -1.2989 -0.2310 -1.1437
13818TIP3   OH262944   4.359   2.415  11.475 -0.0945 -0.5709  0.0253
13818TIP3    H162945   4.334   2.341  11.419 -0.9104 -0.9472  0.8638
13818TIP3    H262946   4.408   2.375  11.547 -1.1337 -0.3875  0.8498
13819TIP3   OH262947   4.252   4.343   6.409  0.4788 -0.1339 -0.3065
13819TIP3    H162948   4.242   4.304   6.322  1.2932  0.7283 -0.8030
13819TIP3    H262949   4.343   4.324   6.434 -0.1525 -1.6644  1.0228
13820TIP3   OH262950   2.736   2.939  14.047 -0.0809 -0.2257 -0.5484
13820TIP3    H162951   2.802   2.899  13.990  0.1528 -0.2917 -0.2325
13820TIP3    H262952   2.786   2.999  14.102 -0.2313 -0.5474 -0.0538
13821TIP3   OH262953   1.760   1.744   2.755 -0.7689 -0.2899  0.3845
13821TIP3    H162954   1.835   1.791   2.791 -0.2993 -0.2542 -0.5976
13821TIP3    H262955   1.693   1.751   2.822 -0.5735  1.4267  0.4552
13822TIP3   OH262956   6.020   4.826   3.728 -0.5603 -0.2009 -0.8976
13822TIP3    H162957   6.013   4.788   3.641 -2.3613  0.3534 -1.0370
13822TIP3    H262958   6.066   4.909   3.715  0.0962 -0.5988 -1.1456
13823TIP3   OH262959   5.490   4.826   0.157  0.1224 -0.1131 -0.4513
13823TIP3    H162960   5.583   4.805   0.173  0.3007  0.0166 -1.2664
13823TIP3    H262961   5.451   4.741   0.136  0.2170 -0.0659 -0.8300
13824TIP3   OH262962   6.105   1.175   0.759 -0.8129 -0.7608  0.1165
13824TIP3    H162963   6.095   1.270   0.764 -0.4713 -0.7692  1.2406
13824TIP3    H262964   6.080   1.153   0.669  0.7605  0.6004 -0.7264
13825TIP3   OH262965   1.995   0.914   1.184 -0.3311 -0.0038 -0.4130
13825TIP3    H162966   2.039   0.948   1.106 -0.5491 -0.4464 -0.7317
13825TIP3    H262967   2.061   0.858   1.225 -0.0891  0.5202 -0.0724
13826TIP3   OH262968   1.005   3.729   3.150  0.0153 -0.2735  0.1493
13826TIP3    H162969   1.010   3.668   3.223  0.0118  0.6097  0.9099
13826TIP3    H262970   0.934   3.789   3.174  0.9016  0.8416  0.0650
13827TIP3   OH262971   3.629   6.182   3.833  0.1131  0.5869 -0.1082
13827TIP3    H162972   3.681   6.246   3.784 -0.5398  1.0252 -0.2341
13827TIP3    H262973   3.580   6.234   3.896 -1.0730  0.3130 -0.7789
13828TIP3   OH262974   5.832   0.997  17.010  0.5106 -0.8009 -0.2000
13828TIP3    H162975   5.819   0.984  16.916  1.9010 -1.7524 -0.2806
13828TIP3    H262976   5.855   0.911  17.043  0.5868 -0.3578  0.9298
13829TIP3   OH262977   0.265   5.042  15.371  0.2504  0.2199 -0.4696
13829TIP3    H162978   0.305   4.988  15.303  0.1933 -0.2949 -0.1047
13829TIP3    H262979   0.226   5.115  15.324 -0.3346 -0.4523 -1.0551
13830TIP3   OH262980   0.775   1.733  14.087 -0.6474  0.0585  0.7705
13830TIP3    H162981   0.766   1.783  14.169  1.1667 -0.9167  1.6108
13830TIP3    H262982   0.760   1.642  14.112  0.6626 -0.3400  0.1946
13831TIP3   OH262983   2.535   4.785  16.779  0.4538  0.2847  0.1071
13831TIP3    H162984   2.494   4.869  16.799  0.0144  0.1968 -0.3989
13831TIP3    H262985   2.487   4.752  16.703  0.3821 -0.5947  0.5181
13832TIP3   OH262986   2.187   5.199  11.853  0.1221  0.2057  0.2672
13832TIP3    H162987   2.266   5.175  11.804 -1.8371  0.8541 -3.6631
13832TIP3    H262988   2.122   5.134  11.825 -1.0102  0.1765  2.7355
13833TIP3   OH262989   6.019   4.210  11.652 -0.1819 -0.0519  0.7715
13833TIP3    H162990   5.956   4.139  11.662 -2.0435  1.5041  0.7809
13833TIP3    H262991   6.103   4.172  11.678 -1.2974 -1.9100  1.8819
13834TIP3   OH262992   5.031   1.097   1.764  0.1430 -0.1657  0.0820
13834TIP3    H162993   4.985   1.013   1.759 -1.4831  0.7604 -1.3855
13834TIP3    H262994   5.076   1.104   1.680 -1.4066  1.3024 -0.6816
13835TIP3   OH262995   0.878   2.473   2.879 -0.6606 -0.1551 -1.0484
13835TIP3    H162996   0.823   2.535   2.926  1.3315  2.8563 -2.4015
13835TIP3    H262997   0.860   2.491   2.786 -0.0593 -1.6825 -1.4934
13836TIP3   OH262998   3.400   4.308   3.804  0.8320  0.0010  0.1284
13836TIP3    H162999   3.443   4.229   3.838 -0.5279 -0.1615  1.6282
13836TIP3    H263000   3.318   4.276   3.767  0.9254  0.5573 -0.5638
13837TIP3   OH263001   0.047   3.078   3.625 -0.2609 -0.4001  0.1400
13837TIP3    H163002  -0.023   3.040   3.572  0.3119  0.6280 -1.4242
13837TIP3    H263003   0.070   3.159   3.580  0.6074  0.2842  1.7120
13838TIP3   OH263004   0.476   6.588   1.167 -0.3654  0.7234 -0.3341
13838TIP3    H163005   0.401   6.560   1.219  0.9507  0.2152  1.4034
13838TIP3    H263006   0.544   6.524   1.188  1.4210  2.7558  0.4096
13839TIP3   OH263007   0.877   4.306  14.370  0.2917  0.1859  0.1619
13839TIP3    H163008   0.784   4.313  14.349 -0.2212  1.4613  2.5128
13839TIP3    H263009   0.916   4.385  14.333  0.4095 -0.2238 -0.6030
13840TIP3   OH263010   0.816   0.378   5.584 -0.3887 -0.3399  0.5620
13840TIP3    H163011   0.776   0.421   5.659  0.9648  0.6236  0.7770
13840TIP3    H263012   0.745   0.368   5.521 -1.8989 -2.4788  2.4637
13841TIP3   OH263013   0.551   4.336  15.933 -0.2860 -0.2989 -0.6196
13841TIP3    H163014   0.548   4.296  16.019  0.2472 -0.9133 -0.8808
13841TIP3    H263015   0.473   4.303  15.888 -1.5737  1.4251  0.2040
13842TIP3   OH263016   1.508   3.555   0.629 -0.0829 -0.6314 -0.0190
13842TIP3    H163017   1.565   3.479   0.619  1.6078  0.6129 -0.1515
13842TIP3    H263018   1.525   3.608   0.552  1.7779  1.7650  1.8686
13843TIP3   OH263019   0.165   4.765   3.868  0.6830  0.4676 -0.7693
13843TIP3    H163020   0.200   4.679   3.843 -0.1409  0.5032 -2.1794
13843TIP3    H263021   0.096   4.745   3.932 -2.1691 -0.3818 -3.8251
13844TIP3   OH263022   3.027   5.185  11.432 -0.0957 -0.6067 -0.1634
13844TIP3    H163023   3.017   5.154  11.522  2.4213 -2.7656 -0.5141
13844TIP3    H263024   2.974   5.127  11.380 -0.0574 -0.5593 -0.2558
13845TIP3   OH263025   4.173   3.079   3.209 -0.7154  0.2190  0.3703
13845TIP3    H163026   4.216   3.164   3.202 -1.7119  0.5890 -2.4217
13845TIP3    H263027   4.099   3.095   3.269  0.9902  0.3791  2.5577
13846TIP3   OH263028   1.536   2.405   4.542 -0.7775 -0.1286  0.1099
13846TIP3    H163029   1.620   2.451   4.545 -1.1793  0.6340 -0.2591
13846TIP3    H263030   1.507   2.403   4.633 -0.6160  0.0758  0.1683
13847TIP3   OH263031   5.783   0.777  13.022  0.4180  0.0560 -0.0281
13847TIP3    H163032   5.863   0.811  13.062 -0.3333 -0.4026  1.9876
13847TIP3    H263033   5.716   0.841  13.046  0.1022  0.3192 -1.5051
13848TIP3   OH263034   6.505   6.500   3.502 -0.0841  0.2403 -0.3453
13848TIP3    H163035   6.585   6.485   3.453  1.2450 -0.1284  1.8299
13848TIP3    H263036   6.455   6.419   3.491  1.8816 -1.3899  1.8766
13849TIP3   OH263037   5.863   3.135  12.573 -0.4373  0.5039  0.0145
13849TIP3    H163038   5.883   3.076  12.501 -0.1702  1.1152 -0.4276
13849TIP3    H263039   5.942   3.138  12.626 -0.3716  0.6278 -0.0883
13850TIP3   OH263040   1.858   5.270  15.504  0.5857 -0.8316 -0.2396
13850TIP3    H163041   1.877   5.352  15.549  1.3542 -1.6031  0.8683
13850TIP3    H263042   1.906   5.203  15.553 -0.1501 -1.9737 -1.0249
13851TIP3   OH263043   0.363   2.691  13.828  0.0296  0.8074  0.6244
13851TIP3    H163044   0.435   2.717  13.769  0.0802  1.4978  0.9747
13851TIP3    H263045   0.288   2.681  13.770  0.8862 -2.2238 -0.1115
13852TIP3   OH263046   4.439   4.135  16.112 -0.1900 -0.3123  0.6208
13852TIP3    H163047   4.395   4.208  16.068 -1.0775 -1.3175 -0.2215
13852TIP3    H263048   4.378   4.062  16.104  0.2623 -0.9271  2.2756
13853TIP3   OH263049   0.435   0.134  16.409 -0.3028  0.0704 -0.4871
13853TIP3    H163050   0.471   0.076  16.477  0.6992 -1.4017 -2.1994
13853TIP3    H263051   0.354   0.168  16.448  0.6086 -0.0932  1.7245
13854TIP3   OH263052   0.056   5.410   0.114 -0.2432 -0.0268 -0.5223
13854TIP3    H163053  -0.025   5.411   0.165 -0.4345  1.7680 -0.8029
13854TIP3    H263054   0.031   5.367   0.031 -0.7630 -0.0020 -0.3853
13855TIP3   OH263055   5.632   2.218  14.301 -0.1469  0.3214  0.7266
13855TIP3    H163056   5.638   2.201  14.207  1.8098 -0.5663  0.9542
13855TIP3    H263057   5.540   2.205  14.322 -0.4330 -0.4963 -0.8821
13856TIP3   OH263058   4.983   3.418   2.097  0.6009 -0.6340  0.1245
13856TIP3    H163059   5.069   3.378   2.091  0.5452 -0.5929 -1.1247
13856TIP3    H263060   4.964   3.449   2.009 -1.1142 -1.5385  0.1210
13857TIP3   OH263061   3.290   2.003   3.749  0.3746  0.6199 -0.1762
13857TIP3    H163062   3.324   2.027   3.835 -1.7659  1.9824  0.3745
13857TIP3    H263063   3.367   1.978   3.699  1.7651  0.4497  1.9129
13858TIP3   OH263064   3.682   1.227   4.082  0.5405  0.1291 -0.4085
13858TIP3    H163065   3.685   1.306   4.029 -1.2311  1.2402  1.0443
13858TIP3    H263066   3.772   1.213   4.110  0.9931  1.2344 -1.2505
13859TIP3   OH263067   5.837   4.303  15.025  0.3422 -0.0926 -0.3499
13859TIP3    H163068   5.925   4.272  15.002  0.0906 -0.6761 -0.5399
13859TIP3    H263069   5.802   4.338  14.943  0.3082 -0.0691 -0.3256
13860TIP3   OH263070   1.118   1.275  12.544 -0.0055 -0.0366 -0.1551
13860TIP3    H163071   1.029   1.253  12.571  0.6826  0.4097  2.8685
13860TIP3    H263072   1.131   1.364  12.578  0.8537  0.8254 -2.5824
13861TIP3   OH263073   0.546   1.000   2.018  0.0653  0.0771  0.0119
13861TIP3    H163074   0.552   1.062   2.091 -0.0851 -1.3556  1.2935
13861TIP3    H263075   0.569   0.916   2.057 -1.1070 -0.9155 -1.3504
13862TIP3   OH263076   3.706   0.902  16.176 -0.6283 -0.1123  0.5398
13862TIP3    H163077   3.665   0.962  16.239  1.0605  0.0042  1.5840
13862TIP3    H263078   3.698   0.948  16.092  0.5099  1.5820  1.2885
13863TIP3   OH263079   6.680   3.990   5.225 -0.0991  0.3796  0.3130
13863TIP3    H163080   6.606   3.948   5.182  0.4727 -0.5919  0.2623
13863TIP3    H263081   6.641   4.038   5.298 -0.9855  1.4172 -0.8045
13864TIP3   OH263082   1.733   0.396   2.510  0.2246 -0.6297  0.6280
13864TIP3    H163083   1.666   0.448   2.466 -0.7879 -1.4478  1.1498
13864TIP3    H263084   1.759   0.330   2.446 -1.9421 -2.4273  1.4644
13865TIP3   OH263085   6.626   1.822  16.751 -0.4788  0.3646 -0.2765
13865TIP3    H163086   6.668   1.888  16.808 -2.4313 -0.2591  2.0529
13865TIP3    H263087   6.685   1.747  16.755 -1.0448 -0.0452  1.9004
13866TIP3   OH263088   4.818   6.570   0.220 -0.0096 -0.3492 -0.2507
13866TIP3    H163089   4.783   6.596   0.305  0.0686 -0.2142 -0.2597
13866TIP3    H263090   4.812   6.475   0.220  0.6289 -0.3954  0.1872
13867TIP3   OH263091   5.383   6.298  10.333  0.2217 -0.1196  0.3746
13867TIP3    H163092   5.395   6.391  10.314 -0.1189 -0.2648 -0.6131
13867TIP3    H263093   5.469   6.269  10.364  0.0073  0.7876  1.9519
13868TIP3   OH263094   4.494   2.453   0.993 -0.2971 -0.2325  0.3379
13868TIP3    H163095   4.550   2.469   0.917 -1.5663  0.4272 -0.5005
13868TIP3    H263096   4.405   2.452   0.957 -1.1238  2.1930  2.0734
13869TIP3   OH263097   6.570   0.021  16.822 -0.0381 -0.4193 -0.4482
13869TIP3    H163098   6.571  -0.021  16.736 -0.9366  0.4683 -0.9158
13869TIP3    H263099   6.662   0.023  16.849  0.4963  0.9222 -2.2085
13870TIP3   OH263100   2.785   2.240  12.718 -0.3283 -0.1043 -0.0871
13870TIP3    H163101   2.814   2.189  12.642  2.0677  0.6565  0.2201
13870TIP3    H263102   2.858   2.299  12.736 -1.6161  1.0534  1.6701
13871TIP3   OH263103   2.632   0.022  13.485  0.0717  0.0071 -0.0274
13871TIP3    H163104   2.639   0.020  13.581 -0.4975  0.4688  0.0347
13871TIP3    H263105   2.616   0.115  13.465 -2.2073 -0.4002 -0.3720
13872TIP3   OH263106   4.992   6.707  11.013 -0.1790 -0.3770 -0.1626
13872TIP3    H163107   5.079   6.740  10.994 -0.8035  1.3544 -0.1787
13872TIP3    H263108   4.953   6.691  10.927 -0.6297  0.9973 -0.2428
13873TIP3   OH263109   1.222   0.100   5.362 -0.1475 -0.3853  0.0558
13873TIP3    H163110   1.288   0.148   5.411 -1.8073  0.4165  1.6198
13873TIP3    H263111   1.248   0.008   5.368  1.7397  0.0498 -0.8835
13874TIP3   OH263112   0.147   1.349   5.483  0.0822  0.3480  0.5251
13874TIP3    H163113   0.237   1.330   5.510 -0.4263 -2.3338  0.5839
13874TIP3    H263114   0.112   1.404   5.554  1.6231  1.4126  0.5156
13875TIP3   OH263115   1.486   6.028  16.784 -0.1216 -0.3645  0.7072
13875TIP3    H163116   1.485   5.992  16.696 -2.7921  0.4931  0.3024
13875TIP3    H263117   1.457   5.956  16.840 -0.4202 -0.3293  0.5984
13876TIP3   OH263118   4.506   3.672  15.792  0.0826 -0.2591  0.8131
13876TIP3    H163119   4.448   3.647  15.721  2.0851 -2.9064 -0.0570
13876TIP3    H263120   4.459   3.649  15.872  0.6113 -4.6972  0.1114
13877TIP3   OH263121   6.141   0.492  16.017  0.0745  0.8473 -0.1554
13877TIP3    H163122   6.137   0.398  16.000  1.3325  1.0702 -1.9440
13877TIP3    H263123   6.144   0.532  15.930  2.4885  2.3673  0.5284
13878TIP3   OH263124   5.027   0.662  12.862 -0.3521 -0.3003 -0.0183
13878TIP3    H163125   4.981   0.612  12.929 -1.4488  0.7584  0.0357
13878TIP3    H263126   5.111   0.616  12.852 -0.7984 -1.3743  0.9537
13879TIP3   OH263127   4.722   0.028  16.401  0.7928 -0.2098 -0.1379
13879TIP3    H163128   4.650   0.026  16.464  1.6086 -1.3074  0.8048
13879TIP3    H263129   4.726   0.119  16.373 -0.6918 -0.0450  0.0911
13880TIP3   OH263130   1.806   3.413   2.544 -0.1922 -0.2943 -0.5873
13880TIP3    H163131   1.712   3.406   2.527 -0.0317 -0.8258 -1.2791
13880TIP3    H263132   1.843   3.448   2.462  0.1814  0.1981 -0.2212
13881TIP3   OH263133   3.088   0.083   1.250 -0.6390  0.4535 -0.0581
13881TIP3    H163134   2.995   0.066   1.236 -0.2220 -3.1497  0.4577
13881TIP3    H263135   3.130   0.045   1.173  0.4409  2.7860 -0.6936
13882TIP3   OH263136   2.572   3.342  11.035 -0.7390  0.1605  0.5513
13882TIP3    H163137   2.559   3.248  11.038  1.3924 -0.1769  0.7824
13882TIP3    H263138   2.660   3.353  10.998 -1.4906  2.1090 -0.8442
13883TIP3   OH263139   6.769   3.691   4.043 -0.1406  0.5860  0.3076
13883TIP3    H163140   6.808   3.618   3.995  0.8255  0.2843  1.4873
13883TIP3    H263141   6.823   3.699   4.122 -0.9587  1.8117  0.7727
13884TIP3   OH263142   3.847   1.193   5.608  0.3589 -0.1504 -0.1980
13884TIP3    H163143   3.779   1.171   5.544  1.5540 -0.6157 -1.3539
13884TIP3    H263144   3.877   1.108   5.642  0.9044  0.0010 -0.2882
13885TIP3   OH263145   3.303   3.031   0.978 -0.4302 -0.1053 -0.1194
13885TIP3    H163146   3.281   3.062   1.066  0.7142  1.0294 -0.2061
13885TIP3    H263147   3.289   2.936   0.982  1.0450 -0.2977  1.7341
13886TIP3   OH263148   4.295   5.060   6.151  0.7223  0.0007 -0.8687
13886TIP3    H163149   4.225   4.996   6.137 -0.1019  1.0975 -1.9770
13886TIP3    H263150   4.262   5.140   6.111  0.4262  2.0436  3.0553
13887TIP3   OH263151   0.843   3.467   1.537 -0.0622  0.3589  0.3212
13887TIP3    H163152   0.837   3.505   1.450  2.3339  0.4879  0.1609
13887TIP3    H263153   0.883   3.535   1.591 -1.0513  0.1067  1.4200
13888TIP3   OH263154   3.786   5.472   3.997  0.1643 -0.6814  0.1129
13888TIP3    H163155   3.723   5.477   3.926  0.9471  2.6477 -0.5031
13888TIP3    H263156   3.780   5.557   4.042  2.2471 -1.2882  1.7476
13889TIP3   OH263157   0.698   5.554  16.476  0.0747 -0.1551  0.0926
13889TIP3    H163158   0.643   5.486  16.438 -1.2829 -0.4906  2.4868
13889TIP3    H263159   0.754   5.509  16.538 -0.8243  0.8446  1.7011
13890TIP3   OH263160   5.966   6.542   5.366 -0.3168 -0.3061  0.0687
13890TIP3    H163161   5.905   6.615   5.361  0.9298  0.8282  0.7869
13890TIP3    H263162   6.006   6.550   5.453  1.3497 -0.5823 -0.6267
13891TIP3   OH263163   3.668   0.368  13.731  0.3329 -0.0905 -0.6183
13891TIP3    H163164   3.746   0.393  13.780 -0.2242 -2.6219  1.8988
13891TIP3    H263165   3.689   0.282  13.694 -0.0618  0.8061 -3.0997
13892TIP3   OH263166   6.735   4.226  10.327 -0.4116 -0.1302 -0.6908
13892TIP3    H163167   6.746   4.316  10.356 -0.3109 -0.5962  0.7821
13892TIP3    H263168   6.824   4.196  10.307 -0.0510 -0.7928  1.6621
13893TIP3   OH263169   6.683   6.268  15.832 -0.3933  0.2381 -0.1252
13893TIP3    H163170   6.655   6.341  15.776 -0.3090  1.8222  1.7475
13893TIP3    H263171   6.601   6.231  15.864 -0.4735 -1.3084 -1.9637
13894TIP3   OH263172   6.158   0.160  11.484  0.3746  0.3127  0.3534
13894TIP3    H163173   6.176   0.254  11.480  0.0824  0.3402 -0.3763
13894TIP3    H263174   6.219   0.121  11.422 -0.2888  0.1381 -0.1957
13895TIP3   OH263175   3.034   4.113  14.110  0.1287  0.5633  0.0668
13895TIP3    H163176   3.006   4.197  14.146 -0.8393 -0.3293  1.5173
13895TIP3    H263177   2.969   4.091  14.044 -0.6826  0.1064  0.9997
13896TIP3   OH263178   5.046   4.605   1.696 -0.5147 -0.0101 -0.2997
13896TIP3    H163179   5.084   4.684   1.657 -0.2240 -0.1690 -0.3364
13896TIP3    H263180   4.973   4.638   1.748  0.1551  0.3895  0.4205
13897TIP3   OH263181   1.348   3.773   3.990 -0.4394  0.3764 -0.8389
13897TIP3    H163182   1.268   3.752   4.039  0.8364 -2.1201  0.3441
13897TIP3    H263183   1.397   3.832   4.047 -0.4192  0.0637 -0.5277
13898TIP3   OH263184   4.154   6.354  10.912  0.5192  0.3310 -0.4938
13898TIP3    H163185   4.093   6.426  10.897  2.4503  2.0844 -0.3615
13898TIP3    H263186   4.160   6.309  10.828  0.3410  1.1945 -0.9768
13899TIP3   OH263187   3.895   0.014   2.915  0.0373 -0.0396 -0.3442
13899TIP3    H163188   3.955   0.031   2.987 -0.9518 -0.2560  0.5474
13899TIP3    H263189   3.919  -0.073   2.884  0.6233  0.1523 -0.4558
13900TIP3   OH263190   3.629   4.074   1.946  0.0564 -0.3743 -0.6436
13900TIP3    H163191   3.582   4.110   2.021 -1.4677 -2.3695 -0.5432
13900TIP3    H263192   3.567   4.081   1.874  0.8962  0.0312 -1.3349
13901TIP3   OH263193   5.464   2.203   5.199  0.7431  0.4995  0.4561
13901TIP3    H163194   5.445   2.288   5.160  2.6481  0.2823 -1.1211
13901TIP3    H263195   5.387   2.149   5.179  0.8473  0.9698 -1.3463
13902TIP3   OH263196   2.294   6.672  16.896  0.2135 -0.1030  0.6261
13902TIP3    H163197   2.302   6.648  16.989 -0.3404  1.3083  1.0637
13902TIP3    H263198   2.210   6.717  16.890  0.0636 -0.5260 -0.6586
13903TIP3   OH263199   5.766   1.183   1.871  0.3593  0.8247 -0.2774
13903TIP3    H163200   5.801   1.270   1.891  0.6584  0.3759  1.2480
13903TIP3    H263201   5.707   1.163   1.944 -0.7835  0.2983 -1.2926
13904TIP3   OH263202   1.093   1.149   2.276  0.3708 -0.1488  0.3529
13904TIP3    H163203   1.026   1.097   2.319  0.9203 -1.8655 -0.7823
13904TIP3    H263204   1.051   1.184   2.198  0.2536  0.4209  0.6632
13905TIP3   OH263205   1.176   0.257   5.088 -0.3359 -0.7951  0.1317
13905TIP3    H163206   1.135   0.328   5.137 -0.0635 -0.3381 -0.2910
13905TIP3    H263207   1.191   0.188   5.153 -1.6189 -0.9176  0.3232
13906TIP3   OH263208   6.265   0.823  11.957  0.0961  0.0542 -0.4104
13906TIP3    H163209   6.318   0.796  11.882  0.1075  1.0458 -0.7804
13906TIP3    H263210   6.182   0.851  11.919  0.0211  0.3612 -0.0322
13907TIP3   OH263211   6.143   0.446   3.726  0.3768 -0.6382  0.4427
13907TIP3    H163212   6.052   0.422   3.742  0.5060 -2.2786 -0.9394
13907TIP3    H263213   6.186   0.438   3.811 -0.4526 -1.4687  0.8056
13908TIP3   OH263214   3.831   5.162   1.398  0.1056 -0.5955 -0.0776
13908TIP3    H163215   3.843   5.081   1.447  1.6052 -0.7890 -0.7207
13908TIP3    H263216   3.754   5.203   1.438  1.7586 -0.2609  3.1269
13909TIP3   OH263217   5.105   5.910  11.331 -0.2762 -0.2505 -0.5849
13909TIP3    H163218   5.029   5.904  11.273  0.2533 -2.0872 -1.1335
13909TIP3    H263219   5.176   5.943  11.276  0.1411 -1.6813 -0.9480
13910TIP3   OH263220   0.228   2.669   5.048  0.3560  0.0343 -0.6499
13910TIP3    H163221   0.302   2.719   5.082 -0.0294 -0.7713  1.5175
13910TIP3    H263222   0.165   2.668   5.119  0.0319 -2.8699 -0.8641
13911TIP3   OH263223   2.763   0.493   4.879  0.5163 -0.1513 -0.3473
13911TIP3    H163224   2.844   0.443   4.868 -0.6190 -1.7072 -2.5672
13911TIP3    H263225   2.721   0.489   4.793 -1.3263  1.7234  0.3668
13912TIP3   OH263226   3.549   2.751   1.440 -0.4991  0.1351  0.4880
13912TIP3    H163227   3.537   2.767   1.346  0.3911  3.0433  0.7517
13912TIP3    H263228   3.487   2.682   1.461 -0.5483 -0.7905 -2.2757
13913TIP3   OH263229   5.097   4.898   4.935  0.4718 -0.2923 -0.0709
13913TIP3    H163230   5.045   4.842   4.992 -0.3804  0.9491  0.4016
13913TIP3    H263231   5.071   4.873   4.847  0.8267 -1.3109  0.1010
13914TIP3   OH263232   5.238   1.855   2.734 -0.8109  0.3604 -0.0802
13914TIP3    H163233   5.310   1.868   2.672  0.7780 -2.4175  1.0108
13914TIP3    H263234   5.166   1.824   2.679  0.1200 -0.6931 -0.7627
13915TIP3   OH263235   2.987   1.603   5.276 -0.1275  0.2130  0.1676
13915TIP3    H163236   3.059   1.596   5.214 -0.2151  0.8188 -0.0089
13915TIP3    H263237   3.027   1.582   5.361  0.5542  1.7157  0.2557
13916TIP3   OH263238   0.734   2.916   2.731 -0.6760  0.1915 -0.5106
13916TIP3    H163239   0.709   2.848   2.668  0.9767  0.3367 -1.3883
13916TIP3    H263240   0.671   2.907   2.802 -1.5489 -1.1218 -1.3940
13917TIP3   OH263241   3.155   0.156  15.121 -0.1909  0.0494  0.1231
13917TIP3    H163242   3.075   0.157  15.069 -0.3958 -0.4354  0.4168
13917TIP3    H263243   3.223   0.190  15.063 -0.1597 -1.6550 -0.8966
13918TIP3   OH263244   5.711   2.407   3.528 -0.6339  0.3252  0.2732
13918TIP3    H163245   5.792   2.395   3.577 -0.9879  0.4436  0.8948
13918TIP3    H263246   5.733   2.381   3.439 -0.0028  0.0388  0.5082
13919TIP3   OH263247   4.439   1.131   4.672 -0.5816 -0.1239 -0.3184
13919TIP3    H163248   4.420   1.218   4.707  0.7943  0.2002 -0.3362
13919TIP3    H263249   4.482   1.147   4.588 -0.6133 -0.8335 -0.4841
13920TIP3   OH263250   5.542   2.222   1.819 -0.0985  0.1455  0.4506
13920TIP3    H163251   5.559   2.253   1.730 -3.1386  0.0806 -0.2631
13920TIP3    H263252   5.517   2.131   1.808 -0.1539  0.0352  1.4371
13921TIP3   OH263253   1.442   4.405  12.691  0.5616 -0.1222 -0.4289
13921TIP3    H163254   1.480   4.466  12.628  0.5954  0.2804 -0.0183
13921TIP3    H263255   1.398   4.460  12.756  2.4950 -0.3999  1.2165
13922TIP3   OH263256   5.072   6.172   2.458  0.0924  0.3653 -0.3660
13922TIP3    H163257   5.134   6.237   2.424  0.1143  0.3966 -0.2633
13922TIP3    H263258   5.059   6.113   2.384  1.1867 -0.3507 -0.0143
13923TIP3   OH263259   0.506   2.590  16.771 -0.0107  0.3697  1.0593
13923TIP3    H163260   0.556   2.533  16.829  0.8809 -0.6734 -0.6496
13923TIP3    H263261   0.504   2.544  16.688 -0.7060  2.0948  0.0598
13924TIP3   OH263262   0.933   6.539  15.491 -0.5253 -0.5364  0.7287
13924TIP3    H163263   0.879   6.599  15.543  0.1791  2.4403 -1.6922
13924TIP3    H263264   1.015   6.533  15.540 -0.5752  0.6150  1.0000
13925TIP3   OH263265   4.214   2.818   3.246 -0.4993  0.4405 -0.4412
13925TIP3    H163266   4.196   2.911   3.236  1.1505  0.9350  0.8986
13925TIP3    H263267   4.292   2.803   3.192 -0.6311 -0.1367 -0.4762
13926TIP3   OH263268   1.533   0.479  13.028  0.3059 -0.1689  0.2977
13926TIP3    H163269   1.446   0.468  13.066  0.3122  0.4714  0.5149
13926TIP3    H263270   1.522   0.549  12.963  1.2580  2.0940  2.4237
13927TIP3   OH263271   2.139   0.309   5.395 -0.2134  0.3797  0.0267
13927TIP3    H163272   2.168   0.332   5.307 -1.4192  2.1353  0.0374
13927TIP3    H263273   2.101   0.222   5.386  1.6115 -0.4071 -0.7030
13928TIP3   OH263274   2.755   0.841   1.222  0.4431  0.4916  0.1371
13928TIP3    H163275   2.661   0.830   1.238  0.5319 -1.0449 -0.2480
13928TIP3    H263276   2.771   0.795   1.139  1.6075  0.2892  0.4545
13929TIP3   OH263277   4.392   0.041   2.221  0.0395 -0.6278 -0.5092
13929TIP3    H163278   4.375   0.013   2.131 -0.4442  0.1282 -0.6660
13929TIP3    H263279   4.483   0.070   2.220 -1.0936  3.6195 -1.9673
13930TIP3   OH263280   2.829   0.745   4.966 -0.4015 -0.4342  0.6527
13930TIP3    H163281   2.924   0.743   4.959 -0.5099  0.5486 -2.7382
13930TIP3    H263282   2.801   0.656   4.943 -0.3566 -1.4453  3.9853
13931TIP3   OH263283   2.920   5.295   1.865 -0.3889 -0.1363  0.3438
13931TIP3    H163284   2.890   5.244   1.940  1.1546 -0.8968  0.4689
13931TIP3    H263285   2.870   5.260   1.791  0.0384 -1.2537  0.5692
13932TIP3   OH263286   5.059   6.446   5.103  0.0593 -0.5517 -0.3844
13932TIP3    H163287   5.108   6.514   5.150  0.5436 -1.5253  0.5634
13932TIP3    H263288   5.085   6.364   5.145 -0.8207 -1.2967 -1.2377
13933TIP3   OH263289   5.922   4.913   5.791  0.6951 -0.1293  0.2599
13933TIP3    H163290   5.848   4.867   5.831  0.2622  0.3597  0.0463
13933TIP3    H263291   5.940   4.985   5.851  0.4029  0.2813 -0.1398
13934TIP3   OH263292   5.195   5.420  12.316 -0.6333 -0.0048 -0.3664
13934TIP3    H163293   5.192   5.364  12.238  1.5184 -0.7885  0.0466
13934TIP3    H263294   5.135   5.492  12.295 -0.5797 -0.4899 -2.5031
13935TIP3   OH263295   6.668   3.696  15.943  0.1211  0.2011  0.5115
13935TIP3    H163296   6.666   3.642  15.864  2.0614  1.3704 -0.4253
13935TIP3    H263297   6.598   3.760  15.930  0.6718  0.6347 -0.5053
13936TIP3   OH263298   0.707   3.982   1.776  0.6518  0.4200  0.5233
13936TIP3    H163299   0.736   4.057   1.723 -0.0165  0.7819  0.6628
13936TIP3    H263300   0.701   3.910   1.714  0.0905  0.7856  0.1365
13937TIP3   OH263301   2.488   0.329   3.694 -0.7136 -0.1351  0.0130
13937TIP3    H163302   2.401   0.294   3.674 -0.3439 -0.3590 -1.3186
13937TIP3    H263303   2.544   0.295   3.624  0.6614 -0.7799  1.3719
13938TIP3   OH263304   1.602   2.578  14.115 -0.1327 -0.1338  0.1300
13938TIP3    H163305   1.560   2.492  14.121  0.3306 -0.2882  3.6024
13938TIP3    H263306   1.690   2.564  14.151  0.7122  1.4142 -1.1914
13939TIP3   OH263307   1.081   2.584   6.046  0.1498  0.1465 -0.2613
13939TIP3    H163308   1.062   2.665   5.999 -0.1589  0.6715  0.7427
13939TIP3    H263309   1.145   2.609   6.113 -0.6898 -0.2061  0.7132
13940TIP3   OH263310   4.017   3.274  15.651 -0.5666 -0.4795 -0.0254
13940TIP3    H163311   4.008   3.365  15.679 -1.9359 -0.8038  0.6928
13940TIP3    H263312   4.047   3.279  15.560 -1.1094  0.7082 -0.1511
13941TIP3   OH263313   2.559   4.824  14.030 -0.0520  0.4270 -0.5364
13941TIP3    H163314   2.479   4.818  13.978 -0.4407  2.0363 -0.1811
13941TIP3    H263315   2.582   4.733  14.049 -1.0628 -0.1075 -1.7405
13942TIP3   OH263316   3.536   6.582  14.389  0.8462  0.5275  0.6484
13942TIP3    H163317   3.512   6.518  14.457  1.4810  0.5044  0.8521
13942TIP3    H263318   3.588   6.647  14.435  0.9739  0.7063  0.2492
13943TIP3   OH263319   6.707   0.089   1.642  0.3481 -0.0412 -0.3872
13943TIP3    H163320   6.705  -0.005   1.628  0.1549  0.1300 -1.6457
13943TIP3    H263321   6.780   0.103   1.702  1.3773 -0.8671 -1.3896
13944TIP3   OH263322   4.854   2.593   3.981 -0.0827  0.1233  0.6473
13944TIP3    H163323   4.818   2.614   4.068  0.1245  0.8451  0.5643
13944TIP3    H263324   4.872   2.678   3.942  1.1028 -0.2208  0.4309
13945TIP3   OH263325   6.404   0.945   0.647 -0.2369  0.4499 -0.6216
13945TIP3    H163326   6.371   0.894   0.721 -0.8104 -0.9624 -1.7954
13945TIP3    H263327   6.341   1.017   0.638 -0.6171  0.1779 -0.2319
13946TIP3   OH263328   4.890   3.657  14.991  0.2418  0.0371  0.2279
13946TIP3    H163329   4.824   3.608  14.942 -0.2534  2.7159 -1.9909
13946TIP3    H263330   4.873   3.634  15.083 -2.7090 -0.6634 -0.3722
13947TIP3   OH263331   2.268   1.011  17.156 -0.0368 -0.3714  0.1521
13947TIP3    H163332   2.277   0.967  17.072 -0.0298  0.8900 -0.5248
13947TIP3    H263333   2.358   1.023  17.187 -0.0147 -0.3726  0.0871
13948TIP3   OH263334   1.847   5.329  16.091  0.5113 -0.1974  0.0395
13948TIP3    H163335   1.842   5.354  16.183  3.4963  0.8511  0.0165
13948TIP3    H263336   1.901   5.250  16.091  0.4633 -0.2348 -0.8225
13949TIP3   OH263337   2.029   6.455   3.210 -0.1516  0.4557  0.0376
13949TIP3    H163338   2.092   6.396   3.168  0.1330  0.6540  0.1837
13949TIP3    H263339   1.963   6.396   3.247  0.6459  0.1541  1.0345
13950TIP3   OH263340   4.812   2.318  11.559 -0.2235 -0.7870 -0.7138
13950TIP3    H163341   4.830   2.226  11.580 -1.6205 -0.5881  1.6817
13950TIP3    H263342   4.821   2.364  11.642 -3.8063  0.5120 -0.8707
13951TIP3   OH263343   4.393   6.615  17.245 -0.4971 -0.1723  0.0999
13951TIP3    H163344   4.471   6.658  17.280 -0.5293  0.1197 -0.1695
13951TIP3    H263345   4.427   6.552  17.181 -0.4440 -0.6372  0.5872
13952TIP3   OH263346   0.656   4.199   4.980  0.9421  0.4883  0.6831
13952TIP3    H163347   0.632   4.107   4.989 -4.0770  1.2449 -1.3500
13952TIP3    H263348   0.593   4.246   5.035  1.5365  2.7814 -0.4623
13953TIP3   OH263349   6.770   5.953  13.296 -0.2853 -0.8641  0.4604
13953TIP3    H163350   6.818   6.001  13.364  1.5237  2.1841 -2.6343
13953TIP3    H263351   6.688   6.000  13.286 -0.2997 -0.9421  0.1952
13954TIP3   OH263352   0.121   6.388  16.607  0.3568  0.2693  0.0308
13954TIP3    H163353   0.184   6.454  16.637 -0.2255  1.2241 -0.7601
13954TIP3    H263354   0.041   6.409  16.655 -0.3686  1.3437 -1.5816
13955TIP3   OH263355   3.531   1.842  15.941  0.2826 -0.1689  0.1161
13955TIP3    H163356   3.577   1.758  15.945 -0.9994 -0.8761  0.5420
13955TIP3    H263357   3.524   1.871  16.032 -0.0858 -0.0543  0.0550
13956TIP3   OH263358   6.213   6.163   4.618 -0.0162 -0.4190 -0.1521
13956TIP3    H163359   6.222   6.255   4.640  0.1722 -0.0807 -1.5116
13956TIP3    H263360   6.119   6.148   4.611 -0.0409  0.4024 -2.5693
13957TIP3   OH263361   3.694   2.969   3.676  0.2130  0.2822 -0.4374
13957TIP3    H163362   3.611   3.002   3.643 -0.2269  0.1228  0.4780
13957TIP3    H263363   3.672   2.924   3.758  1.1339 -0.1491 -0.4044
13958TIP3   OH263364   1.830   0.195   4.989  0.1056 -0.5245  0.5981
13958TIP3    H163365   1.905   0.137   5.005  2.2657  1.9583  0.1603
13958TIP3    H263366   1.821   0.245   5.070 -0.3396 -0.0006  0.2314
13959TIP3   OH263367   5.402   2.049   4.382  0.2774  0.2591  0.4351
13959TIP3    H163368   5.329   2.045   4.320  0.8449  0.6818 -0.2722
13959TIP3    H263369   5.480   2.031   4.330  0.7990  0.9672  0.9494
13960TIP3   OH263370   5.341   0.373  15.820 -0.0998 -0.1178 -0.2353
13960TIP3    H163371   5.300   0.287  15.820  0.8666 -0.6256  1.5632
13960TIP3    H263372   5.405   0.370  15.891  1.8888  1.1960 -1.8364
13961TIP3   OH263373   1.740   6.415   1.075 -0.3909  0.1867 -0.5539
13961TIP3    H163374   1.740   6.320   1.074 -3.2894  0.0553  1.2427
13961TIP3    H263375   1.760   6.438   1.166 -2.6953  1.1445 -0.2427
13962TIP3   OH263376   0.864   2.769  12.465 -0.3046 -0.2223 -0.2861
13962TIP3    H163377   0.789   2.789  12.408 -0.1053  1.8292  0.0927
13962TIP3    H263378   0.934   2.745  12.404 -0.5293  0.4560 -0.8259
13963TIP3   OH263379   1.561   0.729  13.936  0.5658  0.0082 -0.0959
13963TIP3    H163380   1.568   0.634  13.939  0.1716  0.0102  1.3406
13963TIP3    H263381   1.582   0.758  14.024 -0.0635  1.2040 -0.3170
13964TIP3   OH263382   2.009   2.363  11.911  0.1119 -0.5730 -0.0356
13964TIP3    H163383   2.054   2.388  11.992  0.8413  3.2701 -1.3987
13964TIP3    H263384   2.069   2.301  11.869  1.8442  0.6678  0.4725
13965TIP3   OH263385   2.459   3.217  12.829 -0.1897 -0.1304  0.2218
13965TIP3    H163386   2.520   3.289  12.847  0.0287 -0.4207  0.6547
13965TIP3    H263387   2.506   3.160  12.769  0.4169 -0.9447  1.4424
13966TIP3   OH263388   5.827   5.936   2.375  0.2211  0.4113 -0.5031
13966TIP3    H163389   5.909   5.888   2.373  0.7930  1.2552  1.0164
13966TIP3    H263390   5.783   5.905   2.454  0.6141  2.3267  0.5296
13967TIP3   OH263391   3.322   3.219  13.030  0.3555 -0.2594  0.5258
13967TIP3    H163392   3.378   3.209  13.107  0.2847  0.0778  0.6244
13967TIP3    H263393   3.307   3.314  13.024 -1.5445 -0.4464  1.4558
13968TIP3   OH263394   6.750   2.723  15.563 -0.0397  0.0980  0.0246
13968TIP3    H163395   6.657   2.721  15.540 -0.0256 -0.4585  0.0202
13968TIP3    H263396   6.754   2.693  15.653 -0.0208  1.6483  0.5655
13969TIP3   OH263397   0.028   0.411   1.879 -0.3735 -0.4038 -0.6323
13969TIP3    H163398   0.043   0.384   1.970  1.2650  1.1248 -0.3861
13969TIP3    H263399  -0.050   0.467   1.883  1.5839  2.4763  0.5377
13970TIP3   OH263400   4.086   3.336   3.416  0.2494 -1.0213  0.4494
13970TIP3    H163401   4.033   3.256   3.420 -2.0119  0.4056  1.0167
13970TIP3    H263402   4.101   3.359   3.508  0.3912 -0.4941  0.2946
13971TIP3   OH263403   2.572   4.140   5.683  0.3083 -0.5270  0.5312
13971TIP3    H163404   2.622   4.221   5.689 -0.6309  0.1347 -0.2198
13971TIP3    H263405   2.550   4.119   5.774  1.3743 -0.4872  0.8161
13972TIP3   OH263406   5.806   6.734   0.670  0.2963 -0.2965 -0.0220
13972TIP3    H163407   5.881   6.782   0.634 -0.0467  1.0175  0.9718
13972TIP3    H263408   5.767   6.794   0.733 -2.0785 -0.6355 -1.0636
13973TIP3   OH263409   6.339   4.847   4.378 -0.4477  0.4674 -0.8627
13973TIP3    H163410   6.333   4.940   4.397 -0.7266  0.0694  1.2194
13973TIP3    H263411   6.432   4.829   4.370 -0.4051  0.9579 -1.5129
13974TIP3   OH263412   4.778   4.770   1.057  0.1576 -0.4736  0.4669
13974TIP3    H163413   4.786   4.820   1.138  0.1139  1.6369 -0.7563
13974TIP3    H263414   4.715   4.820   1.004  2.6899  0.1733 -2.1934
13975TIP3   OH263415   5.324   0.408  15.503 -0.4401 -0.6337  1.3121
13975TIP3    H163416   5.292   0.361  15.580  0.9017  0.0092  2.3128
13975TIP3    H263417   5.404   0.361  15.479 -0.8884 -0.8684  0.2625
13976TIP3   OH263418   1.109   2.011   1.686  0.0464 -0.1468  0.5172
13976TIP3    H163419   1.110   1.942   1.620  0.2372  0.6401 -0.3361
13976TIP3    H263420   1.168   1.980   1.755  1.1652 -0.2632 -0.4647
13977TIP3   OH263421   2.701   4.894  10.920  0.4461  0.0178 -0.2589
13977TIP3    H163422   2.614   4.870  10.888  0.7216 -1.4499  0.0257
13977TIP3    H263423   2.756   4.897  10.841  0.2779  0.3050 -0.3650
13978TIP3   OH263424   1.251   4.983   6.182 -0.2226  0.4337 -0.3572
13978TIP3    H163425   1.165   4.965   6.222  0.0840 -0.5973 -0.1495
13978TIP3    H263426   1.286   5.056   6.234  0.3251 -1.1036  1.5370
13979TIP3   OH263427   2.984   5.035  11.047  0.3093  0.5628  0.3766
13979TIP3    H163428   2.948   4.975  10.982 -0.6833  1.2625  0.2661
13979TIP3    H263429   3.079   5.031  11.033  0.0678  1.9474 -2.2637
13980TIP3   OH263430   2.593   1.352   5.946 -0.0645  0.0592  0.3906
13980TIP3    H163431   2.547   1.359   5.863  0.2332 -2.1405 -0.0189
13980TIP3    H263432   2.538   1.398   6.009 -2.8536 -2.2932 -0.1096
13981TIP3   OH263433   5.149   0.162   5.894  0.1720 -0.2929  0.2743
13981TIP3    H163434   5.071   0.185   5.944  0.0722  0.4877 -0.2280
13981TIP3    H263435   5.222   0.199   5.943  0.1653 -0.4156  0.3770
13982TIP3   OH263436   5.022   3.728  11.448  0.0025  0.0549 -0.0219
13982TIP3    H163437   4.971   3.765  11.520  0.9179  1.0728  0.1248
13982TIP3    H263438   4.985   3.769  11.370  0.3159  0.4869  0.0516
13983TIP3   OH263439   6.699   6.058  14.544 -0.3787 -0.2034  0.1138
13983TIP3    H163440   6.663   6.113  14.614  0.4148 -0.1618  0.4982
13983TIP3    H263441   6.788   6.038  14.572 -0.5834 -1.5395 -0.1100
13984TIP3   OH263442   3.295   4.737   3.926 -0.4591  0.2378 -0.0008
13984TIP3    H163443   3.272   4.814   3.874 -1.1529  0.8028  1.0931
13984TIP3    H263444   3.229   4.735   3.995  0.5633 -0.3412  0.9947
13985TIP3   OH263445   3.418   2.242  14.386  0.4378  0.4997  0.3351
13985TIP3    H163446   3.340   2.216  14.336  0.6549  0.9927 -0.2859
13985TIP3    H263447   3.407   2.337  14.399  0.1089  0.2797  1.7340
13986TIP3   OH263448   3.033   0.695   0.646 -0.0009  0.1548 -0.0758
13986TIP3    H163449   3.076   0.776   0.617  1.8848 -0.9330 -0.4707
13986TIP3    H263450   3.063   0.683   0.736  1.0782 -0.9704 -0.5774
13987TIP3   OH263451   2.063   2.298  16.238  0.9224  0.0522 -0.4629
13987TIP3    H163452   2.001   2.277  16.168  0.6649 -1.5098  0.1826
13987TIP3    H263453   2.079   2.214  16.281  2.2388  0.7184  0.4110
13988TIP3   OH263454   1.329   0.758   2.317 -0.6567 -0.0216  0.4936
13988TIP3    H163455   1.339   0.850   2.292  0.2937 -0.2154  0.1297
13988TIP3    H263456   1.382   0.749   2.396 -2.2677  0.1712  1.6708
13989TIP3   OH263457   2.539   0.166   1.841  0.1827  0.2394  0.4913
13989TIP3    H163458   2.575   0.119   1.916  0.5424  0.7297  0.6279
13989TIP3    H263459   2.446   0.175   1.861 -0.0987 -1.2467  0.0208
13990TIP3   OH263460   2.534   5.718  14.410  0.4769  0.5102 -0.4465
13990TIP3    H163461   2.564   5.681  14.492  0.3324  2.9564  0.7887
13990TIP3    H263462   2.547   5.648  14.346  2.0489 -0.9249  1.3389
13991TIP3   OH263463   2.886   6.008  15.975 -0.2127 -0.2049 -0.0514
13991TIP3    H163464   2.893   6.102  15.961  0.7623  0.0889  2.0966
13991TIP3    H263465   2.932   5.969  15.900  0.1656  1.0515 -0.4941
13992TIP3   OH263466   4.885   3.443  13.023  0.7371  0.1073 -0.1566
13992TIP3    H163467   4.822   3.377  13.049  0.7558 -0.1099 -0.6595
13992TIP3    H263468   4.832   3.520  13.001  0.5608 -0.4431 -1.7057
13993TIP3   OH263469   0.965   0.445  13.015  0.0976 -0.4196  0.4299
13993TIP3    H163470   0.945   0.506  13.086  2.2951 -0.3178  1.0351
13993TIP3    H263471   0.976   0.501  12.938  0.5679 -0.2170  0.6431
13994TIP3   OH263472   3.605   2.330   0.262  0.0165  0.6358 -0.1611
13994TIP3    H163473   3.578   2.410   0.216 -0.6631 -0.1578 -1.1601
13994TIP3    H263474   3.581   2.259   0.203  0.4026 -0.3310  0.8263
13995TIP3   OH263475   2.289   6.239  16.582  0.0198 -0.3561  0.7381
13995TIP3    H163476   2.342   6.307  16.622 -0.7562  1.5584 -1.2580
13995TIP3    H263477   2.339   6.211  16.505 -1.8174  1.7248 -1.3760
13996TIP3   OH263478   5.409   5.335  15.083  0.1962 -0.4471  0.1828
13996TIP3    H163479   5.342   5.278  15.120  1.3638 -0.9353  1.7063
13996TIP3    H263480   5.426   5.300  14.996  0.0546 -1.7317  0.6498
13997TIP3   OH263481   4.452   6.624   5.392 -0.2875 -0.3443 -0.5169
13997TIP3    H163482   4.523   6.687   5.407 -0.5094  0.0023 -0.9277
13997TIP3    H263483   4.478   6.577   5.313 -0.3106 -0.5104 -0.4265
13998TIP3   OH263484   4.114   5.762   4.043 -0.2198 -0.0700  0.1061
13998TIP3    H163485   4.102   5.857   4.039 -1.7765 -0.2182  0.6889
13998TIP3    H263486   4.125   5.736   3.951 -2.1548  0.4242 -0.3054
13999TIP3   OH263487   1.616   1.142   4.962 -0.2025 -0.1754 -0.1378
13999TIP3    H163488   1.594   1.092   5.041  0.9830  1.6415  1.4238
13999TIP3    H263489   1.707   1.167   4.974  0.2699 -0.5094 -2.5074
14000TIP3   OH263490   2.901   4.262  11.269 -1.1069 -0.1525  0.1302
14000TIP3    H163491   2.948   4.201  11.325  0.4881 -0.8543 -1.8549
14000TIP3    H263492   2.892   4.216  11.185  0.2860  2.3415 -1.4973
14001TIP3   OH263493   3.292   6.065  16.818 -0.2579  0.3239  0.3944
14001TIP3    H163494   3.342   6.119  16.757  1.0013  0.5632  1.5933
14001TIP3    H263495   3.200   6.080  16.793  0.2177  0.2188 -1.5577
14002TIP3   OH263496   4.061   2.398  12.480  0.1444 -0.1434  0.6197
14002TIP3    H163497   4.139   2.414  12.534 -0.5952  1.2400  1.3313
14002TIP3    H263498   3.998   2.463  12.510 -0.1777  0.9710 -2.2077
14003TIP3   OH263499   5.795   4.378  12.993 -0.2201 -0.1836 -0.1209
14003TIP3    H163500   5.757   4.315  13.054  1.1333 -0.8636  0.0318
14003TIP3    H263501   5.755   4.462  13.018 -0.7489 -0.6880  0.7689
14004TIP3   OH263502   1.873   0.378   1.602  0.3861  0.0016  0.1535
14004TIP3    H163503   1.840   0.461   1.568  2.3223  1.3540  1.3620
14004TIP3    H263504   1.965   0.376   1.576  0.0088 -2.6429 -1.3428
14005TIP3   OH263505   3.376   2.485  12.898 -0.6175  0.1321 -0.0023
14005TIP3    H163506   3.379   2.393  12.923 -0.7261 -0.1143 -0.8511
14005TIP3    H263507   3.337   2.485  12.810 -1.8641  1.1028  0.5126
14006TIP3   OH263508   2.437   3.679   5.324 -0.6252  0.0787 -0.3716
14006TIP3    H163509   2.423   3.661   5.417  1.3693 -0.5608 -0.1553
14006TIP3    H263510   2.515   3.629   5.301 -1.7433 -0.7095 -2.7088
14007TIP3   OH263511   0.026   4.886  13.485 -0.2905  0.2744 -0.3203
14007TIP3    H163512   0.036   4.805  13.436 -2.3059 -0.1101 -0.2034
14007TIP3    H263513   0.018   4.954  13.418 -1.1315  0.0014 -0.5180
14008TIP3   OH263514   5.362   0.337  11.269  0.0902 -0.1854  0.1843
14008TIP3    H163515   5.365   0.266  11.333  2.7852 -1.3496 -1.0919
14008TIP3    H263516   5.343   0.294  11.186  0.9598  0.6740 -0.4894
14009TIP3   OH263517   5.242   3.465   5.997 -0.2803  0.1009  0.0892
14009TIP3    H163518   5.218   3.374   5.982  0.8254 -0.4580  1.5023
14009TIP3    H263519   5.158   3.511   6.002 -0.8531 -0.8406 -0.5608
14010TIP3   OH263520   2.947   0.799  16.686  0.1664  0.1383 -0.5903
14010TIP3    H163521   3.040   0.794  16.664  0.9393 -0.9653  2.3520
14010TIP3    H263522   2.942   0.868  16.753 -0.5671 -1.7017  1.3537
14011TIP3   OH263523   0.218   0.233  16.539  0.1037 -0.0442 -0.0083
14011TIP3    H163524   0.234   0.325  16.559 -0.7871 -0.2603  1.9534
14011TIP3    H263525   0.152   0.234  16.469  0.2174  0.7872 -0.1088
14012TIP3   OH263526   4.714   4.603   2.472  0.1405  0.2694 -0.0358
14012TIP3    H163527   4.702   4.563   2.558 -1.5411  1.0789  0.1670
14012TIP3    H263528   4.733   4.530   2.414 -1.6138 -0.7140  0.5380
14013TIP3   OH263529   2.159   4.382   4.224  0.1835 -0.1681  0.1435
14013TIP3    H163530   2.162   4.464   4.274  2.2481  0.8186 -1.4565
14013TIP3    H263531   2.066   4.369   4.206 -0.1719  2.0574  0.0858
14014TIP3   OH263532   0.108   2.903  12.322 -0.0183 -0.2608 -0.1862
14014TIP3    H163533   0.146   2.820  12.294  1.5661  0.2567  0.3476
14014TIP3    H263534   0.107   2.897  12.418  1.0624  0.7171 -0.0977
14015TIP3   OH263535   4.692   3.760  13.744  0.1378 -0.5143  0.0683
14015TIP3    H163536   4.736   3.706  13.678  0.0889 -0.7172  0.1989
14015TIP3    H263537   4.613   3.791  13.701  0.3622 -0.2185 -0.1405
14016TIP3   OH263538   0.204   0.659   0.166 -0.1966 -0.5028 -0.2168
14016TIP3    H163539   0.188   0.622   0.079  0.1058 -0.0862 -0.4551
14016TIP3    H263540   0.149   0.607   0.224 -0.4145 -0.7788 -0.6573
14017TIP3   OH263541   0.750   6.663  15.654 -0.3655 -0.0566 -0.2387
14017TIP3    H163542   0.676   6.662  15.593  0.2185  4.2993 -1.2989
14017TIP3    H263543   0.715   6.620  15.733 -2.9878 -0.8607 -1.7003
14018TIP3   OH263544   5.893   3.462  14.930  0.2197 -0.7474 -0.0440
14018TIP3    H163545   5.909   3.427  15.017  1.6945 -0.8115 -0.3117
14018TIP3    H263546   5.801   3.441  14.912  0.0584 -1.2420  1.2478
14019TIP3   OH263547   2.594   3.089  10.929  0.2316  0.3978  0.5259
14019TIP3    H163548   2.680   3.083  10.888  0.1975  2.4520  0.0266
14019TIP3    H263549   2.533   3.102  10.856 -0.1092  1.8934  1.0440
14020TIP3   OH263550   5.047   2.716   3.759 -0.2144  0.2093  0.6276
14020TIP3    H163551   5.003   2.742   3.678  1.0507 -0.2974 -0.2580
14020TIP3    H263552   5.069   2.623   3.746 -1.0614 -0.2398  2.0684
14021TIP3   OH263553   5.324   5.790  15.841  0.1555  0.4257 -0.0223
14021TIP3    H163554   5.338   5.783  15.935 -0.9482  0.3082  0.1442
14021TIP3    H263555   5.231   5.809  15.832  0.2253  0.3167 -1.0960
14022TIP3   OH263556   6.222   6.005   2.337  0.1476  0.2905 -0.3567
14022TIP3    H163557   6.148   5.950   2.364  0.5753 -0.0096  0.1987
14022TIP3    H263558   6.182   6.071   2.279 -0.2513 -1.0784 -1.7141
14023TIP3   OH263559   5.547   0.580  11.299 -0.4623 -0.0830  0.2962
14023TIP3    H163560   5.484   0.510  11.318  0.0354 -0.3441  1.0482
14023TIP3    H263561   5.551   0.584  11.204  0.7081 -2.1921  0.2076
14024TIP3   OH263562   1.535   5.143  11.948 -0.1361 -0.1490 -0.4192
14024TIP3    H163563   1.511   5.235  11.941 -1.7313 -0.6126 -1.4717
14024TIP3    H263564   1.454   5.095  11.932  0.5059 -1.7508  0.7836
14025TIP3   OH263565   0.185   5.076   3.104 -0.1685  0.3754 -0.0663
14025TIP3    H163566   0.193   5.051   3.012 -0.3846  1.9251 -0.5254
14025TIP3    H263567   0.091   5.071   3.122 -0.1583  0.3791 -0.0122
14026TIP3   OH263568   4.188   0.265   4.848  0.7866 -0.3986  0.2948
14026TIP3    H163569   4.253   0.199   4.870  0.6360 -1.0788 -1.1875
14026TIP3    H263570   4.148   0.288   4.932  1.4782 -1.5072  0.9532
14027TIP3   OH263571   5.177   1.317   5.388  0.3024 -0.0601 -0.5897
14027TIP3    H163572   5.237   1.392   5.391 -1.0222  1.0342 -0.7472
14027TIP3    H263573   5.154   1.308   5.295 -0.4554  0.0889 -0.4209
14028TIP3   OH263574   6.596   3.013  14.781 -0.0094  0.0499 -0.1271
14028TIP3    H163575   6.511   2.982  14.748 -0.0116 -0.1863  0.1046
14028TIP3    H263576   6.646   2.933  14.799 -0.9779  0.0557  3.0908
14029TIP3   OH263577   5.102   1.867  12.627 -0.2867  0.0858 -0.1787
14029TIP3    H163578   5.196   1.868  12.610 -0.1818 -2.2092 -0.0374
14029TIP3    H263579   5.094   1.883  12.721  0.1810 -2.1356  0.2894
14030TIP3   OH263580   1.247   6.303   0.672  0.2857  0.2168  0.1317
14030TIP3    H163581   1.251   6.239   0.600 -0.6245  1.0727 -0.7083
14030TIP3    H263582   1.338   6.315   0.699  0.5494 -0.8299 -0.2224
14031TIP3   OH263583   0.910   0.034   4.261 -0.1320  0.3915 -0.2369
14031TIP3    H163584   0.978   0.092   4.227  0.1391  0.2465  0.0544
14031TIP3    H263585   0.828   0.068   4.224 -0.1441  1.7832  0.9681
14032TIP3   OH263586   2.178   6.221   3.138 -0.0704  0.2970 -0.2579
14032TIP3    H163587   2.105   6.175   3.179  0.1486  0.2051  0.0256
14032TIP3    H263588   2.177   6.191   3.047 -2.1936  2.4295 -1.0560
14033TIP3   OH263589   2.471   2.990  12.624 -0.2218  0.2287  0.3265
14033TIP3    H163590   2.554   2.982  12.577  0.1737  1.2564  0.7972
14033TIP3    H263591   2.435   3.073  12.594 -0.9266 -0.0592  0.3676
14034TIP3   OH263592   3.202   5.819   2.649 -0.6036 -0.4725 -0.2271
14034TIP3    H163593   3.214   5.727   2.673 -0.6531 -0.8922 -1.6684
14034TIP3    H263594   3.112   5.823   2.617 -0.1451 -0.2957 -1.5894
14035TIP3   OH263595   0.719   5.260   0.830 -0.1535  0.1532  0.0280
14035TIP3    H163596   0.719   5.346   0.872  0.0053 -0.0819  0.5163
14035TIP3    H263597   0.764   5.274   0.746  3.7763 -0.2887  1.8557
14036TIP3   OH263598   1.428   3.319   1.948 -0.1974 -0.0775  0.2241
14036TIP3    H163599   1.475   3.400   1.968 -0.2241  0.5261 -1.9190
14036TIP3    H263600   1.436   3.267   2.028  1.5195  1.2246  0.9785
14037TIP3   OH263601   6.194   2.904   4.475  0.3098 -0.4514  0.2241
14037TIP3    H163602   6.168   2.942   4.559  1.8020  1.3209 -0.0542
14037TIP3    H263603   6.227   2.817   4.498 -0.4179 -0.4712  1.2868
14038TIP3   OH263604   1.871   5.044   2.987  0.7322 -0.5842 -0.1351
14038TIP3    H163605   1.791   5.012   2.944  0.7955 -1.9586  0.7264
14038TIP3    H263606   1.841   5.078   3.071  0.9056  0.0960 -0.3369
14039TIP3   OH263607   0.314   5.431   6.552  0.0480  0.0779  0.0631
14039TIP3    H163608   0.363   5.471   6.480 -1.2814  0.6278 -0.5754
14039TIP3    H263609   0.380   5.383   6.602  1.3576  1.4031 -0.3143
14040TIP3   OH263610   3.763   0.742  11.358  0.0243  0.0591  0.1946
14040TIP3    H163611   3.848   0.775  11.328 -0.2005 -0.3434 -0.9424
14040TIP3    H263612   3.718   0.819  11.391  1.0334  0.1865  1.3587
14041TIP3   OH263613   5.790   3.803   4.666  0.6260  0.1916 -0.4301
14041TIP3    H163614   5.753   3.837   4.585  1.4004  3.1938  0.3523
14041TIP3    H263615   5.884   3.794   4.649  0.3483 -3.1530 -1.0190
14042TIP3   OH263616   6.048   1.121   3.286 -0.0992  0.2086  0.1365
14042TIP3    H163617   6.007   1.172   3.215  0.6295  0.4797 -0.1006
14042TIP3    H263618   6.093   1.187   3.339 -1.1535  0.0880  1.2357
14043TIP3   OH263619   2.785   1.000  17.085  0.1943  0.5899 -0.1827
14043TIP3    H163620   2.763   0.921  17.036  0.0369  0.1839  0.5295
14043TIP3    H263621   2.718   1.063  17.059 -1.5369 -0.4465  1.5191
14044TIP3   OH263622   2.421   4.336  16.856  0.1649 -0.1427  0.1858
14044TIP3    H163623   2.395   4.387  16.780  0.5684 -1.5008 -0.8991
14044TIP3    H263624   2.419   4.398  16.929 -0.4803  1.1180 -0.8768
14045TIP3   OH263625   1.079   4.057  15.251 -0.0856 -0.4568  0.0139
14045TIP3    H163626   1.056   4.047  15.158 -1.5664  1.4962  0.1026
14045TIP3    H263627   0.998   4.039  15.298  0.2594  0.0471  0.8275
14046TIP3   OH263628   0.108   2.416   3.830  0.3272 -0.5607  0.6688
14046TIP3    H163629   0.095   2.323   3.809  2.0640 -0.9738  1.2061
14046TIP3    H263630   0.112   2.459   3.744 -0.0855 -1.0386  0.4020
14047TIP3   OH263631   5.140   2.320  12.981 -0.2348 -0.0900 -0.7450
14047TIP3    H163632   5.098   2.243  12.943 -1.2686  0.5676 -0.9730
14047TIP3    H263633   5.070   2.385  12.986  0.4735  0.6332  0.0199
14048TIP3   OH263634   5.942   2.131   5.262 -0.2421  0.4965 -0.0719
14048TIP3    H163635   5.884   2.108   5.334  0.5373  2.8715  1.4104
14048TIP3    H263636   6.029   2.105   5.292 -0.0527  0.4142 -0.6798
14049TIP3   OH263637   5.938   2.069   2.596  0.4062  0.2622 -0.3576
14049TIP3    H163638   5.994   2.006   2.640  0.9163  0.7967 -0.2351
14049TIP3    H263639   5.945   2.047   2.503 -1.6629 -1.6909 -0.1539
14050TIP3   OH263640   4.729   6.677  16.201 -0.0455  0.2732 -0.3947
14050TIP3    H163641   4.705   6.589  16.231 -0.4532  0.4634 -0.1466
14050TIP3    H263642   4.711   6.733  16.277  1.3431  0.4073 -0.1422
14051TIP3   OH263643   4.502   3.702  14.301 -0.0376  0.2138 -0.3494
14051TIP3    H163644   4.450   3.671  14.227 -0.5828  1.4626 -0.5008
14051TIP3    H263645   4.473   3.648  14.375 -0.7125  0.1175 -0.6817
14052TIP3   OH263646   1.480   6.141  15.740  0.0276  0.5404 -0.0431
14052TIP3    H163647   1.412   6.076  15.757  0.6578  0.2703  1.5519
14052TIP3    H263648   1.443   6.196  15.670 -1.3163 -0.3241 -0.0453
14053TIP3   OH263649   4.992   6.807  10.388  0.0749  0.6457  0.2142
14053TIP3    H163650   5.019   6.831  10.477 -1.4253  0.1086  0.8446
14053TIP3    H263651   4.995   6.712  10.387 -0.8226  0.6076  0.0124
14054TIP3   OH263652   4.175   5.517   4.577  0.1100  0.1005  0.3002
14054TIP3    H163653   4.157   5.438   4.628  0.7486 -0.0996  0.2269
14054TIP3    H263654   4.169   5.490   4.486  1.2348 -0.1000  0.2658
14055TIP3   OH263655   2.197   1.185  15.144  0.1272  0.0847 -0.0861
14055TIP3    H163656   2.255   1.128  15.094 -0.8490 -0.9778 -0.0628
14055TIP3    H263657   2.238   1.192  15.230  0.2476 -0.6269 -0.0783
14056TIP3   OH263658   5.530   0.336  16.014 -0.3794 -0.0894  0.3816
14056TIP3    H163659   5.595   0.268  15.997  0.8180  0.9229  0.7259
14056TIP3    H263660   5.501   0.319  16.104 -0.4522 -0.4226  0.2969
14057TIP3   OH263661   4.385   0.928  14.666 -0.0293 -0.4561  0.1959
14057TIP3    H163662   4.367   0.893  14.578 -1.2645 -0.5824  0.4842
14057TIP3    H263663   4.346   0.864  14.726 -1.1456  0.7096  0.7654
14058TIP3   OH263664   2.451   1.049  15.467 -0.2230 -0.2025  0.0493
14058TIP3    H163665   2.520   1.056  15.534 -0.5195 -0.3294  0.3737
14058TIP3    H263666   2.428   1.140  15.447 -1.3458 -0.1544  1.3991
14059TIP3   OH263667   6.157   6.369   2.019 -0.1586 -0.4648  0.3641
14059TIP3    H163668   6.183   6.443   1.963 -0.5766 -0.5524  0.0508
14059TIP3    H263669   6.205   6.384   2.101  0.0653 -0.0585  0.1680
14060TIP3   OH263670   1.459   0.502   0.630  0.4990  0.1811 -0.3422
14060TIP3    H163671   1.481   0.531   0.719 -1.6076  0.3569  0.1756
14060TIP3    H263672   1.432   0.581   0.585 -0.5187 -0.2246 -0.4608
14061TIP3   OH263673   2.978   1.597   2.999  0.3757  0.3311 -0.4409
14061TIP3    H163674   2.888   1.625   2.981  0.8958  0.7400 -2.8194
14061TIP3    H263675   2.976   1.565   3.089 -1.9620  1.0452 -0.1678
14062TIP3   OH263676   1.656   3.847   3.445  0.2420 -0.1067  0.1191
14062TIP3    H163677   1.623   3.936   3.433  1.1643  1.2547  5.1794
14062TIP3    H263678   1.748   3.853   3.419 -0.3064 -0.4089 -2.0438
14063TIP3   OH263679   5.616   3.622   0.043 -0.1726  0.2369 -0.5459
14063TIP3    H163680   5.627   3.571   0.123 -0.1177  1.4329  0.2269
14063TIP3    H263681   5.522   3.633   0.033 -0.1591  0.5674 -0.3265
14064TIP3   OH263682   2.856   2.709  12.184 -0.1476  0.5526  0.7801
14064TIP3    H163683   2.918   2.636  12.189 -1.5163 -0.5853  2.1577
14064TIP3    H263684   2.910   2.787  12.182  1.3766 -0.2635  4.1337
14065TIP3   OH263685   5.682   5.139   0.672 -0.0753  0.3801 -0.3554
14065TIP3    H163686   5.673   5.102   0.584 -0.6495 -1.5015  0.4378
14065TIP3    H263687   5.592   5.163   0.697 -0.0023  0.3743 -0.0816
14066TIP3   OH263688   3.703   4.302   4.144 -0.2766 -0.0922  0.2435
14066TIP3    H163689   3.692   4.213   4.177 -0.0490  0.4319  1.7897
14066TIP3    H263690   3.784   4.333   4.185 -0.0033  0.6096 -0.7960
14067TIP3   OH263691   1.680   2.583  11.430 -0.7582 -0.1496 -0.6931
14067TIP3    H163692   1.724   2.582  11.515 -1.0809  0.0749 -0.5186
14067TIP3    H263693   1.639   2.497  11.422  1.2326 -1.0613 -1.6803
14068TIP3   OH263694   3.337   6.299  12.406 -0.0505  0.0346 -0.7869
14068TIP3    H163695   3.352   6.232  12.339  1.7645 -0.1376 -0.2791
14068TIP3    H263696   3.264   6.350  12.373  0.2026 -0.6164 -2.4592
14069TIP3   OH263697   2.226   4.770  12.014 -0.1626  0.1788 -0.3255
14069TIP3    H163698   2.151   4.829  12.017 -1.8040 -1.7887 -0.0160
14069TIP3    H263699   2.278   4.801  11.939 -2.4800  0.3058 -2.0053
14070TIP3   OH263700   2.720   5.363  11.643  0.0115 -0.3401 -0.3657
14070TIP3    H163701   2.677   5.417  11.709  2.6874  2.0491 -0.4388
14070TIP3    H263702   2.748   5.285  11.690 -1.4960 -0.4782  0.3690
14071TIP3   OH263703   1.654   4.158   1.826 -0.3577  0.0808 -0.4076
14071TIP3    H163704   1.598   4.080   1.828  1.0284 -0.9358 -0.2753
14071TIP3    H263705   1.617   4.213   1.757 -0.4774 -1.3599 -1.5140
14072TIP3   OH263706   4.144   5.642   1.735 -0.3755 -0.3761  0.3323
14072TIP3    H163707   4.098   5.693   1.667  0.5776  0.2662  0.1470
14072TIP3    H263708   4.119   5.684   1.817  0.0460  0.1295  0.2130
14073TIP3   OH263709   4.813   2.380  14.067  0.5032  0.2245  0.5249
14073TIP3    H163710   4.870   2.323  14.015 -0.1923 -0.3741  0.4014
14073TIP3    H263711   4.850   2.377  14.155  1.1688  0.5424  0.2616
14074TIP3   OH263712   4.956   4.149   4.499  0.0190 -0.0663  0.1478
14074TIP3    H163713   4.927   4.230   4.456 -0.1694 -0.0946  0.2211
14074TIP3    H263714   4.885   4.127   4.560  0.2376 -0.0829  0.3988
14075TIP3   OH263715   2.533   0.347   5.658  0.2377 -0.1902  0.3777
14075TIP3    H163716   2.506   0.438   5.649 -0.4079 -0.3930  0.2321
14075TIP3    H263717   2.610   0.339   5.601 -1.1081 -0.3329 -1.4974
14076TIP3   OH263718   4.034   4.861   4.788 -0.7366 -0.3439 -0.0843
14076TIP3    H163719   4.094   4.933   4.768 -1.8206  0.7352  0.4151
14076TIP3    H263720   4.063   4.828   4.874 -1.1585  0.5146  0.3979
14077TIP3   OH263721   1.475   4.339  13.532 -0.2510  0.7669  0.1001
14077TIP3    H163722   1.502   4.390  13.608  0.9984  0.2528  0.0195
14077TIP3    H263723   1.465   4.403  13.461 -1.6194  1.2754  0.7166
14078TIP3   OH263724   2.685   0.563  15.697  0.9773 -0.4563  0.1133
14078TIP3    H163725   2.652   0.474  15.694 -0.6757  0.0600  1.5327
14078TIP3    H263726   2.717   0.574  15.787  2.2936  0.0155 -0.3877
14079TIP3   OH263727   5.942   0.165  15.318  0.1937  0.4446  0.2532
14079TIP3    H163728   5.984   0.081  15.299  0.5714  0.4386  1.0899
14079TIP3    H263729   5.880   0.177  15.246  0.0385 -0.6134  0.1930
14080TIP3   OH263730   4.055   2.953   5.844  0.2285  0.1681 -0.2668
14080TIP3    H163731   4.031   2.971   5.753 -1.1338  1.5415  0.3206
14080TIP3    H263732   4.054   2.857   5.851  0.3499  0.0491 -1.6797
14081TIP3   OH263733   2.996   4.795  14.730 -0.3594  0.4693  0.4076
14081TIP3    H163734   2.987   4.702  14.749  0.7573  0.4353  0.8663
14081TIP3    H263735   2.993   4.837  14.816  0.8736  0.6832  0.3636
14082TIP3   OH263736   4.421   0.757   3.125  0.2916 -0.2684  0.1042
14082TIP3    H163737   4.370   0.676   3.135  0.6128 -0.4664  0.1697
14082TIP3    H263738   4.475   0.742   3.048  1.0926 -0.5248  0.6986
14083TIP3   OH263739   2.147   3.980  12.721  0.0163 -0.4569  0.1055
14083TIP3    H163740   2.134   4.024  12.637  1.5836 -0.2276 -0.0523
14083TIP3    H263741   2.059   3.966  12.755 -0.5892  1.2279 -0.6634
14084TIP3   OH263742   5.753   1.829  15.455  0.3059  0.2970  0.0508
14084TIP3    H163743   5.814   1.770  15.411 -0.4977  0.2010 -0.9848
14084TIP3    H263744   5.755   1.909  15.402 -0.6172  0.2118 -0.1220
14085TIP3   OH263745   1.782   5.879   4.232 -0.4689 -0.4057 -0.2331
14085TIP3    H163746   1.870   5.883   4.270 -0.7934  1.6046  0.4295
14085TIP3    H263747   1.797   5.883   4.137  0.1429  1.4548 -0.0877
14086TIP3   OH263748   3.801   4.342  15.775 -0.1966 -0.4388  0.3641
14086TIP3    H163749   3.785   4.422  15.823  0.0341 -0.5184  0.5791
14086TIP3    H263750   3.723   4.329  15.722 -0.6672 -0.6140  1.0880
14087TIP3   OH263751   4.894   4.251   2.839  0.2986  0.0499 -0.0990
14087TIP3    H163752   4.826   4.298   2.889  1.5414  0.2753  1.4569
14087TIP3    H263753   4.912   4.173   2.893  0.5749 -0.5302 -1.0174
14088TIP3   OH263754   0.230   6.007  13.198  0.3878  0.4454  0.1295
14088TIP3    H163755   0.198   6.077  13.141 -0.5098  0.3019  0.4456
14088TIP3    H263756   0.153   5.977  13.245  0.9801  0.0327  0.8604
14089TIP3   OH263757   0.030   3.465  12.576 -0.3083 -0.4384 -0.7809
14089TIP3    H163758   0.013   3.486  12.484 -0.1759  1.2145 -0.4671
14089TIP3    H263759  -0.051   3.427  12.607 -0.7321 -0.0059 -1.3254
14090TIP3   OH263760   2.482   2.730  12.903 -0.1492  0.2339  0.0729
14090TIP3    H163761   2.467   2.773  12.819 -1.5568 -1.0618 -0.3861
14090TIP3    H263762   2.446   2.790  12.968 -0.7374  0.4344 -0.4245
14091TIP3   OH263763   0.607   4.917   0.504 -0.1658  0.0947 -0.1798
14091TIP3    H163764   0.546   4.915   0.430 -0.6696 -0.9681  0.2386
14091TIP3    H263765   0.638   5.007   0.507 -0.9284  0.4037 -1.0431
14092TIP3   OH263766   4.071   2.682   0.169 -0.0172  0.4233 -0.7258
14092TIP3    H163767   4.079   2.772   0.198  0.6197 -0.5398  2.4972
14092TIP3    H263768   3.977   2.664   0.174  0.0425  0.3973  0.4363
14093TIP3   OH263769   5.499   5.872  13.027  0.1644  0.4244 -0.1554
14093TIP3    H163770   5.528   5.838  13.112 -0.3492  0.7156  0.1396
14093TIP3    H263771   5.456   5.799  12.984 -1.1930  0.7604  0.5967
14094TIP3   OH263772   2.636   3.474  11.930 -0.1872  0.2065  0.2100
14094TIP3    H163773   2.582   3.397  11.946 -2.0674  1.2620 -0.6917
14094TIP3    H263774   2.707   3.467  11.994 -0.4407 -2.1046  0.3236
14095TIP3   OH263775   3.819   3.291   0.298 -0.1503 -0.1514  0.2883
14095TIP3    H163776   3.904   3.247   0.302 -0.7733 -1.6138 -1.2619
14095TIP3    H263777   3.778   3.272   0.382  0.9135  0.3586  0.9572
14096TIP3   OH263778   6.191   2.657   2.329  0.0334  0.2084 -0.2095
14096TIP3    H163779   6.273   2.608   2.326  0.1644  0.4622 -0.7588
14096TIP3    H263780   6.141   2.614   2.398  1.0876  0.7741  0.9498
14097TIP3   OH263781   4.030   4.158   1.890 -0.5202  0.1474 -0.0056
14097TIP3    H163782   4.117   4.148   1.852  0.3170  1.8607  1.3254
14097TIP3    H263783   3.982   4.081   1.860  1.3334 -0.6684 -1.0614
14098TIP3   OH263784   0.794   3.645   4.783 -0.7280 -0.1741 -0.4917
14098TIP3    H163785   0.740   3.723   4.769  0.8013  0.6936 -1.9515
14098TIP3    H263786   0.884   3.677   4.781 -0.0531 -1.9704 -1.1880
14099TIP3   OH263787   1.614   1.416  12.497 -0.2127  0.0848 -0.4981
14099TIP3    H163788   1.550   1.409  12.425  0.2745 -1.1272 -0.8333
14099TIP3    H263789   1.643   1.507  12.494 -0.5041  0.1577 -1.5833
14100TIP3   OH263790   0.197   2.499  16.600 -0.4984 -0.9154  0.5017
14100TIP3    H163791   0.203   2.595  16.592 -0.1692 -0.9919 -0.2491
14100TIP3    H263792   0.288   2.471  16.610 -0.4489 -1.2725 -0.8329
14101TIP3   OH263793   0.659   4.172  17.045  0.0942 -0.8487 -0.1363
14101TIP3    H163794   0.730   4.204  17.100  1.8606 -1.5331 -1.8899
14101TIP3    H263795   0.643   4.242  16.982 -0.2813 -0.9834 -0.1942
14102TIP3   OH263796   5.096   2.538  11.541 -0.2043  0.3040 -0.3140
14102TIP3    H163797   5.137   2.580  11.465 -2.9847  2.0280 -1.0097
14102TIP3    H263798   5.015   2.500  11.506 -1.2073  0.5216  1.6294
14103TIP3   OH263799   4.872   2.508   0.645 -0.0283  0.5667  0.0893
14103TIP3    H163800   4.930   2.446   0.687  0.5612  0.9070 -0.2089
14103TIP3    H263801   4.928   2.557   0.585 -1.2759 -2.1015 -3.6815
14104TIP3   OH263802   6.374   0.965  14.380  0.4439  0.1662 -0.2833
14104TIP3    H163803   6.341   1.036  14.435 -2.7832  0.1748 -2.0318
14104TIP3    H263804   6.413   1.009  14.305  1.6797  0.0855  0.2835
14105TIP3   OH263805   2.144   3.546   2.176 -0.3711  0.4316 -0.0546
14105TIP3    H163806   2.153   3.504   2.090 -2.1570  0.5238 -0.3116
14105TIP3    H263807   2.103   3.630   2.158 -1.0804  0.3089  0.9074
14106TIP3   OH263808   3.209   4.700  10.565 -0.8999  0.2591  0.3552
14106TIP3    H163809   3.185   4.760  10.635  0.3945  4.1076 -2.1329
14106TIP3    H263810   3.278   4.645  10.603 -2.0254  0.3920  2.7526
14107TIP3   OH263811   3.073   2.064   6.339  0.6725 -0.3938 -0.0288
14107TIP3    H163812   3.046   2.154   6.357  1.3010 -0.3529  0.7395
14107TIP3    H263813   3.000   2.027   6.289  0.1052  0.3307  0.2434
14108TIP3   OH263814   0.184   1.217   2.998 -0.5116  0.1490  0.2651
14108TIP3    H163815   0.212   1.221   2.907 -1.9428  2.4228 -0.1490
14108TIP3    H263816   0.121   1.145   3.001  0.5949 -0.8764 -0.1661
14109TIP3   OH263817   5.440   0.025  15.203  0.0371  0.1640  0.4897
14109TIP3    H163818   5.499   0.019  15.127 -0.0787 -0.5496  0.4556
14109TIP3    H263819   5.484  -0.024  15.272 -1.7998 -2.9975 -0.3693
14110TIP3   OH263820   6.666   4.513   3.137 -0.2377  0.2975 -0.1971
14110TIP3    H163821   6.692   4.565   3.213 -1.5640  0.4027  0.2154
14110TIP3    H263822   6.636   4.578   3.074 -3.4181  0.0740  0.9040
14111TIP3   OH263823   5.100   4.258  13.820  0.0054  0.2235  0.4580
14111TIP3    H163824   5.011   4.224  13.828  0.2433 -0.5680 -0.1397
14111TIP3    H263825   5.096   4.317  13.745  0.3312 -1.0834 -0.6371
14112TIP3   OH263826   6.485   3.503   3.507  0.6852 -0.2049  0.5114
14112TIP3    H163827   6.477   3.567   3.437 -2.6028 -0.7597  0.2427
14112TIP3    H263828   6.499   3.420   3.463 -1.1824 -0.5245  0.4702
14113TIP3   OH263829   2.191   0.517  11.982  0.1505  0.0712  0.1980
14113TIP3    H163830   2.156   0.512  11.893  0.1069 -2.1069  0.2881
14113TIP3    H263831   2.244   0.597  11.983 -1.5462  1.2875 -1.1205
14114TIP3   OH263832   1.232   1.975   3.854 -0.0868 -0.1570 -0.2818
14114TIP3    H163833   1.181   2.053   3.874  1.7777  1.7209 -2.4103
14114TIP3    H263834   1.234   1.926   3.937 -2.5467  1.2224  0.7171
14115TIP3   OH263835   1.481   0.755   6.190 -0.6934  0.6036  0.0542
14115TIP3    H163836   1.415   0.718   6.248 -0.5190 -0.7103 -0.5548
14115TIP3    H263837   1.527   0.820   6.244 -0.8557 -0.2313  1.2286
14116TIP3   OH263838   5.851   4.736   2.707 -0.0096  0.0764 -0.5485
14116TIP3    H163839   5.761   4.761   2.726  0.5216  0.2211  2.2143
14116TIP3    H263840   5.843   4.665   2.644 -2.0621  0.0666 -0.3609
14117TIP3   OH263841   1.662   6.040   4.654 -0.7418 -0.1898  0.1583
14117TIP3    H163842   1.571   6.049   4.625 -1.4451  1.5127  2.5611
14117TIP3    H263843   1.659   5.975   4.724  0.3374 -1.7384 -1.1503
14118TIP3   OH263844   3.208   2.372   1.661 -0.0650 -0.2166 -0.0367
14118TIP3    H163845   3.155   2.298   1.692  0.7754 -0.7595  0.1494
14118TIP3    H263846   3.187   2.379   1.568  0.3966 -1.1833 -0.2309
14119TIP3   OH263847   3.299   3.436  11.996  0.3625  0.6582  0.3066
14119TIP3    H163848   3.245   3.399  12.066 -1.6491  1.2347 -0.8809
14119TIP3    H263849   3.247   3.424  11.917  1.4568  2.3140 -0.7167
14120TIP3   OH263850   3.406   6.092   3.149 -0.0696 -0.3296  0.1566
14120TIP3    H163851   3.335   6.117   3.090 -0.1071  2.3185  1.1898
14120TIP3    H263852   3.380   6.126   3.234  1.5880 -0.9843  0.9733
14121TIP3   OH263853   3.534   2.305  11.447 -0.0868  0.1116  0.3181
14121TIP3    H163854   3.608   2.295  11.506 -1.4453 -1.2348  1.9162
14121TIP3    H263855   3.476   2.232  11.469 -1.5887  0.7336 -1.3127
14122TIP3   OH263856   0.099   3.109  14.178  0.1563  0.0879 -0.2061
14122TIP3    H163857   0.039   3.115  14.103  0.3916 -0.2331 -0.4219
14122TIP3    H263858   0.091   3.019  14.208 -2.1527  0.9171  2.0149
14123TIP3   OH263859   1.502   3.247  17.059 -0.6370  0.4202  0.0454
14123TIP3    H163860   1.578   3.201  17.095 -1.0557  0.1275  0.5602
14123TIP3    H263861   1.527   3.340  17.063 -0.4573  0.3542  0.5716
14124TIP3   OH263862   6.017   6.221  15.191 -0.4825  0.5427 -0.0255
14124TIP3    H163863   5.937   6.188  15.151 -0.2659 -0.8742  0.6311
14124TIP3    H263864   6.003   6.212  15.286  0.5094  0.0805  0.0955
14125TIP3   OH263865   3.260   3.543   5.445  0.0970  0.2776 -0.2612
14125TIP3    H163866   3.203   3.467   5.430 -0.6065  0.5632  0.8233
14125TIP3    H263867   3.206   3.619   5.424 -0.8260  0.6759  3.0270
14126TIP3   OH263868   5.962   2.304   0.448  0.4285  0.3501 -0.2043
14126TIP3    H163869   5.909   2.225   0.458 -0.4474  0.7036 -1.7662
14126TIP3    H263870   5.945   2.355   0.528 -0.5754 -0.1298 -0.1055
14127TIP3   OH263871   0.058   4.273  12.238  0.0468 -0.1913  0.1979
14127TIP3    H163872   0.091   4.351  12.195  3.8781 -2.1937 -0.9912
14127TIP3    H263873  -0.032   4.264  12.206  0.9687  1.2810 -3.3510
14128TIP3   OH263874   4.699   6.722  15.247 -0.2761 -0.4560 -0.1015
14128TIP3    H163875   4.640   6.653  15.216 -1.8767  0.5215  0.6992
14128TIP3    H263876   4.644   6.781  15.298  1.3525  0.6270  0.4967
14129TIP3   OH263877   2.573   1.500  16.817 -0.5956  0.3373 -0.0971
14129TIP3    H163878   2.503   1.457  16.866 -1.6645  0.7852 -1.1963
14129TIP3    H263879   2.595   1.438  16.747  1.0183 -0.3589  0.9771
14130TIP3   OH263880   4.555   5.565   4.623 -0.2065 -0.2463  0.0931
14130TIP3    H163881   4.482   5.520   4.664  0.0586 -1.2108 -0.4523
14130TIP3    H263882   4.632   5.515   4.650 -0.1044 -1.5037 -2.2519
14131TIP3   OH263883   5.740   6.680   3.059 -0.1125  0.0061 -0.2924
14131TIP3    H163884   5.742   6.774   3.075 -0.4311  0.1634 -1.1367
14131TIP3    H263885   5.828   6.659   3.028  0.1167 -0.0770  0.3849
14132TIP3   OH263886   6.513   2.113  16.477 -0.0481 -0.0338 -0.0614
14132TIP3    H163887   6.508   2.104  16.572 -0.9086  0.7533 -0.0167
14132TIP3    H263888   6.424   2.137  16.450  0.6729  2.0563 -0.7935
14133TIP3   OH263889   5.319   4.261   1.585  0.3240 -0.0066  0.9601
14133TIP3    H163890   5.344   4.319   1.513  0.0068  0.4621  1.2215
14133TIP3    H263891   5.257   4.200   1.546 -1.8342  1.7994  1.3523
14134TIP3   OH263892   2.247   1.972  15.723  0.1310  0.0969 -0.4548
14134TIP3    H163893   2.223   2.010  15.638 -1.1351  0.8713  0.1972
14134TIP3    H263894   2.237   2.045  15.785  1.0602 -0.4421  0.3629
14135TIP3   OH263895   2.457   2.973  14.336  0.3526 -0.0416 -0.7792
14135TIP3    H163896   2.544   2.981  14.298  1.5486  3.1289  2.1982
14135TIP3    H263897   2.448   2.880  14.357  2.5810 -0.5994 -2.0153
14136TIP3   OH263898   3.462   5.823   5.667  0.0669 -0.3774  0.1364
14136TIP3    H163899   3.512   5.772   5.731 -1.1854 -1.6818  0.1215
14136TIP3    H263900   3.431   5.899   5.717  0.9999 -0.1991  0.4640
14137TIP3   OH263901   1.270   5.463  10.979  0.0512  0.2694 -0.1602
14137TIP3    H163902   1.348   5.514  10.960  0.2956  0.2458  0.7269
14137TIP3    H263903   1.257   5.409  10.901  1.2236 -0.1103 -0.1144
14138TIP3   OH263904   1.150   2.066   3.319  0.3025  0.1172  0.1647
14138TIP3    H163905   1.063   2.103   3.337  0.4563 -0.1004  1.4534
14138TIP3    H263906   1.200   2.083   3.399  1.9198  1.5329 -1.0690
14139TIP3   OH263907   3.829   3.365  12.844 -0.7508  0.5799 -0.0353
14139TIP3    H163908   3.854   3.391  12.755 -0.1208  0.1051 -0.0061
14139TIP3    H263909   3.810   3.272  12.838 -0.4145  0.4789  0.3811
14140TIP3   OH263910   0.114   6.158  15.610  0.2192  0.2128  0.4627
14140TIP3    H163911   0.104   6.226  15.543 -0.5805 -1.2883 -1.0322
14140TIP3    H263912   0.025   6.141  15.639  0.0290 -1.9542 -1.1093
14141TIP3   OH263913   3.582   6.406  14.641  0.2675  0.0778  0.2284
14141TIP3    H163914   3.536   6.358  14.710 -1.1853  0.6865 -0.2847
14141TIP3    H263915   3.630   6.338  14.592 -0.0698 -0.5670  0.7800
14142TIP3   OH263916   1.123   2.434  13.638  0.1734 -0.4220 -0.2607
14142TIP3    H163917   1.112   2.355  13.691  0.1992  0.3625  0.9334
14142TIP3    H263918   1.035   2.458  13.611 -0.3431  1.2846  2.5884
14143TIP3   OH263919   2.157   5.834  13.995 -0.2865 -0.1954 -0.1441
14143TIP3    H163920   2.071   5.809  14.029 -0.4263 -0.0012 -0.3596
14143TIP3    H263921   2.169   5.924  14.025  0.6825 -0.8491  1.5671
14144TIP3   OH263922   0.919   1.952  15.686 -0.4832 -0.3941  0.2268
14144TIP3    H163923   1.011   1.928  15.693 -0.4521  0.2744  2.9539
14144TIP3    H263924   0.884   1.892  15.620  1.6102 -1.4801  0.0256
14145TIP3   OH263925   1.225   5.099  11.086  0.2795  0.0863 -0.1867
14145TIP3    H163926   1.297   5.158  11.110  0.1981  1.2287 -2.5193
14145TIP3    H263927   1.261   5.011  11.099  1.3805  0.6224  0.6268
14146TIP3   OH263928   1.124   0.569   2.403  0.2943  0.2233 -0.1477
14146TIP3    H163929   1.195   0.628   2.428 -1.0562  1.3165  1.2888
14146TIP3    H263930   1.049   0.626   2.387 -1.0651 -1.0545  1.3223
14147TIP3   OH263931   0.360   5.229  16.902  0.2762 -0.3310  0.1742
14147TIP3    H163932   0.318   5.251  16.985  0.7942  0.1064  0.3305
14147TIP3    H263933   0.441   5.281  16.902  1.0868 -1.5529  0.1251
14148TIP3   OH263934   2.117   2.917  15.273  0.4834 -0.2378 -0.0427
14148TIP3    H163935   2.159   2.997  15.241 -0.6349  0.5677  0.4416
14148TIP3    H263936   2.024   2.936  15.272  0.2134 -1.4189  0.4319
14149TIP3   OH263937   3.916   5.111   3.486  0.1881  0.1142  0.4784
14149TIP3    H163938   3.992   5.122   3.429  0.6892  0.9287  1.2770
14149TIP3    H263939   3.953   5.098   3.573 -0.5744 -0.7234  0.6947
14150TIP3   OH263940   3.558   2.238   5.313  0.1440 -0.0266 -0.1872
14150TIP3    H163941   3.650   2.216   5.302  0.3662  0.3029  0.9183
14150TIP3    H263942   3.558   2.330   5.338 -0.4824 -0.0132 -0.2256
14151TIP3   OH263943   5.523   0.397   2.401 -0.2107 -0.2956  0.5785
14151TIP3    H163944   5.433   0.430   2.390 -2.1163 -4.2583  2.4266
14151TIP3    H263945   5.538   0.344   2.322  0.7894  0.7715  0.0277
14152TIP3   OH263946   5.297   5.104  12.918  0.0841  0.2859 -0.2460
14152TIP3    H163947   5.376   5.073  12.962 -0.7773  0.2248  1.2999
14152TIP3    H263948   5.322   5.189  12.882  1.1399 -0.1763 -0.6537
14153TIP3   OH263949   5.035   3.445  13.252  0.1710  0.6405 -0.3989
14153TIP3    H163950   4.970   3.399  13.305 -0.3318  0.0369 -1.4921
14153TIP3    H263951   4.994   3.452  13.165  1.3090  0.8284 -0.9370
14154TIP3   OH263952   3.979   1.448   6.034  0.1685  0.2383  0.3015
14154TIP3    H163953   3.988   1.479   6.124 -1.6647  0.2861  0.5120
14154TIP3    H263954   3.900   1.394   6.035  0.1022  0.2420 -1.2763
14155TIP3   OH263955   1.289   2.676  12.514  0.0129 -0.2673  0.6444
14155TIP3    H163956   1.242   2.692  12.596 -0.8086  0.3816  0.0541
14155TIP3    H263957   1.367   2.731  12.521 -1.2006  1.6228  0.0201
14156TIP3   OH263958   1.471   0.326  15.504 -0.3527  0.5723 -0.2186
14156TIP3    H163959   1.429   0.375  15.433 -0.5204  1.5341  0.5215
14156TIP3    H263960   1.400   0.304  15.563 -0.0949  0.4965  0.0623
14157TIP3   OH263961   0.961   0.524   5.948 -0.9357 -0.3723  0.1353
14157TIP3    H163962   0.876   0.482   5.937 -0.9657 -0.1910 -0.3460
14157TIP3    H263963   0.951   0.579   6.026 -1.5821  0.4426 -0.5172
14158TIP3   OH263964   5.401   5.173   3.905 -0.0079  0.2468 -0.0627
14158TIP3    H163965   5.446   5.181   3.821  0.4942  0.8724  0.2631
14158TIP3    H263966   5.470   5.166   3.970 -0.3997 -0.7686  0.2593
14159TIP3   OH263967   3.671   0.511  11.269  0.1416 -0.0968 -0.4472
14159TIP3    H163968   3.596   0.538  11.217 -1.1547 -0.4993  1.1237
14159TIP3    H263969   3.715   0.593  11.292 -2.2634  0.6525  2.1015
14160TIP3   OH263970   0.425   6.144  16.492  0.2578  0.8847  0.4441
14160TIP3    H163971   0.489   6.185  16.434 -0.1972  0.9202 -0.0404
14160TIP3    H263972   0.348   6.131  16.437  0.0951  0.1877  0.8359
14161TIP3   OH263973   6.784   3.021  12.114 -0.7214 -0.3243  0.1946
14161TIP3    H163974   6.780   2.955  12.046  0.0601  0.5587 -0.7375
14161TIP3    H263975   6.840   2.982  12.182 -0.6754 -0.8145 -0.1214
14162TIP3   OH263976   3.321   3.752  15.901 -0.1011  0.6793 -0.8002
14162TIP3    H163977   3.270   3.753  15.982 -0.0040 -1.3458 -0.6654
14162TIP3    H263978   3.411   3.770  15.929  0.0513 -0.7042 -0.3148
14163TIP3   OH263979   0.929   2.187   4.891  0.1632 -0.2130 -0.8132
14163TIP3    H163980   0.890   2.218   4.973  0.2103 -0.8807 -0.5265
14163TIP3    H263981   0.855   2.172   4.833  0.2155  1.5221 -1.3551
14164TIP3   OH263982   3.084   5.769  14.404  0.2129  0.1521  0.2154
14164TIP3    H163983   2.998   5.739  14.372  0.5014  1.5521 -2.1146
14164TIP3    H263984   3.073   5.863  14.418  1.6379  0.5708 -1.2536
14165TIP3   OH263985   2.605   2.464  11.968  0.2164 -0.1294 -0.6090
14165TIP3    H163986   2.686   2.413  11.970 -0.0682 -0.5760  1.3297
14165TIP3    H263987   2.556   2.435  12.045 -1.4747  0.6507 -1.3347
14166TIP3   OH263988   1.655   3.315   0.203 -0.3296 -0.0080  0.0754
14166TIP3    H163989   1.582   3.257   0.228  0.3958 -0.1972  1.9438
14166TIP3    H263990   1.692   3.344   0.287  0.6750  1.4642 -0.8337
14167TIP3   OH263991   2.803   5.221   1.338  0.1714 -0.2554 -0.2669
14167TIP3    H163992   2.812   5.185   1.250  0.7826 -0.6945 -0.0277
14167TIP3    H263993   2.741   5.163   1.382  1.2669 -1.1273  0.1651
14168TIP3   OH263994   4.092   1.931   1.352 -0.1759 -0.4713 -0.2598
14168TIP3    H163995   4.136   1.942   1.436  2.4675 -1.4700 -1.3912
14168TIP3    H263996   4.025   1.999   1.350  2.3906  2.2945  0.9878
14169TIP3   OH263997   2.055   5.346  16.406 -0.2519  0.2375 -0.0965
14169TIP3    H163998   2.094   5.432  16.392 -0.1287  0.3847  1.0043
14169TIP3    H263999   1.964   5.355  16.379 -0.8620  1.4029  2.0678
14170TIP3   OH264000   3.051   6.619   5.257 -0.1012  0.1997 -0.0980
14170TIP3    H164001   3.082   6.674   5.186  1.1344 -0.4002 -0.0484
14170TIP3    H264002   3.103   6.539   5.251 -0.8801 -0.3933  0.6836
14171TIP3   OH264003   4.634   0.397   1.688 -0.3841 -0.2867  1.0643
14171TIP3    H164004   4.723   0.414   1.719  0.1086 -1.0508  0.1233
14171TIP3    H264005   4.581   0.465   1.729  0.7990  0.8106  0.8442
14172TIP3   OH264006   4.672   4.952   1.995 -0.2623  0.6174  0.0682
14172TIP3    H164007   4.588   4.905   2.000 -0.2167  0.4171 -0.8836
14172TIP3    H264008   4.660   5.015   1.924  0.2583  0.8710  0.2047
14173TIP3   OH264009   4.645   5.854  16.575 -0.4053 -0.4059  0.0238
14173TIP3    H164010   4.676   5.763  16.575  0.1756 -0.2636  2.3021
14173TIP3    H264011   4.592   5.862  16.496  0.1355 -2.5150 -0.5974
14174TIP3   OH264012   4.867   5.081  10.899 -0.4348 -0.0846 -0.2254
14174TIP3    H164013   4.783   5.056  10.938 -0.7668  0.5587 -0.5119
14174TIP3    H264014   4.869   5.177  10.904 -0.0796 -0.0434 -0.9476
14175TIP3   OH264015   2.364   5.707  15.115 -0.1860 -0.3041  0.7457
14175TIP3    H164016   2.280   5.753  15.121 -0.8262 -0.8834 -2.1585
14175TIP3    H264017   2.365   5.648  15.191 -3.0962 -1.2621  0.1699
14176TIP3   OH264018   5.454   6.135   3.503 -0.2264  0.6225 -0.8884
14176TIP3    H164019   5.360   6.120   3.493 -0.3696  0.6744  0.2470
14176TIP3    H264020   5.489   6.050   3.530 -0.2224  0.9849  0.3280
14177TIP3   OH264021   1.092   3.569   5.311  0.0978 -0.4155 -0.1707
14177TIP3    H164022   1.133   3.501   5.258  0.0293 -0.8110  0.2675
14177TIP3    H264023   1.133   3.650   5.283  0.7852 -0.7420 -0.1190
14178TIP3   OH264024   0.967   6.754  12.208 -0.0658  1.1363 -0.4025
14178TIP3    H164025   0.958   6.760  12.113  1.1742  3.8836 -0.4360
14178TIP3    H264026   1.042   6.697  12.221  0.2739  1.4065 -1.1121
14179TIP3   OH264027   1.594   4.685   1.048 -0.2100 -0.3598 -0.0981
14179TIP3    H164028   1.636   4.719   0.969  0.6055  0.2795  0.6024
14179TIP3    H264029   1.507   4.658   1.018 -0.0523  0.2241 -1.1380
14180TIP3   OH264030   6.522   3.051   5.799 -0.4588  0.2555 -0.0829
14180TIP3    H164031   6.455   3.099   5.750 -0.5724  0.6578  0.4579
14180TIP3    H264032   6.601   3.061   5.746 -1.3540 -2.4759 -2.1334
14181TIP3   OH264033   5.709   1.703   5.613  0.1240  0.5010 -0.1907
14181TIP3    H164034   5.801   1.678   5.612  0.7222  2.5322 -1.1079
14181TIP3    H264035   5.708   1.793   5.647 -1.4434  0.7659 -0.8203
14182TIP3   OH264036   3.453   3.242   0.912  0.1003 -0.1662  0.3526
14182TIP3    H164037   3.399   3.164   0.923 -0.1753  0.0166  0.2930
14182TIP3    H264038   3.408   3.293   0.844  0.5140 -0.1657  0.0737
14183TIP3   OH264039   4.232   1.863   6.298  0.3694 -0.2469 -0.1266
14183TIP3    H164040   4.150   1.911   6.286  1.5359  1.6562 -1.0006
14183TIP3    H264041   4.227   1.827   6.387 -0.0972  2.6075  1.1011
14184TIP3   OH264042   4.803   6.500   5.148  0.3113  0.0734 -0.0773
14184TIP3    H164043   4.827   6.579   5.101  0.0431  1.3521  1.8224
14184TIP3    H264044   4.870   6.436   5.123  1.5038  1.4014 -0.3830
14185TIP3   OH264045   2.047   4.335  16.084  0.0687 -0.0317 -0.1294
14185TIP3    H164046   1.968   4.291  16.116  0.2985 -0.1406  0.2962
14185TIP3    H264047   2.103   4.343  16.162  0.3698  0.2722 -0.3742
14186TIP3   OH264048   3.636   6.666   0.654 -0.2472 -0.4577  0.0810
14186TIP3    H164049   3.693   6.732   0.614 -0.5436 -0.3183 -0.1223
14186TIP3    H264050   3.567   6.652   0.589 -0.1082 -1.0765  0.0688
14187TIP3   OH264051   5.536   3.126   2.735  0.2433 -0.3183 -0.1447
14187TIP3    H164052   5.504   3.216   2.731  2.8220  0.6916 -0.8461
14187TIP3    H264053   5.483   3.079   2.671 -1.4514  0.5572  0.5533
14188TIP3   OH264054   5.602   1.881   3.376  0.0024  0.3663  0.3135
14188TIP3    H164055   5.566   1.918   3.457 -0.7413  0.9602 -0.2813
14188TIP3    H264056   5.604   1.786   3.392 -0.7236  0.4299  0.7944
14189TIP3   OH264057   1.915   4.466  12.180  0.5229  0.2137 -0.2439
14189TIP3    H164058   1.884   4.556  12.178  1.1640  0.4493  0.2293
14189TIP3    H264059   1.970   4.457  12.101  0.2628  0.1581 -0.4213
14190TIP3   OH264060   6.466   2.784  15.505 -0.4828  0.1732  0.6407
14190TIP3    H164061   6.525   2.859  15.501  0.2853 -0.4478 -0.1240
14190TIP3    H264062   6.381   2.817  15.476 -0.0128  0.6162 -0.2472
14191TIP3   OH264063   6.810   2.078   3.214  0.4770 -0.3658 -0.7191
14191TIP3    H164064   6.901   2.049   3.200  0.8475  1.1528 -1.6252
14191TIP3    H264065   6.796   2.146   3.148 -0.6768  0.8202  0.6925
14192TIP3   OH264066   0.919   4.533   6.101  0.2219  0.0678  0.4037
14192TIP3    H164067   0.847   4.542   6.165  0.1055 -1.3295  0.4914
14192TIP3    H264068   0.961   4.451   6.124  1.9853  0.9409  0.4489
14193TIP3   OH264069   4.187   4.378  12.007 -0.3440  0.0785  0.5693
14193TIP3    H164070   4.218   4.441  11.942  0.2425 -1.2709 -0.4856
14193TIP3    H264071   4.193   4.293  11.964  1.6207 -1.0866  2.9213
14194TIP3   OH264072   4.409   1.224   1.133  0.2855 -0.5178 -0.2364
14194TIP3    H164073   4.412   1.270   1.217 -0.4357 -1.8079  0.5152
14194TIP3    H264074   4.413   1.131   1.156  0.4433 -0.8858 -1.6573
14195TIP3   OH264075   1.753   1.779   0.795 -0.5302 -0.8190 -0.0444
14195TIP3    H164076   1.710   1.760   0.879  0.5716 -1.2590  0.4386
14195TIP3    H264077   1.787   1.694   0.766  1.6022 -0.2143  0.4977
14196TIP3   OH264078   2.870   0.592  13.583 -0.0603  0.2677  0.4307
14196TIP3    H164079   2.953   0.619  13.623  0.2145  1.7485 -1.0014
14196TIP3    H264080   2.803   0.634  13.636  0.2660  1.5491 -0.1198
14197TIP3   OH264081   0.937   4.375  12.475 -0.1487  0.0150 -0.4593
14197TIP3    H164082   0.914   4.296  12.425 -2.2576  0.6970 -0.6300
14197TIP3    H264083   0.942   4.444  12.409  0.7689  0.2307 -0.1824
14198TIP3   OH264084   2.723   2.625   1.134  0.2868  0.0416  0.2624
14198TIP3    H164085   2.774   2.549   1.105  0.5171 -0.5981  2.2138
14198TIP3    H264086   2.762   2.650   1.218 -0.9521  1.1836  0.5326
14199TIP3   OH264087   1.800   1.693  16.004  0.3191  0.8587  0.6542
14199TIP3    H164088   1.758   1.637  16.070  2.9555 -0.5384  1.2622
14199TIP3    H264089   1.853   1.754  16.055  2.7414 -0.5246 -0.0935
14200TIP3   OH264090   5.399   0.494  14.180  0.2222 -0.4266 -0.4001
14200TIP3    H164091   5.390   0.405  14.147 -1.6939 -0.2348 -0.5171
14200TIP3    H264092   5.312   0.533  14.169  1.3267  1.9018 -1.6028
14201TIP3   OH264093   1.871   2.309  13.688 -0.5795  0.3642  0.1221
14201TIP3    H164094   1.855   2.370  13.615 -0.6298  0.6320  0.3535
14201TIP3    H264095   1.825   2.349  13.762  0.2315  0.5667  0.5243
14202TIP3   OH264096   3.386   0.073  11.963 -0.3144 -0.0616  0.2019
14202TIP3    H164097   3.417   0.141  11.902 -1.0774  0.2515  0.1490
14202TIP3    H264098   3.460   0.060  12.023  0.0311  0.4502 -0.0950
14203TIP3   OH264099   4.982   3.452  11.437  0.8610  0.6105 -0.0707
14203TIP3    H164100   5.005   3.543  11.418  1.4500  0.5788  0.4736
14203TIP3    H264101   5.037   3.428  11.511  2.7384 -1.0685 -1.8808
14204TIP3   OH264102   1.093   4.794   3.891 -0.2885 -0.0562 -0.0406
14204TIP3    H164103   1.108   4.872   3.945 -1.8473 -0.0940  0.5092
14204TIP3    H264104   1.132   4.815   3.806  1.1709  0.4676  0.7234
14205TIP3   OH264105   2.493   4.950   0.582 -0.3251  0.4255 -0.5948
14205TIP3    H164106   2.456   5.030   0.544 -1.9441 -0.0932 -0.1604
14205TIP3    H264107   2.418   4.902   0.617  0.9192  0.2717  2.1656
14206TIP3   OH264108   3.422   4.507   0.178 -0.4636 -0.0827  0.1638
14206TIP3    H164109   3.398   4.466   0.262  0.3472 -0.1692  0.3633
14206TIP3    H264110   3.342   4.504   0.126 -0.6807 -1.0345  0.5353
14207TIP3   OH264111   1.748   5.219  13.904  0.3391  0.2300 -0.0287
14207TIP3    H164112   1.665   5.178  13.930  0.2598 -0.7937 -1.7248
14207TIP3    H264113   1.810   5.146  13.902  1.1892  0.9168  0.7855
14208TIP3   OH264114   5.589   3.189   0.216  0.2450 -0.3846 -0.5670
14208TIP3    H164115   5.557   3.246   0.285 -1.8573 -1.1109 -0.8650
14208TIP3    H264116   5.677   3.221   0.197  0.3520  0.6802  1.4807
14209TIP3   OH264117   0.042   6.406  15.534 -0.2166 -0.8096 -0.7371
14209TIP3    H164118   0.044   6.454  15.616  0.6840 -1.7386 -0.1799
14209TIP3    H264119  -0.051   6.393  15.515 -0.4642 -2.4609  1.2940
14210TIP3   OH264120   5.081   2.761   3.296 -0.2374  0.5619  0.1675
14210TIP3    H164121   5.079   2.857   3.295 -0.9255  0.5487 -1.1399
14210TIP3    H264122   5.167   2.740   3.333 -0.9875  1.6417  2.7045
14211TIP3   OH264123   3.495   3.135   3.244  0.0545  0.2411  0.2253
14211TIP3    H164124   3.486   3.067   3.178 -0.0977  1.0533 -0.5983
14211TIP3    H264125   3.437   3.206   3.215 -1.7160 -0.2228  2.3317
14212TIP3   OH264126   2.786   2.330  11.577  0.3810  0.2733 -0.4101
14212TIP3    H164127   2.837   2.258  11.613 -0.0056  0.0459 -0.3027
14212TIP3    H264128   2.799   2.402  11.640 -1.5778 -0.6095  1.1332
14213TIP3   OH264129   2.001   0.677   0.538 -0.2250 -0.0813  0.2281
14213TIP3    H164130   1.927   0.667   0.598 -0.1816 -2.0690  0.0120
14213TIP3    H264131   1.965   0.719   0.461 -1.6370 -2.7396 -0.6674
14214TIP3   OH264132   6.378   0.459   2.454 -0.8952 -0.4840  0.2349
14214TIP3    H164133   6.285   0.454   2.430 -0.3940  0.1193 -2.0116
14214TIP3    H264134   6.385   0.540   2.504 -1.6573 -0.7920  0.8619
14215TIP3   OH264135   3.589   3.156   1.173 -0.5071  0.1157 -0.1996
14215TIP3    H164136   3.504   3.162   1.130 -0.7462  1.0752  0.3655
14215TIP3    H264137   3.628   3.076   1.139 -0.8301  0.6524 -1.9422
14216TIP3   OH264138   2.561   3.746   0.742  0.4299 -0.0381 -0.1970
14216TIP3    H164139   2.548   3.680   0.811  0.1822 -0.0484 -0.2525
14216TIP3    H264140   2.652   3.735   0.716  0.5404  0.0047  0.1718
14217TIP3   OH264141   1.221   4.184   3.771 -0.2062 -0.4049 -0.3367
14217TIP3    H164142   1.193   4.152   3.686  0.4873 -1.2657 -0.2512
14217TIP3    H264143   1.301   4.136   3.790 -0.2429 -0.0817  0.7140
14218TIP3   OH264144   0.153   6.026   6.159  0.2917  0.0029  0.0546
14218TIP3    H164145   0.139   6.003   6.251 -1.8429 -0.3100 -0.2973
14218TIP3    H264146   0.081   6.084   6.138 -0.3393 -1.4155 -1.9219
14219TIP3   OH264147   0.083   0.121   1.848 -0.5652  0.2211 -0.0827
14219TIP3    H164148   0.074   0.216   1.838 -0.4077  0.1999 -0.4234
14219TIP3    H264149   0.134   0.094   1.772 -1.8319 -0.3373 -0.7647
14220TIP3   OH264150   2.946   2.658  11.441  0.2706  0.9879  0.3700
14220TIP3    H164151   2.887   2.617  11.504 -0.1629  0.1429 -0.5531
14220TIP3    H264152   2.894   2.665  11.361 -0.0232  4.2901  0.7230
14221TIP3   OH264153   5.970   0.905   2.487  0.2755 -0.2533  0.9177
14221TIP3    H164154   6.055   0.947   2.506 -0.3514  0.1747  3.0718
14221TIP3    H264155   5.924   0.907   2.571 -2.0750 -0.0260 -0.3202
14222TIP3   OH264156   1.059   0.094  16.551  0.1393  0.0431 -0.3713
14222TIP3    H164157   1.139   0.137  16.581  0.5339 -0.2751 -0.9569
14222TIP3    H264158   0.989   0.139  16.598  0.6241  0.6426 -0.2072
14223TIP3   OH264159   2.370   0.516   0.088 -0.2778  0.5123  0.5749
14223TIP3    H164160   2.326   0.598   0.068  1.4473  0.8886 -2.1822
14223TIP3    H264161   2.344   0.457   0.017  1.8312  0.0821  0.0987
14224TIP3   OH264162   2.171   1.142   0.472  0.3743 -0.3410 -0.1778
14224TIP3    H164163   2.251   1.104   0.434 -0.7433 -2.3005 -0.7180
14224TIP3    H264164   2.132   1.192   0.400  0.0425 -1.1624 -0.5831
14225TIP3   OH264165   4.381   6.129  16.695  0.8956 -0.5129  0.3469
14225TIP3    H164166   4.376   6.225  16.704  0.0776 -0.4180 -0.8793
14225TIP3    H264167   4.330   6.110  16.617  1.2181 -1.9504  0.4637
14226TIP3   OH264168   2.458   4.804  11.435 -0.1698 -0.3023  0.0695
14226TIP3    H164169   2.493   4.884  11.395 -0.7264 -0.4658 -0.7638
14226TIP3    H264170   2.486   4.734  11.376 -0.8630 -0.5715  0.0594
14227TIP3   OH264171   1.458   3.993   2.383  0.1780  0.0979 -0.3159
14227TIP3    H164172   1.398   3.942   2.437 -2.2587  1.3071 -1.7213
14227TIP3    H264173   1.537   4.000   2.436 -0.9477 -1.4311  1.7129
14228TIP3   OH264174   5.864   3.380  15.196 -0.1010 -0.0292 -0.1559
14228TIP3    H164175   5.846   3.287  15.210  2.0543 -0.5067 -0.1251
14228TIP3    H264176   5.778   3.421  15.187 -1.0999 -1.9844  0.0636
14229TIP3   OH264177   2.456   1.631   0.865 -0.1616  0.0760 -0.3992
14229TIP3    H164178   2.547   1.637   0.894  0.1811  0.0617 -1.4507
14229TIP3    H264179   2.408   1.689   0.924  0.4137 -0.3958  0.5744
14230TIP3   OH264180   0.196   3.049   3.024  0.2136 -0.2198 -0.2938
14230TIP3    H164181   0.292   3.044   3.022  0.1547 -2.0473 -0.3111
14230TIP3    H264182   0.175   3.130   2.977  1.6580 -1.5310 -3.4571
14231TIP3   OH264183   2.822   4.997   0.036  0.3966 -0.0417 -0.3191
14231TIP3    H164184   2.774   5.044  -0.033 -0.4106  0.3219  0.4677
14231TIP3    H264185   2.754   4.948   0.083  0.8748  0.0192  0.4495
14232TIP3   OH264186   2.352   4.938  13.547 -0.5564 -0.1350 -0.3932
14232TIP3    H164187   2.291   4.985  13.603  0.1498  1.3364 -0.8295
14232TIP3    H264188   2.389   5.004  13.489  2.8535 -0.5675  1.0429
14233TIP3   OH264189   4.783   4.567  16.457 -0.5820  0.0105  0.6592
14233TIP3    H164190   4.689   4.553  16.447 -0.2813 -1.7451  0.0295
14233TIP3    H264191   4.818   4.482  16.482  0.9625  0.4176  0.0094
14234TIP3   OH264192   2.502   0.140   1.054  0.2407 -0.2331  0.2461
14234TIP3    H164193   2.504   0.181   1.140  0.5302  0.5042 -0.1002
14234TIP3    H264194   2.519   0.212   0.993  0.6651 -0.8564 -0.3865
14235TIP3   OH264195   0.103   6.081   4.447  0.1907 -0.4453  0.1545
14235TIP3    H164196   0.081   6.159   4.396  0.6913 -0.2960  0.1631
14235TIP3    H264197   0.030   6.071   4.508 -0.5907 -0.8270 -0.8124
14236TIP3   OH264198   1.978   3.645  13.539  0.7256 -0.3814 -0.2185
14236TIP3    H164199   2.007   3.736  13.534 -1.4529  0.5226  1.6122
14236TIP3    H264200   1.893   3.644  13.496 -0.3511 -0.9670  1.7858
14237TIP3   OH264201   2.384   5.613   2.701  0.2244  0.3556 -0.1976
14237TIP3    H164202   2.389   5.552   2.774 -1.7613 -0.1970 -0.4795
14237TIP3    H264203   2.380   5.558   2.623  0.4170  0.8939 -0.5951
14238TIP3   OH264204   0.558   5.491   2.072  0.3789 -0.1441  0.7742
14238TIP3    H164205   0.612   5.446   2.138  0.4590 -0.7900  0.2793
14238TIP3    H264206   0.524   5.568   2.118  2.0689  0.5302  0.9682
14239TIP3   OH264207   4.103   3.133  13.917 -0.2583  0.4518  0.2921
14239TIP3    H164208   4.058   3.117  14.000  0.2910  0.2015  0.5416
14239TIP3    H264209   4.032   3.153  13.855 -0.5964  2.1417  1.1560
14240TIP3   OH264210   3.320   4.755   5.558  0.1130  0.1436 -0.3228
14240TIP3    H164211   3.295   4.836   5.514  0.8371 -0.1361 -1.3116
14240TIP3    H264212   3.415   4.761   5.566  0.0951 -0.2869  0.2500
14241TIP3   OH264213   4.232   3.279  15.867 -0.0046 -0.0875  0.2316
14241TIP3    H164214   4.208   3.274  15.959 -1.6910  1.1555 -0.0730
14241TIP3    H264215   4.148   3.277  15.820  0.7547  0.1876 -1.2140
14242TIP3   OH264216   6.359   4.354  15.512 -0.1962  0.4633 -0.2410
14242TIP3    H164217   6.354   4.259  15.509  2.6381  0.2424 -1.7183
14242TIP3    H264218   6.446   4.373  15.549  0.0089  2.3776 -1.5245
14243TIP3   OH264219   1.896   5.806   5.353  0.7244  1.0613  0.4647
14243TIP3    H164220   1.885   5.762   5.269  0.5662  0.2439  0.9057
14243TIP3    H264221   1.970   5.762   5.394 -1.4885 -1.2085  2.3833
14244TIP3   OH264222   1.025   1.172  12.815  0.3235  0.7192 -0.1504
14244TIP3    H164223   1.075   1.109  12.763  0.0645  3.0797 -3.6027
14244TIP3    H264224   1.083   1.248  12.822 -1.6592  2.5628 -2.0611
14245TIP3   OH264225   6.144   5.660  15.443  0.2710 -0.4904 -0.3227
14245TIP3    H164226   6.130   5.739  15.495 -0.2478 -1.7659  1.5481
14245TIP3    H264227   6.062   5.611  15.451  0.9970 -1.7617 -0.5045
14246TIP3   OH264228   5.917   4.501  11.293  0.7145  0.5083 -0.5163
14246TIP3    H164229   5.958   4.452  11.222  3.3251  0.2876  1.0150
14246TIP3    H264230   5.944   4.592  11.278 -0.7590  0.8821 -1.0958
14247TIP3   OH264231   6.554   6.549  14.522 -0.6940 -0.2648  0.0435
14247TIP3    H164232   6.544   6.464  14.566 -1.2759  0.1166  0.6663
14247TIP3    H264233   6.635   6.585  14.558  0.0308 -0.9376 -0.8820
14248TIP3   OH264234   4.367   3.581  14.089  0.1703 -0.3235  0.0452
14248TIP3    H164235   4.331   3.493  14.076  0.1743 -0.3908  0.4847
14248TIP3    H264236   4.343   3.629  14.010 -0.1971 -0.5969 -0.0087
14249TIP3   OH264237   1.098   6.778  14.737 -0.4114 -0.1402 -0.1065
14249TIP3    H164238   1.077   6.687  14.758  0.4851 -0.1629  0.7505
14249TIP3    H264239   1.158   6.806  14.807 -1.0993  1.2779 -0.0510
14250TIP3   OH264240   4.314   3.704   2.818  0.6410 -0.1347  0.1593
14250TIP3    H164241   4.262   3.659   2.884  0.5840  1.3078  1.1330
14250TIP3    H264242   4.390   3.737   2.865  0.5630  0.9730 -0.4591
14251TIP3   OH264243   5.977   2.151   1.327 -0.3523  0.3888  0.4012
14251TIP3    H164244   5.953   2.224   1.271  1.5276  0.3647 -0.5159
14251TIP3    H264245   6.057   2.178   1.370 -0.7783 -0.3219  1.7016
14252TIP3   OH264246   0.869   6.606   6.839  0.6373  0.5070  0.1594
14252TIP3    H164247   0.861   6.683   6.782 -0.3815  0.4456  0.2009
14252TIP3    H264248   0.896   6.642   6.924  0.3904  0.8003  0.1161
14253TIP3   OH264249   1.892   0.933  12.068 -0.4597 -0.4001  0.1138
14253TIP3    H164250   1.816   0.908  12.120 -0.9217  0.7011  0.0016
14253TIP3    H264251   1.963   0.944  12.131 -0.4624 -1.1305  0.2533
14254TIP3   OH264252   3.353   1.641   1.023 -0.2216  0.4075 -0.3212
14254TIP3    H164253   3.372   1.570   0.961  1.2661 -0.1539  0.7305
14254TIP3    H264254   3.315   1.710   0.969 -0.1230 -0.5369 -1.6454
14255TIP3   OH264255   0.368   2.669   0.150 -0.1301 -0.4146  0.1983
14255TIP3    H164256   0.462   2.654   0.157 -0.0619  0.3738  1.0639
14255TIP3    H264257   0.343   2.624   0.069  0.8252 -1.3820  0.4136
14256TIP3   OH264258   2.176   5.618   0.862  0.2465 -0.3601  0.4210
14256TIP3    H164259   2.233   5.660   0.926  0.0118  0.4184  0.1373
14256TIP3    H264260   2.204   5.655   0.778  1.8147 -2.7572 -0.1843
14257TIP3   OH264261   3.681   1.033   5.915  0.4370 -0.1304 -0.0958
14257TIP3    H164262   3.774   1.035   5.892  0.5706 -0.1877  0.4310
14257TIP3    H264263   3.678   1.060   6.006  0.1571 -2.1175  0.5342
14258TIP3   OH264264   6.262   5.646   2.989 -0.0896 -0.0038 -0.0837
14258TIP3    H164265   6.177   5.662   2.948  0.6428 -0.0076 -1.6768
14258TIP3    H264266   6.253   5.682   3.078 -1.4996  0.6694 -0.4741
14259TIP3   OH264267   4.697   4.382   0.814  0.1432  0.1478 -0.5235
14259TIP3    H164268   4.790   4.403   0.822  0.5198 -1.5421 -0.2153
14259TIP3    H264269   4.675   4.407   0.724  0.9607  0.2874 -0.6956
14260TIP3   OH264270   0.016   0.106   4.243  0.1532 -0.4357  0.3535
14260TIP3    H164271  -0.001   0.199   4.255 -0.3186 -0.6037  0.9871
14260TIP3    H264272  -0.040   0.081   4.169  1.6034  0.1590 -1.0038
14261TIP3   OH264273   2.023   5.909   5.723  0.3382  0.2766 -0.0207
14261TIP3    H164274   1.992   5.961   5.649  1.9575  2.1592  0.5250
14261TIP3    H264275   2.006   5.818   5.698 -0.1141  0.9134 -2.2246
14262TIP3   OH264276   2.769   1.462   0.704  0.3100 -0.3109 -0.0429
14262TIP3    H164277   2.679   1.456   0.735  1.3528 -1.0881  3.3101
14262TIP3    H264278   2.808   1.530   0.760  1.9676 -0.4662 -0.9641
14263TIP3   OH264279   0.322   2.288   0.182 -0.1115 -0.0686 -0.4247
14263TIP3    H164280   0.389   2.350   0.152 -0.1540  0.1940  0.0137
14263TIP3    H264281   0.354   2.202   0.154  0.3223  0.0708 -0.3643
14264TIP3   OH264282   3.898   4.370   1.119 -0.4530  0.1843 -0.9775
14264TIP3    H164283   3.867   4.460   1.134 -0.4807  0.3007 -1.7096
14264TIP3    H264284   3.827   4.327   1.072 -0.4147 -0.2092 -0.6840
14265TIP3   OH264285   0.654   6.439   2.663 -0.1298  0.1820 -0.4198
14265TIP3    H164286   0.732   6.494   2.656 -1.4128  1.9912 -1.4176
14265TIP3    H264287   0.618   6.437   2.574 -0.9816 -0.9789 -0.0723
14266TIP3   OH264288   1.927   6.487  13.719 -0.3766 -0.1577  0.1131
14266TIP3    H164289   1.926   6.523  13.808 -0.7271  0.3716 -0.0992
14266TIP3    H264290   1.946   6.562  13.663 -0.7984 -0.3610 -0.3092
14267TIP3   OH264291   2.571   3.409   3.538  0.1886  0.0554  0.5514
14267TIP3    H164292   2.494   3.370   3.498  0.2876  0.5650 -0.1507
14267TIP3    H264293   2.643   3.351   3.513  0.0422 -0.4262  1.2158
14268TIP3   OH264294   0.802   6.320  16.511 -0.4309  0.3844  0.1916
14268TIP3    H164295   0.880   6.295  16.461 -0.6844  2.3444 -1.3255
14268TIP3    H264296   0.833   6.331  16.600  1.1522  1.4755 -0.4508
14269TIP3   OH264297   2.031   1.223   4.679 -0.7814  0.0203  0.2589
14269TIP3    H164298   2.018   1.220   4.584 -1.4687 -1.4042  0.3734
14269TIP3    H264299   1.959   1.278   4.711 -1.7182 -1.0981  0.1229
14270TIP3   OH264300   3.555   6.000  15.811 -0.0242  0.1495 -0.0162
14270TIP3    H164301   3.581   6.042  15.893  1.1242 -0.4216 -0.0659
14270TIP3    H264302   3.637   5.990  15.762 -0.6742  0.3586 -1.1824
14271TIP3   OH264303   4.251   1.982  14.543 -0.6391 -0.0166 -0.6421
14271TIP3    H164304   4.332   1.940  14.572 -0.7842 -0.0459 -0.2768
14271TIP3    H264305   4.192   1.974  14.618 -0.3341  1.7474 -0.1838
14272TIP3   OH264306   0.862   0.444  10.986  0.1432  0.4543  0.2989
14272TIP3    H164307   0.815   0.517  10.946 -1.0351 -1.1676 -1.4161
14272TIP3    H264308   0.794   0.385  11.017  1.0238 -1.1825 -0.7694
14273TIP3   OH264309   1.696   1.120  11.541  0.2446  0.7653  0.1477
14273TIP3    H164310   1.677   1.055  11.609 -0.8400  0.6180 -0.2648
14273TIP3    H264311   1.620   1.178  11.543  0.9292  1.6800  0.1054
14274TIP3   OH264312   4.161   2.011   5.389 -0.0608  0.3398  0.4710
14274TIP3    H164313   4.196   2.099   5.409  2.0128 -0.3866  0.2999
14274TIP3    H264314   4.206   1.985   5.309 -1.2177 -0.6068  0.1024
14275TIP3   OH264315   1.011   2.182   1.357 -0.1749 -0.0705 -0.0331
14275TIP3    H164316   1.039   2.215   1.442 -1.1865 -0.5775  0.5191
14275TIP3    H264317   0.980   2.259   1.310  2.8669  0.6827 -1.0274
14276TIP3   OH264318   2.286   0.678   2.118  0.0571  0.2579 -0.3229
14276TIP3    H164319   2.269   0.677   2.212 -2.1895 -2.7316 -0.6167
14276TIP3    H264320   2.231   0.748   2.084 -0.4487  0.2265  0.4090
14277TIP3   OH264321   0.470   4.771   0.752  0.0587  0.2693  0.1748
14277TIP3    H164322   0.482   4.865   0.748 -0.9223  0.4916  1.6386
14277TIP3    H264323   0.463   4.743   0.661 -2.6082  2.0287 -0.2637
14278TIP3   OH264324   5.600   3.374  11.317 -0.7118  0.3562  0.3729
14278TIP3    H164325   5.542   3.298  11.309 -0.3213  0.0483  0.4095
14278TIP3    H264326   5.555   3.433  11.376 -1.4024  0.5170 -0.3016
14279TIP3   OH264327   3.582   0.925   2.738 -0.2346  0.0802  0.2731
14279TIP3    H164328   3.506   0.983   2.743 -0.7810 -0.5080 -1.0019
14279TIP3    H264329   3.547   0.837   2.750  0.4833 -0.0886  1.3496
14280TIP3   OH264330   0.896   3.700   5.842  0.3179  0.2278 -0.3545
14280TIP3    H164331   0.889   3.604   5.844  1.7217  0.0303 -2.2157
14280TIP3    H264332   0.845   3.726   5.766 -0.7364  1.0887  0.6066
14281TIP3   OH264333   0.419   5.175  13.452  0.3394 -0.1115 -0.5692
14281TIP3    H164334   0.485   5.167  13.383  0.9036 -0.3924 -0.0001
14281TIP3    H264335   0.353   5.234  13.415  1.7980  1.6533 -0.4925
14282TIP3   OH264336   6.116   1.063  15.794 -0.4969 -0.2877  0.4743
14282TIP3    H164337   6.152   1.150  15.807  2.6019 -1.0920 -1.7110
14282TIP3    H264338   6.065   1.070  15.714  1.7032 -0.8777 -1.0653
14283TIP3   OH264339   5.031   3.365   4.558 -0.1351 -0.3333  0.1583
14283TIP3    H164340   4.979   3.338   4.482 -2.5316  2.0331  0.8024
14283TIP3    H264341   4.976   3.346   4.633  0.4566  1.0854  0.9862
14284TIP3   OH264342   2.623   0.664   1.768 -0.0169  0.4380  0.7755
14284TIP3    H164343   2.654   0.604   1.836  1.2898 -2.7766 -2.3404
14284TIP3    H264344   2.541   0.626   1.738  0.1653  0.9537 -0.4149
14285TIP3   OH264345   5.555   5.293   4.210 -0.0101  0.2377 -0.1441
14285TIP3    H164346   5.615   5.234   4.256 -1.8174 -0.6293  1.2257
14285TIP3    H264347   5.551   5.372   4.263  1.4180  1.1498 -1.3093
14286TIP3   OH264348   2.349   3.225  11.816 -0.1204  0.1958  0.0741
14286TIP3    H164349   2.287   3.288  11.854  1.7740  1.6804  0.8769
14286TIP3    H264350   2.304   3.190  11.739 -2.0889  0.9065  0.8315
14287TIP3   OH264351   4.368   4.072  15.790 -0.0772  0.2532 -0.3901
14287TIP3    H164352   4.428   4.047  15.720 -0.2983 -0.0996 -0.4581
14287TIP3    H264353   4.282   4.045  15.758 -0.2166  0.3645 -0.1092
14288TIP3   OH264354   3.294   6.794   0.369 -1.0488 -0.7692 -0.1805
14288TIP3    H164355   3.337   6.794   0.284 -0.0353 -2.0467  0.2922
14288TIP3    H264356   3.250   6.879   0.374 -1.1353 -0.6627 -1.9607
14289TIP3   OH264357   1.763   2.459  13.903  0.8490 -0.1754 -0.1166
14289TIP3    H164358   1.823   2.530  13.929  0.8724 -0.1961 -0.1133
14289TIP3    H264359   1.683   2.478  13.951  1.8180 -1.8575  2.3748
14290TIP3   OH264360   6.497   2.512  15.546  0.4100  0.2526 -0.0341
14290TIP3    H164361   6.496   2.606  15.525  1.7536  0.1129 -0.7956
14290TIP3    H264362   6.481   2.510  15.641  0.3682  1.2469 -0.0016
14291TIP3   OH264363   3.999   0.886  15.109  0.0365 -0.0880 -0.0976
14291TIP3    H164364   4.060   0.953  15.078 -0.9926 -0.0360 -2.1860
14291TIP3    H264365   3.913   0.929  15.107 -0.4633 -1.0674 -0.1168
14292TIP3   OH264366   3.348   2.867  12.088  0.1423  0.5302 -0.2191
14292TIP3    H164367   3.324   2.922  12.163 -1.2474 -0.4825  0.1051
14292TIP3    H264368   3.322   2.779  12.113 -1.0606  0.2648 -2.1516
14293TIP3   OH264369   5.307   3.200   3.926 -0.1714  0.0940 -0.0932
14293TIP3    H164370   5.298   3.174   3.835  0.3718  2.1104 -0.7696
14293TIP3    H264371   5.400   3.189   3.945 -0.4406 -1.2943  0.5768
14294TIP3   OH264372   5.363   0.371  11.855  0.2245  0.0993  0.0352
14294TIP3    H164373   5.304   0.354  11.782  0.2480  1.6674 -0.3934
14294TIP3    H264374   5.450   0.376  11.815  1.0834 -4.1467  0.9022
14295TIP3   OH264375   2.031   6.678   3.893  0.3591 -0.0985  0.1660
14295TIP3    H164376   1.965   6.665   3.961 -0.0461 -1.6844 -0.4959
14295TIP3    H264377   2.095   6.737   3.934 -0.6139  0.1666  1.3907
14296TIP3   OH264378   0.482   2.838  14.313 -0.1719  0.4043 -0.0764
14296TIP3    H164379   0.410   2.855  14.373 -0.9784  0.0476 -0.9150
14296TIP3    H264380   0.441   2.836  14.226  0.4035 -2.2249 -0.3823
14297TIP3   OH264381   0.917   4.790   5.756 -0.3020 -0.1917  0.5444
14297TIP3    H164382   0.987   4.734   5.721  1.8171  0.2466  3.6009
14297TIP3    H264383   0.932   4.876   5.716 -1.1999 -0.8257 -1.2651
14298TIP3   OH264384   0.556   4.663   1.922  0.4532  0.5170  0.1668
14298TIP3    H164385   0.478   4.702   1.883  0.6234  0.4686 -0.2251
14298TIP3    H264386   0.614   4.645   1.848 -0.8729 -3.4648 -0.1791
14299TIP3   OH264387   0.221   5.095   1.478  0.0169  0.3104  0.2526
14299TIP3    H164388   0.186   5.157   1.542  2.3833  2.1325 -0.0885
14299TIP3    H264389   0.277   5.036   1.529  1.2889  1.2802  0.0147
14300TIP3   OH264390   1.347   6.798   5.636  0.3550 -0.4507 -0.6507
14300TIP3    H164391   1.384   6.880   5.666  0.6871 -0.2539 -1.5779
14300TIP3    H264392   1.274   6.781   5.697  0.6428  0.2238 -0.1083
14301TIP3   OH264393   5.121   5.535   1.559 -0.4627 -0.2750 -0.4169
14301TIP3    H164394   5.181   5.504   1.627 -0.8204 -0.7743 -0.3252
14301TIP3    H264395   5.138   5.478   1.484 -0.1816  0.1718 -0.7027
14302TIP3   OH264396   0.947   2.149   4.271 -0.1567 -0.3794 -0.2482
14302TIP3    H164397   1.040   2.164   4.284  0.1254 -1.9583 -0.1987
14302TIP3    H264398   0.942   2.099   4.190 -0.7304 -2.1660  0.8212
14303TIP3   OH264399   5.047   6.308   0.183 -0.3778  0.4879 -0.5400
14303TIP3    H164400   5.090   6.393   0.182  1.0640 -0.1448  1.3274
14303TIP3    H264401   5.094   6.255   0.119 -1.2687  1.0520 -1.6941
14304TIP3   OH264402   5.832   3.300  14.131 -0.0891 -0.3372 -0.5776
14304TIP3    H164403   5.738   3.291  14.143 -0.0452 -0.3698 -0.2585
14304TIP3    H264404   5.849   3.261  14.045  0.0869 -3.2062  0.6753
14305TIP3   OH264405   1.602   6.179  13.664 -0.4605 -0.6954 -0.1402
14305TIP3    H164406   1.611   6.273  13.652 -1.9042 -0.5596 -0.3890
14305TIP3    H264407   1.690   6.144  13.653  0.3861  0.7736  1.4594
14306TIP3   OH264408   6.750   3.541  12.872  0.3155  0.2353 -0.3302
14306TIP3    H164409   6.832   3.585  12.852 -0.1224  1.5391  0.5941
14306TIP3    H264410   6.775   3.469  12.930  0.7752  0.9201  0.3440
14307TIP3   OH264411   3.721   5.372   2.456 -0.0259  0.0004 -0.1049
14307TIP3    H164412   3.732   5.457   2.413  1.9795 -0.2040 -0.0649
14307TIP3    H264413   3.681   5.317   2.389 -1.2138  0.9095 -0.1821
14308TIP3   OH264414   0.430   2.499   3.616 -0.5687 -0.0891  0.5943
14308TIP3    H164415   0.490   2.481   3.544  0.6679  1.3792  1.2073
14308TIP3    H264416   0.416   2.414   3.658 -2.2053 -1.2049 -1.9815
14309TIP3   OH264417   1.531   6.418   0.750 -0.1449  0.5941 -0.5644
14309TIP3    H164418   1.562   6.328   0.738  0.2322  0.5626  0.4822
14309TIP3    H264419   1.576   6.469   0.683  2.2561  0.5521  0.9278
14310TIP3   OH264420   5.201   6.046  11.794 -0.2836  0.3779  0.3627
14310TIP3    H164421   5.281   6.066  11.745  0.3626 -0.1601  1.1568
14310TIP3    H264422   5.222   6.069  11.885 -1.5490  1.6049  0.3735
14311TIP3   OH264423   2.994   1.036  13.885 -0.2210  0.7085  0.2477
14311TIP3    H164424   3.003   1.093  13.809 -1.5539  0.3400 -0.2134
14311TIP3    H264425   3.084   1.007  13.904  0.2271  1.4255 -0.6876
14312TIP3   OH264426   1.418   3.572   2.742 -0.9171 -0.0867 -0.3421
14312TIP3    H164427   1.343   3.618   2.704 -1.5369 -0.1868  0.7194
14312TIP3    H264428   1.379   3.505   2.798 -0.0297 -0.4172 -0.1045
14313TIP3   OH264429   3.202   2.263  16.771 -0.2827 -0.4763  0.8925
14313TIP3    H164430   3.277   2.263  16.832 -1.9454  0.6632  3.1071
14313TIP3    H264431   3.222   2.333  16.709  1.5936 -1.8444 -0.1417
14314TIP3   OH264432   4.695   6.097  12.203 -0.0401 -0.1462 -0.0731
14314TIP3    H164433   4.667   6.166  12.143  1.8547 -0.4199 -1.3844
14314TIP3    H264434   4.790   6.105  12.205  0.0685  2.1864  5.7822
14315TIP3   OH264435   6.417   2.755   4.405 -0.5719 -0.4024 -0.3437
14315TIP3    H164436   6.496   2.713   4.370 -0.6532  0.2771 -1.4079
14315TIP3    H264437   6.346   2.696   4.382 -0.2810 -1.6304  1.6981
14316TIP3   OH264438   4.859   2.581  13.895 -0.2647  0.0671 -0.2040
14316TIP3    H164439   4.819   2.513  13.951 -1.7498 -0.0762 -1.3856
14316TIP3    H264440   4.908   2.532  13.829  1.9000  0.2406  1.1488
14317TIP3   OH264441   3.003   3.133  10.387 -0.0872 -0.5052  0.3812
14317TIP3    H164442   3.020   3.131  10.293  0.0613  0.6480  0.3735
14317TIP3    H264443   3.056   3.060  10.422  1.2910  0.1609 -0.2221
14318TIP3   OH264444   6.168   6.322   4.988  0.6156 -0.2836  0.3167
14318TIP3    H164445   6.133   6.405   4.956 -2.2853 -1.0032  1.2690
14318TIP3    H264446   6.197   6.340   5.077 -0.0943 -0.2982  0.5533
14319TIP3   OH264447   0.305   0.137   4.856  0.3969  0.0822 -0.1652
14319TIP3    H164448   0.381   0.126   4.798  0.4603 -0.4390  0.0139
14319TIP3    H264449   0.323   0.217   4.905  0.9650 -0.1936  0.0794
14320TIP3   OH264450   6.686   3.841   1.751 -0.5765 -0.0103  0.4209
14320TIP3    H164451   6.695   3.913   1.813  0.7458 -0.0278  0.2767
14320TIP3    H264452   6.591   3.829   1.742 -0.8238  0.0043  2.4148
14321TIP3   OH264453   3.171   2.106   1.152  0.6028  0.4671  0.4454
14321TIP3    H164454   3.211   2.047   1.217  2.0817  1.6131  0.6287
14321TIP3    H264455   3.244   2.129   1.094 -0.7907 -1.0515 -2.0953
14322TIP3   OH264456   0.101   0.855  14.218  0.2450  0.4504 -0.0934
14322TIP3    H164457   0.093   0.861  14.123  0.4672 -0.5194 -0.1777
14322TIP3    H264458   0.016   0.822  14.247  1.5348 -3.5760 -0.3961
14323TIP3   OH264459   5.815   6.116  15.461 -0.3297 -0.1405 -0.2158
14323TIP3    H164460   5.804   6.030  15.419 -2.0033 -0.2477  0.3493
14323TIP3    H264461   5.885   6.104  15.524 -0.2229 -0.9574 -0.4791
14324TIP3   OH264462   1.008   3.170  11.833  0.0144  0.4657  0.0568
14324TIP3    H164463   1.090   3.130  11.803 -0.0480  0.5564 -0.2335
14324TIP3    H264464   1.001   3.252  11.784  0.4159  1.1043  1.0497
14325TIP3   OH264465   1.027   2.424  13.308  0.1006 -0.4895 -0.4096
14325TIP3    H164466   1.059   2.494  13.251 -0.1666 -1.5691 -1.9630
14325TIP3    H264467   0.988   2.469  13.382 -0.1005  1.0161 -1.3872
14326TIP3   OH264468   5.256   1.561  14.795  0.1621  0.2272 -0.2206
14326TIP3    H164469   5.350   1.560  14.778  0.3339  0.4824  0.6788
14326TIP3    H264470   5.248   1.563  14.890 -0.7666 -0.9682 -0.2416
14327TIP3   OH264471   2.765   1.123   1.339 -0.2653  0.3038 -0.2385
14327TIP3    H164472   2.855   1.120   1.371 -0.8874 -0.5481  1.5742
14327TIP3    H264473   2.757   1.048   1.280 -0.4455 -1.2086  1.6203
14328TIP3   OH264474   3.207   4.515  12.780  0.3277  0.5366 -0.4334
14328TIP3    H164475   3.223   4.474  12.695 -1.5283  0.3188 -0.7216
14328TIP3    H264476   3.198   4.608  12.761 -0.1933  0.4743 -0.4841
14329TIP3   OH264477   1.100   5.811  16.885  0.2038 -0.3579 -0.5823
14329TIP3    H164478   1.014   5.780  16.858  0.8754 -1.0302 -2.0315
14329TIP3    H264479   1.133   5.862  16.811  1.1468 -0.3027 -0.1512
14330TIP3   OH264480   0.180   0.705   2.748  0.1798  0.1900  0.6182
14330TIP3    H164481   0.211   0.662   2.828 -0.8895  0.3385  1.1404
14330TIP3    H264482   0.207   0.796   2.758  0.2027  0.1714  0.7288
14331TIP3   OH264483   5.997   0.037  16.334  0.3189  0.3184  0.2077
14331TIP3    H164484   6.063   0.106  16.325  0.4113  0.1235 -0.8028
14331TIP3    H264485   5.993   0.020  16.428  1.8393  0.2271  0.2928
14332TIP3   OH264486   1.350   0.729   0.508 -0.8482  0.1669  0.4192
14332TIP3    H164487   1.257   0.705   0.509 -0.5213 -1.3543  3.0467
14332TIP3    H264488   1.352   0.818   0.542 -1.4162  0.7030 -0.8993
14333TIP3   OH264489   5.324   1.562   5.989  0.1540  0.0969  0.5433
14333TIP3    H164490   5.359   1.508   5.919  0.4732  1.9903 -0.8423
14333TIP3    H264491   5.352   1.651   5.967  0.6509  0.7386  3.3132
14334TIP3   OH264492   2.729   1.975   1.754 -0.0842 -0.4504 -0.0209
14334TIP3    H164493   2.735   1.930   1.669  1.4724 -0.4610  0.0563
14334TIP3    H264494   2.819   1.972   1.788  0.0641  2.5790  0.0592
14335TIP3   OH264495   6.649   1.061  14.861  0.2317  0.4412  0.8354
14335TIP3    H164496   6.643   1.139  14.806 -0.6126  0.2839  0.6932
14335TIP3    H264497   6.632   0.988  14.802 -1.2516  0.3064  1.3977
14336TIP3   OH264498   5.186   1.299   3.953 -0.1129 -0.2807 -1.1581
14336TIP3    H164499   5.193   1.293   3.857 -0.4015  1.5771 -1.3354
14336TIP3    H264500   5.113   1.360   3.967  0.3538 -0.0330  0.2420
14337TIP3   OH264501   6.640   1.595  13.814  0.2459  0.5845 -0.5254
14337TIP3    H164502   6.570   1.655  13.841  0.2406  0.3257  0.0575
14337TIP3    H264503   6.713   1.615  13.873  0.0351 -0.3984  0.0974
14338TIP3   OH264504   2.832   4.214   3.817  0.5065 -0.2196  0.1455
14338TIP3    H164505   2.769   4.142   3.825  0.7923 -0.3221  1.7201
14338TIP3    H264506   2.804   4.277   3.883  1.9297 -0.1768  0.7360
14339TIP3   OH264507   0.310   4.862  12.525 -0.1777 -0.0931  0.3279
14339TIP3    H164508   0.386   4.909  12.559  0.7608 -0.3654 -1.3083
14339TIP3    H264509   0.320   4.865  12.430 -2.1443 -0.2744  0.0696
14340TIP3   OH264510   2.452   6.678  15.286 -0.1100 -0.2092  0.0589
14340TIP3    H164511   2.392   6.685  15.361  0.5292 -2.3213  0.8180
14340TIP3    H264512   2.395   6.657  15.212 -0.5872  0.5421  0.1925
14341TIP3   OH264513   1.669   0.856   0.582  0.4294  0.1275 -0.7184
14341TIP3    H164514   1.593   0.905   0.550 -0.5306 -1.5400 -1.1127
14341TIP3    H264515   1.741   0.883   0.525 -0.2250  0.5978 -1.3330
14342TIP3   OH264516   2.342   6.442   1.973  0.2521  0.1106 -0.1902
14342TIP3    H164517   2.364   6.524   2.017 -1.4818  1.2150 -1.2624
14342TIP3    H264518   2.265   6.463   1.921 -0.8658 -2.4813  0.2765
14343TIP3   OH264519   2.360   4.088  14.921  0.0229  0.7987  0.0368
14343TIP3    H164520   2.292   4.111  14.858 -0.6626  0.4194  0.6278
14343TIP3    H264521   2.321   4.019  14.974  1.3901 -0.4626 -0.5319
14344TIP3   OH264522   6.013   2.025  12.283  0.0915  0.0074  0.5556
14344TIP3    H164523   5.988   1.944  12.238  0.3838 -0.4238  1.1548
14344TIP3    H264524   6.020   2.000  12.375 -1.8844  1.1948  1.0817
14345TIP3   OH264525   5.302   3.705   2.970  0.1826 -0.4006  0.1844
14345TIP3    H164526   5.391   3.689   3.001 -0.6547 -2.0819  1.9715
14345TIP3    H264527   5.248   3.642   3.019 -1.9287  0.2393 -1.1811
14346TIP3   OH264528   5.313   3.077   4.489 -0.0444  0.6548 -0.3503
14346TIP3    H164529   5.249   3.043   4.426  2.1850 -0.2909 -2.2564
14346TIP3    H264530   5.367   3.137   4.437  2.1857 -0.5463  0.4856
14347TIP3   OH264531   5.732   2.771   5.249 -0.5767  0.2872  0.3077
14347TIP3    H164532   5.754   2.708   5.317 -0.6337  0.6825  0.6962
14347TIP3    H264533   5.790   2.748   5.176  1.3695  1.4622  1.4064
14348TIP3   OH264534   0.536   4.456   0.439  0.2569 -0.4364  0.5847
14348TIP3    H164535   0.625   4.464   0.473  0.8234 -2.7041 -0.1391
14348TIP3    H264536   0.493   4.393   0.496 -0.8796  0.5242  0.8427
14349TIP3   OH264537   4.944   0.694  10.728 -0.3235 -0.0268 -0.2432
14349TIP3    H164538   4.919   0.782  10.700  0.3698  0.6607  1.1706
14349TIP3    H264539   5.027   0.677  10.683  0.7852  1.0682  1.2903
14350TIP3   OH264540   6.534   4.021  13.150 -0.1359  0.3430  0.3747
14350TIP3    H164541   6.584   4.014  13.231 -2.8507 -0.1606  2.1659
14350TIP3    H264542   6.548   4.111  13.120  1.1393  0.4536  1.2446
14351TIP3   OH264543   4.636   5.034  11.696  0.3236 -0.6408  0.9162
14351TIP3    H164544   4.724   5.042  11.733  0.3739 -0.1247  0.6829
14351TIP3    H264545   4.583   5.000  11.769  0.3220  0.7935  1.6183
14352TIP3   OH264546   6.344   4.920   2.523  0.8234  0.3852 -0.2683
14352TIP3    H164547   6.333   4.825   2.517  1.9029  0.2048  0.3375
14352TIP3    H264548   6.304   4.943   2.607 -0.8707  0.7110 -1.1458
14353TIP3   OH264549   3.804   4.329  16.132  0.2317 -0.6822  0.3012
14353TIP3    H164550   3.789   4.271  16.207  0.7315 -1.3497 -0.1023
14353TIP3    H264551   3.758   4.410  16.154 -0.9298 -1.4139  0.6510
14354TIP3   OH264552   6.666   0.572  16.616 -0.0702 -0.4895 -0.0971
14354TIP3    H164553   6.707   0.498  16.661  0.5303 -0.2462 -0.2322
14354TIP3    H264554   6.573   0.566  16.640  0.3786  0.2782  2.0965
14355TIP3   OH264555   3.154   1.344  13.325  0.2750 -0.3990 -0.2048
14355TIP3    H164556   3.091   1.413  13.304  0.6594  0.3447  0.9773
14355TIP3    H264557   3.175   1.358  13.417  0.3931 -2.0897  0.0628
14356TIP3   OH264558   1.762   3.851   1.571 -0.5836 -0.5865 -0.0538
14356TIP3    H164559   1.749   3.944   1.552  1.1502 -0.4485 -0.7523
14356TIP3    H264560   1.791   3.849   1.662  2.2174 -0.0998 -0.8518
14357TIP3   OH264561   0.514   1.151  12.117  0.0462  0.5547 -0.0698
14357TIP3    H164562   0.488   1.064  12.146  0.1007  0.5133 -0.1452
14357TIP3    H264563   0.437   1.205  12.132 -0.6021  0.1407 -1.6144
14358TIP3   OH264564   1.992   0.251  16.957  0.0381 -0.0029  0.3483
14358TIP3    H164565   1.935   0.192  17.006  1.3287 -1.0370  0.6621
14358TIP3    H264566   1.943   0.272  16.878 -0.9222 -0.5642  0.7839
14359TIP3   OH264567   5.434   4.486  16.703 -0.5514  0.2685 -1.1269
14359TIP3    H164568   5.396   4.574  16.709 -0.7930  0.1528 -0.9226
14359TIP3    H264569   5.528   4.500  16.698 -0.5897  0.5399 -1.0797
14360TIP3   OH264570   1.951   3.349  11.283 -0.4746  0.1492  0.1045
14360TIP3    H164571   1.986   3.260  11.274  2.3626  1.1885  0.1892
14360TIP3    H264572   1.970   3.391  11.200 -0.5163  1.1011  0.5668
14361TIP3   OH264573   5.653   5.628   3.538 -0.4536  0.4370  0.4375
14361TIP3    H164574   5.678   5.582   3.618  0.4025 -0.6442 -0.4002
14361TIP3    H264575   5.611   5.560   3.484 -0.7566  1.0675 -0.1376
14362TIP3   OH264576   0.086   3.676   6.006 -0.3549 -0.6309 -0.5420
14362TIP3    H164577   0.078   3.718   5.920 -0.6537  2.5883  0.9382
14362TIP3    H264578   0.158   3.613   5.994  2.1584  2.2751 -2.2853
14363TIP3   OH264579   5.675   4.982   4.856  0.3003  0.0000 -0.2577
14363TIP3    H164580   5.666   5.069   4.816  1.7969 -0.3067 -1.3507
14363TIP3    H264581   5.600   4.975   4.915  0.0419  1.9524 -0.2897
14364TIP3   OH264582   6.641   5.540   5.542  0.4109 -0.1782  0.3754
14364TIP3    H164583   6.638   5.449   5.512 -0.6505  0.3227 -1.2269
14364TIP3    H264584   6.621   5.591   5.463  2.1793  1.5236  0.9542
14365TIP3   OH264585   6.610   5.709  15.248 -0.0820  0.2165  0.9373
14365TIP3    H164586   6.531   5.661  15.270  0.2524 -1.5382 -1.3112
14365TIP3    H264587   6.644   5.739  15.332 -3.0110  0.9183  1.9761
14366TIP3   OH264588   1.840   4.274  15.191 -0.1551 -0.5196  0.2511
14366TIP3    H164589   1.771   4.218  15.228 -0.7396 -0.3934 -0.6267
14366TIP3    H264590   1.795   4.326  15.124  0.8999 -0.7568 -0.6528
14367TIP3   OH264591   0.240   1.437   2.223 -0.2541  0.0707 -0.3153
14367TIP3    H164592   0.193   1.410   2.144 -1.1166 -0.8222  0.4698
14367TIP3    H264593   0.331   1.412   2.208 -0.2531  0.6546 -1.3419
14368TIP3   OH264594   1.507   0.012  13.323  0.4243  0.1988  0.1046
14368TIP3    H164595   1.551   0.025  13.239 -1.2264 -0.2678 -0.8963
14368TIP3    H264596   1.419   0.045  13.309 -0.0107 -0.2794  1.5309
14369TIP3   OH264597   1.652   1.539  10.165 -0.7122  0.2438 -0.3097
14369TIP3    H164598   1.682   1.483  10.236  0.7519 -2.2128 -2.6898
14369TIP3    H264599   1.717   1.609  10.160  0.6657 -1.0334 -0.8470
14370TIP3   OH264600   1.317   0.672  12.046  0.3825  0.0197  0.0332
14370TIP3    H164601   1.356   0.615  11.979 -0.0269 -0.6329  0.3331
14370TIP3    H264602   1.226   0.682  12.017  0.7047  1.3724 -0.5623
14371TIP3   OH264603   4.089   2.495  13.853  0.7707 -0.1379  0.0856
14371TIP3    H164604   4.050   2.426  13.907 -2.6046  1.0752 -0.5729
14371TIP3    H264605   4.160   2.452  13.806  0.5199 -2.4625  1.6653
14372TIP3   OH264606   6.792   5.665  13.368 -0.3343  0.0812  0.0820
14372TIP3    H164607   6.792   5.760  13.357  1.7271  0.0423 -0.8493
14372TIP3    H264608   6.809   5.652  13.461 -0.9911  0.6004  0.2868
14373TIP3   OH264609   3.235   1.417  15.832 -0.0773 -0.2804 -0.0075
14373TIP3    H164610   3.192   1.407  15.747  1.1660 -1.9954 -0.4881
14373TIP3    H264611   3.243   1.512  15.844 -1.1733  0.0120 -1.3166
14374TIP3   OH264612   4.973   5.150  14.531  0.0938 -0.2244 -0.1097
14374TIP3    H164613   4.922   5.073  14.505 -0.5556  0.8130 -2.0656
14374TIP3    H264614   4.984   5.140  14.626 -2.7871 -1.0529  0.2311
14375TIP3   OH264615   3.912   1.815   0.310  0.9507  0.0388 -0.1238
14375TIP3    H164616   3.949   1.902   0.300  1.9170 -0.1938  1.2469
14375TIP3    H264617   3.900   1.784   0.220 -0.2740  1.9073 -0.6665
14376TIP3   OH264618   0.755   6.210  13.362 -0.2720  0.0265 -0.1685
14376TIP3    H164619   0.839   6.168  13.381 -0.5936 -0.1356  0.9807
14376TIP3    H264620   0.773   6.304  13.366 -0.7020  0.0932  3.1930
14377TIP3   OH264621   5.760   4.051  12.753  0.5815  0.1645  0.3397
14377TIP3    H164622   5.727   3.961  12.744  0.7729  0.2464 -1.5819
14377TIP3    H264623   5.732   4.078  12.840 -3.8125 -0.0396 -0.7701
14378TIP3   OH264624   0.505   2.988   5.006 -0.2529 -0.4137  0.1381
14378TIP3    H164625   0.417   2.969   5.040 -0.3553  1.7222  1.2749
14378TIP3    H264626   0.563   2.964   5.078 -0.1432  0.5162  0.3729
14379TIP3   OH264627   0.038   3.945   4.989  0.0927 -0.6721 -0.0166
14379TIP3    H164628  -0.000   3.974   4.906  0.7352  0.4071  0.0454
14379TIP3    H264629  -0.028   3.968   5.054 -0.6499 -2.0102 -0.2570
14380TIP3   OH264630   3.497   0.638  12.747 -0.7252  0.0427 -0.3895
14380TIP3    H164631   3.453   0.696  12.809 -1.5799 -1.1495  0.1493
14380TIP3    H264632   3.431   0.620  12.681 -0.3986 -0.1621 -0.6599
14381TIP3   OH264633   3.983   2.963  11.361  0.1912 -0.7499  0.2457
14381TIP3    H164634   3.956   3.011  11.439 -0.6840  0.2256 -0.6214
14381TIP3    H264635   3.994   3.031  11.294 -1.4375 -1.7597 -1.1192
14382TIP3   OH264636   3.486   6.451   2.791  0.1972  0.5679 -0.1385
14382TIP3    H164637   3.529   6.390   2.850  1.5652  0.9757 -0.6794
14382TIP3    H264638   3.491   6.535   2.835 -0.0703  0.6133 -0.1933
14383TIP3   OH264639   0.238   6.496   1.515  0.1091  0.0673 -0.3327
14383TIP3    H164640   0.199   6.418   1.476 -2.0670  0.0082  1.6796
14383TIP3    H264641   0.320   6.466   1.554  0.0558 -0.8471 -0.9181
14384TIP3   OH264642   2.392   5.293   3.317 -0.2131 -0.7292  0.1635
14384TIP3    H164643   2.370   5.249   3.399  0.9596 -1.1226  0.2898
14384TIP3    H264644   2.485   5.311   3.324 -0.6031  1.6591  0.0304
14385TIP3   OH264645   5.086   1.474   4.872 -0.5238  0.4007  0.2805
14385TIP3    H164646   5.030   1.444   4.801 -0.9802  0.1435  0.7375
14385TIP3    H264647   5.029   1.527   4.927  0.2827  2.2096 -0.5403
14386TIP3   OH264648   2.823   6.017   4.986 -0.5657  0.0826  0.6203
14386TIP3    H164649   2.880   6.094   4.982 -2.0348  1.1816 -1.1918
14386TIP3    H264650   2.798   6.001   4.894 -4.4991  0.8163  1.3760
14387TIP3   OH264651   3.482   1.391   3.698  0.0906 -0.1950 -0.3865
14387TIP3    H164652   3.499   1.432   3.613 -1.4913  0.4430 -0.4234
14387TIP3    H264653   3.446   1.306   3.676 -0.8425  0.1892 -0.3785
14388TIP3   OH264654   2.019   6.555   5.469  0.2888 -0.1529  0.1274
14388TIP3    H164655   2.089   6.569   5.532 -0.1826 -0.7651  0.8065
14388TIP3    H264656   1.943   6.530   5.522 -0.3861  0.2829 -0.6079
14389TIP3   OH264657   5.563   5.628  11.736  0.2747  0.0456 -0.3966
14389TIP3    H164658   5.566   5.698  11.671  2.4311 -1.0744 -1.6373
14389TIP3    H264659   5.641   5.576  11.718  0.4892 -0.8338  2.5696
14390TIP3   OH264660   1.030   1.514   1.091  0.1058 -0.0475 -0.8388
14390TIP3    H164661   1.067   1.505   1.179 -1.2923  0.6325 -0.1391
14390TIP3    H264662   1.088   1.575   1.046  0.5121  0.0495 -0.1869
14391TIP3   OH264663   4.900   5.849   3.051 -0.1838  0.3184  0.4882
14391TIP3    H164664   4.922   5.767   3.007 -0.6172  0.3167  0.2665
14391TIP3    H264665   4.807   5.862   3.032 -0.4483  0.1900  1.5993
14392TIP3   OH264666   1.819   3.302  16.170 -0.3426 -0.4869 -0.0594
14392TIP3    H164667   1.860   3.380  16.208 -1.7479 -0.1336  0.8115
14392TIP3    H264668   1.821   3.237  16.240  2.5239 -1.9576 -1.3577
14393TIP3   OH264669   4.446   6.228  10.798 -0.2959  0.3597  0.0526
14393TIP3    H164670   4.458   6.162  10.729  0.9100  0.1996  0.3988
14393TIP3    H264671   4.520   6.215  10.857 -2.3917 -0.9280  2.6022
14394TIP3   OH264672   0.752   3.551  14.827 -0.5061 -0.1865 -0.2387
14394TIP3    H164673   0.673   3.585  14.869  0.5188  1.1174  0.7504
14394TIP3    H264674   0.741   3.573  14.734 -2.1900 -1.8711 -0.4820
14395TIP3   OH264675   5.110   0.608   1.907  0.4032 -0.4498  0.0904
14395TIP3    H164676   5.199   0.644   1.907 -0.2357  1.3832 -1.8628
14395TIP3    H264677   5.115   0.531   1.849  0.7931 -0.6101  0.3363
14396TIP3   OH264678   2.809   5.671   4.640  0.5783 -0.0808 -0.3759
14396TIP3    H164679   2.787   5.695   4.551  0.4134 -0.3074 -0.3962
14396TIP3    H264680   2.731   5.691   4.691  0.1279 -1.3567 -0.5317
14397TIP3   OH264681   0.379   4.532  16.006 -0.6980 -0.2592 -0.2163
14397TIP3    H164682   0.313   4.472  15.974  1.2187 -1.9636 -1.1779
14397TIP3    H264683   0.463   4.490  15.986  0.7085  1.5958  1.3003
14398TIP3   OH264684   2.767   3.277  14.276  0.2888 -0.4115 -0.2706
14398TIP3    H164685   2.686   3.298  14.323  0.8012 -1.3764  1.1069
14398TIP3    H264686   2.819   3.357  14.281 -0.5690  0.2376 -1.2218
14399TIP3   OH264687   5.715   5.021  11.250  0.1639 -0.1396  0.4949
14399TIP3    H164688   5.696   4.948  11.309 -1.0223  0.4820  0.9038
14399TIP3    H264689   5.653   5.011  11.178 -0.4534  0.8047  0.8696
14400TIP3   OH264690   6.536   5.421  12.724  0.2618 -0.2848 -0.5516
14400TIP3    H164691   6.532   5.396  12.817 -1.4133  0.8588 -0.2543
14400TIP3    H264692   6.477   5.497  12.718 -0.2050 -0.7634 -2.6944
14401TIP3   OH264693   2.753   4.269  17.086 -0.1489 -0.4710  0.5608
14401TIP3    H164694   2.728   4.176  17.089 -0.1385 -0.4440  2.9750
14401TIP3    H264695   2.815   4.274  17.012 -2.4624 -1.7183 -1.6278
14402TIP3   OH264696   3.463   4.369  17.146 -0.2303 -0.8908  0.3800
14402TIP3    H164697   3.420   4.447  17.110 -1.3414 -2.2002 -1.3448
14402TIP3    H264698   3.547   4.400  17.179 -0.5108  0.9769 -0.5451
14403TIP3   OH264699   6.599   3.577   2.650  0.1206 -0.8589  0.2855
14403TIP3    H164700   6.560   3.495   2.681  1.3921 -1.1328  1.2812
14403TIP3    H264701   6.619   3.561   2.558 -2.9271 -0.3593 -0.5488
14404TIP3   OH264702   3.624   2.745   4.645  0.0609  0.1477 -0.2264
14404TIP3    H164703   3.605   2.693   4.724 -0.0319 -1.8146 -1.4623
14404TIP3    H264704   3.673   2.820   4.677 -1.1490  0.1398  1.8559
14405TIP3   OH264705   3.922   4.674  13.321  0.2322  0.3585 -0.5823
14405TIP3    H164706   3.872   4.711  13.394 -1.3103  1.0442 -1.9255
14405TIP3    H264707   3.958   4.593  13.356 -2.1576 -0.3783  0.3771
14406TIP3   OH264708   1.215   6.086   5.583  0.1189  0.0378 -0.4478
14406TIP3    H164709   1.218   6.012   5.522 -2.1226  0.5137 -1.2104
14406TIP3    H264710   1.234   6.162   5.528 -1.0606  0.3758 -0.4129
14407TIP3   OH264711   1.016   6.308  13.048  0.1766 -0.1045 -0.1042
14407TIP3    H164712   1.063   6.263  13.118 -0.2672 -2.8667 -1.4459
14407TIP3    H264713   0.954   6.243  13.016 -0.9627  1.7243 -1.7931
14408TIP3   OH264714   1.775   5.970  12.761 -0.7719  0.2757  0.1084
14408TIP3    H164715   1.697   6.026  12.753 -0.5205  0.3473 -2.6532
14408TIP3    H264716   1.839   6.009  12.701  1.4116  0.1189  2.1671
14409TIP3   OH264717   0.450   2.345  15.418  0.4867  0.3984  0.0405
14409TIP3    H164718   0.463   2.263  15.370 -0.9732  0.7502 -1.0304
14409TIP3    H264719   0.459   2.320  15.510 -0.0316 -1.0135 -0.2577
14410TIP3   OH264720   3.103   3.614   0.835  0.2920  0.0393 -0.2171
14410TIP3    H164721   3.150   3.656   0.908  0.6703 -2.0140  0.7939
14410TIP3    H264722   3.035   3.677   0.811  0.4748  0.9829  1.5783
14411TIP3   OH264723   3.303   3.832   0.558 -0.2715  0.1167 -1.2456
14411TIP3    H164724   3.267   3.883   0.486  0.5288  0.9743 -1.0630
14411TIP3    H264725   3.247   3.853   0.633  0.5271  1.3880 -0.9792
14412TIP3   OH264726   5.560   5.747  13.762  0.1228 -0.6051  0.0667
14412TIP3    H164727   5.641   5.729  13.811 -0.5216 -1.3614  0.8803
14412TIP3    H264728   5.490   5.715  13.818 -0.8296  0.9781 -0.1777
14413TIP3   OH264729   6.495   2.571  13.343  0.7778 -0.6677  0.3155
14413TIP3    H164730   6.403   2.583  13.362  0.8487 -0.3532  0.4574
14413TIP3    H264731   6.534   2.544  13.426  1.2515  1.5912  0.8896
14414TIP3   OH264732   2.724   4.103   6.390 -0.6807 -0.1990  0.5881
14414TIP3    H164733   2.793   4.095   6.323 -1.4782 -0.4895 -0.2247
14414TIP3    H264734   2.771   4.127   6.470  0.4565 -1.1695  0.2435
14415TIP3   OH264735   1.767   0.349  12.468  0.2304 -0.5445  0.0504
14415TIP3    H164736   1.773   0.254  12.460  1.8722 -0.3740 -1.1887
14415TIP3    H264737   1.828   0.371  12.538  0.0453 -0.3748  0.1577
14416TIP3   OH264738   0.748   6.715  13.981  0.2065  0.4854  0.1143
14416TIP3    H164739   0.711   6.680  13.900  0.4421  0.2877  0.0879
14416TIP3    H264740   0.746   6.642  14.042 -2.6681  1.3862  1.2524
14417TIP3   OH264741   2.502   5.399  12.997 -1.0443 -0.1591  0.1054
14417TIP3    H164742   2.533   5.309  13.013  2.3295  0.7426 -0.5207
14417TIP3    H264743   2.510   5.410  12.902  1.7672  1.6743  0.4200
14418TIP3   OH264744   1.268   1.266  16.801  0.0744  0.4599  0.6182
14418TIP3    H164745   1.286   1.182  16.844  1.8453  0.6845  0.3751
14418TIP3    H264746   1.240   1.324  16.872  0.4641  0.1221  1.0525
14419TIP3   OH264747   2.794   4.532  15.053  0.0681 -0.0286  0.2645
14419TIP3    H164748   2.731   4.518  14.982 -1.0974  0.1257  1.2458
14419TIP3    H264749   2.765   4.612  15.095  0.6723 -0.1934  1.0057
14420TIP3   OH264750   0.407   6.041  14.179 -0.5612 -0.3019 -0.7545
14420TIP3    H164751   0.394   6.136  14.182 -0.0192 -0.2422  1.3375
14420TIP3    H264752   0.319   6.004  14.185 -0.6822  0.1353  3.7003
14421TIP3   OH264753   0.903   5.831   4.937  0.8178  0.3207 -0.3210
14421TIP3    H164754   0.810   5.808   4.943  0.8878  0.4085  3.3047
14421TIP3    H264755   0.948   5.747   4.932  0.6424 -0.1730  3.3954
14422TIP3   OH264756   1.219   4.742   1.990  0.6246  0.2148  0.3421
14422TIP3    H164757   1.223   4.764   2.083 -0.6382  0.8051  0.2710
14422TIP3    H264758   1.132   4.704   1.978  0.4968  0.8108 -0.7353
14423TIP3   OH264759   3.651   2.181  15.259 -0.0730  0.1160  0.3554
14423TIP3    H164760   3.705   2.234  15.317  0.6784  0.4666 -0.6258
14423TIP3    H264761   3.661   2.091  15.291 -0.3854  0.4034  1.2858
14424TIP3   OH264762   0.498   5.297  13.917  1.0115  0.1671 -0.6180
14424TIP3    H164763   0.515   5.378  13.868  1.3159  1.6260  1.7296
14424TIP3    H264764   0.403   5.297  13.931  0.9415 -0.1766 -1.0878
14425TIP3   OH264765   4.545   1.567   0.457 -0.2673  0.1451 -0.2318
14425TIP3    H164766   4.490   1.614   0.519 -0.7616 -1.1478  0.3379
14425TIP3    H264767   4.622   1.541   0.507 -0.6863 -0.9427 -0.1185
14426TIP3   OH264768   1.233   4.798  16.708  0.5386  0.1963  0.2357
14426TIP3    H164769   1.155   4.768  16.662  0.9196  0.8054 -0.8411
14426TIP3    H264770   1.303   4.739  16.680  0.7360  0.4570  0.1637
14427TIP3   OH264771   2.816   2.751  12.889  0.3720  0.1705  0.0999
14427TIP3    H164772   2.902   2.788  12.907  0.2732  0.4088  0.0825
14427TIP3    H264773   2.757   2.826  12.886  0.3015  0.0956 -0.6944
14428TIP3   OH264774   4.159   2.378  14.263  0.5231 -0.0383 -0.5016
14428TIP3    H164775   4.140   2.336  14.347 -1.1525  1.7624  0.0890
14428TIP3    H264776   4.177   2.469  14.285  2.5553 -0.0343 -1.8951
14429TIP3   OH264777   4.410   5.214   5.421  0.0107 -0.3692 -0.1311
14429TIP3    H164778   4.328   5.183   5.460 -0.6734  0.4405 -0.9081
14429TIP3    H264779   4.398   5.203   5.327 -0.3715  2.4425 -0.4772
14430TIP3   OH264780   6.487   0.821   4.214  0.5652  0.2400 -0.0967
14430TIP3    H164781   6.531   0.824   4.129  2.4674  1.8250  0.8627
14430TIP3    H264782   6.536   0.756   4.264 -1.1212 -1.3762 -0.4340
14431TIP3   OH264783   5.538   4.078   4.104 -0.4965 -0.0813 -0.3823
14431TIP3    H164784   5.627   4.104   4.127 -0.5875  0.5603 -0.7335
14431TIP3    H264785   5.545   3.986   4.079 -0.0740 -0.2581  0.3679
14432TIP3   OH264786   1.494   1.841  14.275  0.3673  0.2640 -0.5845
14432TIP3    H164787   1.538   1.764  14.310  0.6654  1.0139  0.7699
14432TIP3    H264788   1.430   1.806  14.213  1.4630 -0.9671 -1.0765
14433TIP3   OH264789   5.721   5.157  15.771 -0.1710  0.1432  0.3307
14433TIP3    H164790   5.667   5.236  15.774 -0.0108  0.2926 -0.5333
14433TIP3    H264791   5.677   5.100  15.707  1.6675  1.0365 -1.8686
14434TIP3   OH264792   1.454   3.041  16.030 -0.0969 -0.3144 -0.4827
14434TIP3    H164793   1.423   3.074  15.946  1.3230  0.3910 -0.7591
14434TIP3    H264794   1.535   2.995  16.010  1.1805  1.3025  0.6676
14435TIP3   OH264795   4.625   2.592   0.755 -0.0104  0.5324  0.3157
14435TIP3    H164796   4.670   2.625   0.833  1.2800  0.4929 -0.3758
14435TIP3    H264797   4.695   2.554   0.701 -1.1781 -1.8511  0.3246
14436TIP3   OH264798   0.686   0.467   0.863  0.5817  0.3605  0.1016
14436TIP3    H164799   0.748   0.501   0.798  0.0095  0.2207 -0.5196
14436TIP3    H264800   0.652   0.387   0.825  0.7631 -0.1026  0.8890
14437TIP3   OH264801   2.205   0.310  13.968  0.3791  0.2576 -0.2740
14437TIP3    H164802   2.230   0.398  13.938  0.6479 -0.3985 -2.1275
14437TIP3    H264803   2.126   0.290  13.918 -0.7327  0.1246  1.4641
14438TIP3   OH264804   4.550   1.773  11.657 -0.2552 -0.0816  0.3723
14438TIP3    H164805   4.616   1.809  11.598  0.2730  0.3611  1.2186
14438TIP3    H264806   4.471   1.822  11.636  0.2941  1.1220  1.0483
14439TIP3   OH264807   1.481   0.043   0.272  0.2394 -0.0548 -0.3141
14439TIP3    H164808   1.575   0.052   0.254  0.1971 -1.9778 -1.7409
14439TIP3    H264809   1.477   0.007   0.360  0.7820  1.0130  0.1664
14440TIP3   OH264810   6.765   0.569  15.091 -0.3142  0.8094  0.4868
14440TIP3    H164811   6.696   0.602  15.033 -0.2465  1.2034  0.6295
14440TIP3    H264812   6.786   0.643  15.148 -0.5215  0.3664  1.1482
14441TIP3   OH264813   1.380   0.423   6.130  0.2035  0.0535 -0.7947
14441TIP3    H164814   1.431   0.383   6.201  1.8631  0.5869 -1.6291
14441TIP3    H264815   1.326   0.489   6.174 -1.0268 -1.6249  0.3156
14442TIP3   OH264816   4.037   2.147  12.426 -0.8671  0.0103 -0.9604
14442TIP3    H164817   4.035   2.241  12.446  1.1421 -0.0648 -0.1931
14442TIP3    H264818   3.960   2.111  12.470  0.2162  0.7896  1.7375
14443TIP3   OH264819   3.656   3.957  17.038 -0.4409 -0.0845  0.4561
14443TIP3    H164820   3.582   3.959  16.977 -0.0681  1.8441 -0.0212
14443TIP3    H264821   3.634   4.024  17.103  0.1745 -0.6037  1.2107
14444TIP3   OH264822   5.346   4.294  11.125  0.4622 -0.5905 -0.4647
14444TIP3    H164823   5.257   4.277  11.093  0.1717 -1.5561  0.7974
14444TIP3    H264824   5.381   4.207  11.143  0.7203 -0.1031  1.5243
14445TIP3   OH264825   3.416   3.282   1.714 -0.0852  0.2684 -0.1060
14445TIP3    H164826   3.493   3.261   1.662  0.2006 -0.3602  0.5560
14445TIP3    H264827   3.442   3.360   1.764  0.7750 -0.9639  1.4377
14446TIP3   OH264828   1.537   4.894  12.278  0.3735  0.2331 -1.1164
14446TIP3    H164829   1.516   4.850  12.196 -1.1682 -1.9735  0.3412
14446TIP3    H264830   1.468   4.866  12.339  0.5476  3.0176  0.5612
14447TIP3   OH264831   6.335   1.434   4.765 -0.0656  0.3638 -0.3966
14447TIP3    H164832   6.343   1.488   4.843  2.9742 -1.3768  0.6765
14447TIP3    H264833   6.353   1.494   4.693  4.3895  0.8544  0.8287
14448TIP3   OH264834   1.522   2.784  14.962 -0.0762 -0.2571 -0.3293
14448TIP3    H164835   1.456   2.754  15.024 -0.7109 -0.5558 -1.1276
14448TIP3    H264836   1.501   2.876  14.945  1.4375  0.5032  1.5668
14449TIP3   OH264837   6.613   4.539   3.473  0.6069 -0.5669  0.2064
14449TIP3    H164838   6.559   4.577   3.543 -0.7920 -0.2982 -0.9590
14449TIP3    H264839   6.626   4.612   3.412 -0.8488 -1.4943 -1.3239
14450TIP3   OH264840   5.322   2.670   4.518  0.0990  0.2940 -0.5437
14450TIP3    H164841   5.368   2.747   4.553  1.3687 -0.6099 -0.1634
14450TIP3    H264842   5.391   2.611   4.490 -0.8071 -1.2458  0.3192
14451TIP3   OH264843   4.858   0.374   0.926  0.3639  0.3386 -0.5692
14451TIP3    H164844   4.915   0.351   0.853  0.8259 -2.4814  0.5423
14451TIP3    H264845   4.775   0.329   0.907  0.7653 -1.1560  0.9465
14452TIP3   OH264846   2.787   5.899   3.401 -0.0408 -0.3811  0.3553
14452TIP3    H164847   2.812   5.906   3.309 -1.0701 -2.7062 -0.1879
14452TIP3    H264848   2.694   5.924   3.402  0.0010 -0.2425  0.7904
14453TIP3   OH264849   5.527   3.547   5.274  0.0248  0.1444  0.8898
14453TIP3    H164850   5.436   3.577   5.274  0.2979  1.0249  0.6769
14453TIP3    H264851   5.522   3.453   5.256 -0.8768  0.0434  1.6035
14454TIP3   OH264852   3.440   0.896  13.979  0.0622 -0.4474  0.0925
14454TIP3    H164853   3.455   0.802  13.989  0.5264 -0.5201 -1.0565
14454TIP3    H264854   3.528   0.933  13.973 -0.1018  0.1533  1.1433
14455TIP3   OH264855   2.843   0.640   5.619  0.2806 -0.1530  0.0105
14455TIP3    H164856   2.805   0.658   5.532  1.9843  0.0696 -0.7264
14455TIP3    H264857   2.793   0.696   5.678 -2.1875 -1.6693 -0.4804
14456TIP3   OH264858   5.770   4.682   1.045  0.1133  0.0465 -0.8027
14456TIP3    H164859   5.714   4.737   1.099  0.3923  1.0314 -1.4991
14456TIP3    H264860   5.774   4.727   0.961  3.2626  0.9164 -0.3204
14457TIP3   OH264861   2.548   4.937   4.390 -0.1766  0.0511 -0.3114
14457TIP3    H164862   2.478   4.898   4.338 -0.2907  0.3598 -0.3911
14457TIP3    H264863   2.520   4.925   4.481  0.1267 -0.6853 -0.3054
14458TIP3   OH264864   6.407   0.681   4.765  0.2444  0.1549 -0.1781
14458TIP3    H164865   6.335   0.620   4.748  0.2831 -0.4394  1.5954
14458TIP3    H264866   6.363   0.764   4.787 -0.0143 -0.5194  2.1157
14459TIP3   OH264867   5.849   2.372  15.259  0.7917 -0.6076 -0.0522
14459TIP3    H164868   5.857   2.466  15.271  2.5924 -0.6804 -0.4198
14459TIP3    H264869   5.772   2.361  15.203 -0.6159  0.4823  1.5982
14460TIP3   OH264870   2.465   6.242  10.999 -0.1986 -0.2982 -0.0607
14460TIP3    H164871   2.396   6.232  10.933 -0.8664 -0.6116  0.6612
14460TIP3    H264872   2.524   6.307  10.962 -0.5697 -0.4477 -0.9551
14461TIP3   OH264873   2.556   2.430  13.841 -0.0625 -0.8437  0.0026
14461TIP3    H164874   2.467   2.395  13.852  0.8386 -2.8861  1.2371
14461TIP3    H264875   2.579   2.407  13.751 -1.7657  2.2947 -1.3997
14462TIP3   OH264876   2.172   3.760  14.183  0.3644 -0.3919  0.3940
14462TIP3    H164877   2.157   3.706  14.106  1.4637 -1.0190  0.5988
14462TIP3    H264878   2.112   3.726  14.249 -0.5732  0.1416 -0.1725
14463TIP3   OH264879   6.193   2.588  15.406 -0.0979  0.3275 -0.6604
14463TIP3    H164880   6.207   2.665  15.461  3.6132  1.0247 -2.2239
14463TIP3    H264881   6.223   2.515  15.460  2.2236  0.8423 -1.1271
14464TIP3   OH264882   2.959   5.034  15.202 -0.1706  0.0637  0.3535
14464TIP3    H164883   2.896   5.055  15.271  0.0347  0.4361  0.4323
14464TIP3    H264884   3.021   4.974  15.244  2.1996  3.1594  1.7434
14465TIP3   OH264885   6.239   3.010  14.614  0.0373  0.5281  0.0554
14465TIP3    H164886   6.271   3.097  14.638  1.1503 -0.4542  2.4299
14465TIP3    H264887   6.148   3.009  14.641  0.0474  0.9233  0.1043
14466TIP3   OH264888   0.679   1.582   4.203 -0.7664 -0.0501 -0.4323
14466TIP3    H164889   0.741   1.511   4.220  0.8170  1.5700  0.9637
14466TIP3    H264890   0.700   1.612   4.115 -0.5725 -0.4471 -0.5233
14467TIP3   OH264891   5.043   1.087  15.498  0.5615 -0.6647  0.4533
14467TIP3    H164892   5.007   1.146  15.564  0.6975 -0.7692  0.6244
14467TIP3    H264893   5.109   1.139  15.453 -0.0966 -0.3393 -0.1460
14468TIP3   OH264894   3.353   3.918  13.115  0.2014  0.2978  0.1480
14468TIP3    H164895   3.437   3.873  13.109  0.7334  1.2713  0.0607
14468TIP3    H264896   3.340   3.932  13.209 -0.4713 -0.9278  0.2610
14469TIP3   OH264897   5.505   3.911   2.550  0.2648  0.0504  0.5017
14469TIP3    H164898   5.521   3.980   2.614 -1.0422  1.8693 -1.0345
14469TIP3    H264899   5.589   3.903   2.503  0.4170  0.6265  0.6659
14470TIP3   OH264900   4.255   6.319   2.174 -0.7310 -0.1187 -0.0150
14470TIP3    H164901   4.181   6.272   2.135  0.2952  0.1712 -2.5030
14470TIP3    H264902   4.237   6.412   2.156  1.7573 -0.1378 -4.0594
14471TIP3   OH264903   4.214   5.921  13.018 -0.3333  0.2053  0.3667
14471TIP3    H164904   4.217   5.939  13.112 -0.0945 -0.0539  0.4091
14471TIP3    H264905   4.138   5.971  12.987  0.4886  1.5511  0.4275
14472TIP3   OH264906   4.141   2.142   5.052 -0.4706  0.6389  0.0513
14472TIP3    H164907   4.138   2.199   5.128 -1.4354  0.9614 -0.2194
14472TIP3    H264908   4.098   2.193   4.982 -1.0742 -0.2945 -0.2713
14473TIP3   OH264909   0.146   4.335   1.549  0.0261 -0.3261 -0.0019
14473TIP3    H164910   0.139   4.328   1.644  0.0296 -0.1266  0.0122
14473TIP3    H264911   0.225   4.284   1.528  0.3221  0.0581  0.1572
14474TIP3   OH264912   0.777   5.058  15.511 -0.2005  0.3341 -0.0660
14474TIP3    H164913   0.721   5.018  15.445  0.2249  0.8447 -0.7604
14474TIP3    H264914   0.850   4.997  15.521  1.0617  1.4264 -2.0039
14475TIP3   OH264915   3.427   6.523  14.155 -0.2909  0.5664 -0.6538
14475TIP3    H164916   3.472   6.538  14.238 -0.6707  2.4536 -0.7569
14475TIP3    H264917   3.497   6.525  14.090 -0.2238  0.9440 -0.5696
14476TIP3   OH264918   5.074   4.718  13.429 -0.3542  0.5964 -0.0980
14476TIP3    H164919   5.018   4.794  13.412 -2.5796 -1.2249 -1.5588
14476TIP3    H264920   5.026   4.668  13.495  0.8108  0.1537  0.4352
14477TIP3   OH264921   3.136   3.516   2.455 -0.0766 -0.0464 -0.5724
14477TIP3    H164922   3.076   3.509   2.380 -0.3943  0.4579 -0.3678
14477TIP3    H264923   3.149   3.610   2.467  2.4032 -0.1475 -1.9008
14478TIP3   OH264924   3.319   2.446  14.696 -0.3050  0.4272 -0.8635
14478TIP3    H164925   3.377   2.497  14.752 -0.1733  0.1512 -0.7457
14478TIP3    H264926   3.273   2.388  14.756 -0.5406  0.4894 -0.9837
14479TIP3   OH264927   3.323   5.004   4.615  0.7183 -0.3858  0.3271
14479TIP3    H164928   3.369   4.939   4.669  0.1124 -1.6586 -0.6483
14479TIP3    H264929   3.282   5.062   4.679  2.4650 -0.0660  1.2207
14480TIP3   OH264930   1.594   3.283  15.064  0.2270  0.1251 -0.4825
14480TIP3    H164931   1.623   3.289  15.155 -0.0725 -0.2268 -0.3609
14480TIP3    H264932   1.546   3.364  15.049  1.3953  0.7896 -0.7352
14481TIP3   OH264933   3.056   0.301  16.126  0.1589  0.3162 -0.9526
14481TIP3    H164934   3.016   0.260  16.202 -0.0171  0.6398 -0.8704
14481TIP3    H264935   3.134   0.247  16.108  1.0344  1.0860  0.3537
14482TIP3   OH264936   4.798   5.799  15.556 -0.3215  0.2797  0.1037
14482TIP3    H164937   4.843   5.752  15.626  0.9638 -1.0623 -1.5406
14482TIP3    H264938   4.798   5.738  15.482 -1.6925  1.6068 -1.0569
14483TIP3   OH264939   4.649   4.756   0.357  0.2612 -0.6929 -0.1534
14483TIP3    H164940   4.689   4.830   0.402  1.3735 -2.9161  2.9066
14483TIP3    H264941   4.723   4.701   0.332 -0.5033 -0.6770 -2.7283
14484TIP3   OH264942   4.680   6.183   2.411  0.0695 -0.6576 -0.3364
14484TIP3    H164943   4.595   6.227   2.402  0.3816  0.5859  2.0374
14484TIP3    H264944   4.740   6.251   2.440  1.1028 -2.1788  1.3280
14485TIP3   OH264945   6.066   6.405   6.559  0.5540 -0.3151 -0.3683
14485TIP3    H164946   6.007   6.330   6.549 -0.2920  0.2562  0.2358
14485TIP3    H264947   6.093   6.402   6.651  2.4066 -1.2374 -0.8947
14486TIP3   OH264948   5.700   6.726   2.091 -0.5677 -0.6672  0.2102
14486TIP3    H164949   5.759   6.795   2.123 -0.2876  0.8752 -3.2584
14486TIP3    H264950   5.621   6.736   2.144 -1.0215  3.2203 -0.8934
14487TIP3   OH264951   5.212   1.981   6.514 -0.1434 -0.2171  0.3967
14487TIP3    H164952   5.271   1.914   6.549  0.8505  0.3920 -0.0788
14487TIP3    H264953   5.253   2.008   6.432 -1.0463  0.2842  0.0963
14488TIP3   OH264954   0.384   0.386  15.496  0.2580  0.1547 -0.0741
14488TIP3    H164955   0.473   0.378  15.462  0.1402  0.5150 -0.4664
14488TIP3    H264956   0.391   0.447  15.569  0.6571 -1.2348  1.1075
14489TIP3   OH264957   0.306   6.585  14.113 -0.3212  0.4176  0.2509
14489TIP3    H164958   0.306   6.655  14.048  1.0803  0.9035  0.7256
14489TIP3    H264959   0.220   6.591  14.154  0.0151  2.4104  0.8100
14490TIP3   OH264960   4.983   2.107  12.949 -0.0947  0.2710 -0.0418
14490TIP3    H164961   4.924   2.036  12.927 -2.0726  1.7641  0.1433
14490TIP3    H264962   4.955   2.135  13.036  1.8925  0.0927  0.7132
14491TIP3   OH264963   2.241   2.784   5.273  0.2920  0.6905  0.4200
14491TIP3    H164964   2.191   2.855   5.314  0.8495  1.2062  0.2214
14491TIP3    H264965   2.175   2.726   5.235 -0.2747  0.0346  2.2760
14492TIP3   OH264966   3.291   1.582  14.466  0.5536 -0.3151  0.6331
14492TIP3    H164967   3.374   1.556  14.425 -0.3673 -2.9706  0.2675
14492TIP3    H264968   3.261   1.503  14.511 -2.2563  0.2533 -0.0810
14493TIP3   OH264969   2.248   0.365   1.155 -0.0297 -0.2959 -0.1758
14493TIP3    H164970   2.161   0.345   1.120 -0.3612 -0.3617  0.6650
14493TIP3    H264971   2.282   0.280   1.183  2.3089 -1.1769 -4.7523
14494TIP3   OH264972   1.608   4.728  14.640  0.1399 -0.0728 -0.5346
14494TIP3    H164973   1.665   4.654  14.661  0.1776  0.4104  1.1982
14494TIP3    H264974   1.611   4.734  14.545  4.5045  1.1050 -0.5391
14495TIP3   OH264975   1.679   4.389   3.462 -0.4255 -0.3665 -0.3966
14495TIP3    H164976   1.625   4.412   3.386  0.4904  0.6141 -0.7912
14495TIP3    H264977   1.624   4.408   3.538 -0.4372  1.2780 -0.7685
14496TIP3   OH264978   0.962   2.554   3.611 -0.7298  0.2005 -0.3175
14496TIP3    H164979   0.941   2.503   3.533 -1.5816 -2.8612  1.7280
14496TIP3    H264980   0.878   2.591   3.638 -0.5055  0.9365 -0.6065
14497TIP3   OH264981   3.938   6.104   4.550  0.0977  0.0045 -0.2460
14497TIP3    H164982   3.861   6.139   4.594  0.7354  1.6715 -0.3765
14497TIP3    H264983   3.905   6.065   4.469 -0.8592 -1.4422  0.7830
14498TIP3   OH264984   0.753   2.077  14.332 -0.0481  0.5486 -0.2162
14498TIP3    H164985   0.808   2.153  14.351 -1.7242  1.5674  0.8633
14498TIP3    H264986   0.722   2.092  14.243  0.5833  0.4976 -0.4494
14499TIP3   OH264987   2.179   3.701   2.581 -0.0148  0.0836 -0.3786
14499TIP3    H164988   2.205   3.793   2.586 -0.6079  0.1930  1.9984
14499TIP3    H264989   2.097   3.701   2.533  0.1310  0.7658 -0.6264
14500TIP3   OH264990   0.935   3.198   0.596  0.5067 -0.0496 -0.0892
14500TIP3    H164991   0.861   3.152   0.559  1.5869 -1.0778 -1.0324
14500TIP3    H264992   0.977   3.241   0.521  1.9084 -1.0067  0.1067
14501TIP3   OH264993   5.365   5.240  14.784 -0.2711 -0.5671  0.5504
14501TIP3    H164994   5.457   5.232  14.762 -0.4507 -0.7208 -0.1650
14501TIP3    H264995   5.320   5.249  14.700 -0.6575  2.1790  0.9581
14502TIP3   OH264996   3.782   5.572   0.037  0.3698  0.5955  0.3916
14502TIP3    H164997   3.704   5.516   0.043  1.0721 -0.2449  2.0800
14502TIP3    H264998   3.834   5.532  -0.033 -0.7933  1.3357 -0.9643
14503TIP3   OH264999   5.132   1.479   2.048 -0.1558 -0.4344  0.0640
14503TIP3    H165000   5.169   1.457   2.134  0.0866 -2.2333 -0.4741
14503TIP3    H265001   5.157   1.571   2.035 -0.0051 -0.1901  1.8055
14504TIP3   OH265002   3.310   4.991  13.454 -0.4188  0.2090  0.0025
14504TIP3    H165003   3.311   5.005  13.360  0.1756 -0.9953 -0.1905
14504TIP3    H265004   3.271   5.070  13.490  0.4774  1.2146 -1.1665
14505TIP3   OH265005   2.428   6.698  14.066  0.2816  0.0411  0.7020
14505TIP3    H165006   2.456   6.785  14.038 -0.1610  1.3192  3.7895
14505TIP3    H265007   2.488   6.675  14.136 -1.5400 -0.6670  2.1136
14506TIP3   OH265008   6.046   5.465   5.966  0.1322  0.4520 -0.1871
14506TIP3    H165009   6.104   5.403   6.010  1.4232  1.6159 -0.1728
14506TIP3    H265010   6.054   5.546   6.018 -1.2403  0.7466 -0.3989
14507TIP3   OH265011   1.385   6.201   5.352  0.3245  0.0214 -0.0520
14507TIP3    H165012   1.350   6.282   5.316 -0.5018 -0.8745 -1.3561
14507TIP3    H265013   1.452   6.174   5.290  0.9177 -0.0595  0.6163
14508TIP3   OH265014   6.578   1.119   5.213  0.4711  0.4174 -0.0387
14508TIP3    H165015   6.511   1.099   5.148  0.6548  0.4744 -0.2507
14508TIP3    H265016   6.530   1.131   5.295  0.2147  0.5280 -0.2018
14509TIP3   OH265017   6.619   2.945   0.474 -0.3810 -0.5447 -0.2023
14509TIP3    H165018   6.561   3.012   0.511 -1.8489 -0.7928 -1.9008
14509TIP3    H265019   6.698   2.992   0.448 -0.7833  0.2553  0.0145
14510TIP3   OH265020   1.494   3.573  13.909 -0.0085 -0.3136 -0.0828
14510TIP3    H165021   1.515   3.510  13.840  0.5664 -1.8516  1.4152
14510TIP3    H265022   1.560   3.642  13.899  0.5257 -0.8889 -0.6062
14511TIP3   OH265023   0.287   4.668   4.328 -0.0375 -0.8607  0.5172
14511TIP3    H165024   0.367   4.708   4.293 -0.2760  0.5076  1.4264
14511TIP3    H265025   0.255   4.611   4.258  1.7123 -1.4245  0.1284
14512TIP3   OH265026   0.953   3.294   3.089 -0.2075  0.3284  0.3156
14512TIP3    H165027   1.000   3.304   3.007  0.1379 -0.4156  0.4068
14512TIP3    H265028   0.982   3.209   3.122  0.6026  1.1467  1.8115
14513TIP3   OH265029   3.476   0.751   5.500  0.1381  0.1710 -0.2261
14513TIP3    H165030   3.382   0.745   5.482  0.2789 -0.3200 -0.8490
14513TIP3    H265031   3.482   0.773   5.593 -0.5718 -1.6964  0.2974
14514TIP3   OH265032   2.134   6.743  14.432  0.3425 -0.3524  0.9124
14514TIP3    H165033   2.108   6.706  14.517 -1.0691  0.2265  0.7430
14514TIP3    H265034   2.147   6.666  14.376  0.7165 -0.7117  1.4754
14515TIP3   OH265035   2.690   5.256  13.265 -0.0093  0.1475 -0.1594
14515TIP3    H165036   2.713   5.331  13.320  0.1492 -0.7382  1.0378
14515TIP3    H265037   2.752   5.259  13.193 -0.6165  1.7006 -0.6628
14516TIP3   OH265038   0.058   3.888  14.306 -0.2068  0.1555  0.4302
14516TIP3    H165039   0.052   3.948  14.380 -2.2311 -0.4226  0.7888
14516TIP3    H265040  -0.012   3.825  14.320  0.1036 -0.6662 -1.3851
14517TIP3   OH265041   6.281   5.640  14.993 -0.5167  0.2601  0.3145
14517TIP3    H165042   6.294   5.557  15.038 -0.7263 -0.6411 -1.2024
14517TIP3    H265043   6.187   5.645  14.978 -0.4190  0.3255 -0.3450
14518TIP3   OH265044   1.778   6.082   0.306  0.4479 -0.2241 -0.2523
14518TIP3    H165045   1.789   6.150   0.239 -2.1538  2.1175  1.4447
14518TIP3    H265046   1.707   6.027   0.272 -0.8119  0.9113  0.4356
14519TIP3   OH265047   5.275   3.867   4.116 -0.4821 -0.4147 -0.2506
14519TIP3    H165048   5.364   3.849   4.146  0.3261  2.8360 -0.3349
14519TIP3    H265049   5.226   3.884   4.197 -0.6572 -0.7244 -0.2894
14520TIP3   OH265050   4.050   2.790   2.109 -0.3345  0.8120 -0.7263
14520TIP3    H165051   3.995   2.816   2.183 -0.9151 -0.4423 -0.6825
14520TIP3    H265052   4.076   2.872   2.068 -0.7526  1.4975  0.3303
14521TIP3   OH265053   1.727   0.528   0.150 -0.4674  0.6610  1.0658
14521TIP3    H165054   1.762   0.616   0.140 -1.3937  0.9342 -0.0654
14521TIP3    H265055   1.644   0.540   0.197 -0.8018  0.4515  0.5392
14522TIP3   OH265056   3.876   3.027   5.621 -0.3356  0.4308  0.3969
14522TIP3    H165057   3.792   3.008   5.662 -2.2323  1.0346 -2.8711
14522TIP3    H265058   3.909   2.942   5.591 -0.1455  0.2950  0.9742
14523TIP3   OH265059   1.588   5.890   0.268  0.1237 -0.1373  0.2220
14523TIP3    H165060   1.564   5.842   0.189  0.3564  3.2360 -2.0736
14523TIP3    H265061   1.505   5.904   0.314 -0.9156  2.2640 -2.1761
14524TIP3   OH265062   4.821   1.692   0.031  0.1227 -0.1881  0.5051
14524TIP3    H165063   4.800   1.662  -0.057  0.8081  0.8306 -0.0235
14524TIP3    H265064   4.753   1.654   0.086 -0.1776 -1.0325 -0.4188
14525TIP3   OH265065   4.973   3.061  16.518 -0.2022  0.5756  0.2239
14525TIP3    H165066   4.951   3.150  16.546 -0.5353  1.0959 -1.6076
14525TIP3    H265067   5.066   3.065  16.497  0.3635 -0.1385  2.3187
14526TIP3   OH265068   2.904   1.771  13.170  0.4127  0.2481  0.0915
14526TIP3    H165069   2.822   1.793  13.126  0.2229 -1.6479 -0.5731
14526TIP3    H265070   2.918   1.843  13.232 -1.1595  1.1578 -0.5475
14527TIP3   OH265071   4.096   0.137   2.613 -0.1676  0.0720 -0.1283
14527TIP3    H165072   4.069   0.189   2.689  0.3352  0.8710 -0.4839
14527TIP3    H265073   4.138   0.060   2.651 -1.9812 -0.6902  0.4158
14528TIP3   OH265074   1.871   4.836   4.251  0.4739 -0.2551 -0.1373
14528TIP3    H165075   1.785   4.860   4.285  0.7698 -1.4529  1.6241
14528TIP3    H265076   1.869   4.861   4.159 -1.4635  0.4713  0.0623
14529TIP3   OH265077   4.507   4.957   2.348 -0.3833 -0.1849 -0.0368
14529TIP3    H165078   4.475   4.870   2.372 -0.1262 -0.1718  0.3711
14529TIP3    H265079   4.481   5.013   2.422  0.7848 -0.2277  0.4260
14530TIP3   OH265080   2.072   2.094  16.444 -0.0370 -0.3475  0.5851
14530TIP3    H165081   2.065   1.999  16.440  1.6426 -0.5362  1.2920
14530TIP3    H265082   2.027   2.117  16.526  0.9225 -0.7215  1.2375
14531TIP3   OH265083   3.796   1.391  12.034  0.7904 -0.4725 -0.7531
14531TIP3    H165084   3.882   1.366  11.999  0.0272 -1.9367 -1.7064
14531TIP3    H265085   3.734   1.358  11.969 -0.5747 -0.9250  0.7149
14532TIP3   OH265086   1.103   6.708   5.677 -0.2179 -0.0246 -0.4500
14532TIP3    H165087   1.050   6.628   5.681  0.5859 -0.6932 -2.1464
14532TIP3    H265088   1.072   6.753   5.598 -0.0533  0.9211  0.0047
14533TIP3   OH265089   1.840   0.871   2.822 -0.4666 -0.3775 -0.7496
14533TIP3    H165090   1.783   0.827   2.760  0.7604  0.8238 -2.8590
14533TIP3    H265091   1.923   0.823   2.817  0.2424  0.8921 -1.5362
14534TIP3   OH265092   6.486   6.116   4.711 -0.3693  0.5831  0.3308
14534TIP3    H165093   6.396   6.149   4.709 -1.5349 -1.7146  4.1331
14534TIP3    H265094   6.519   6.141   4.797  2.1960  0.1838 -0.4416
14535TIP3   OH265095   5.024   2.487   3.351  0.0807 -0.1234 -0.2968
14535TIP3    H165096   4.929   2.489   3.343 -0.1734 -0.7434  1.9703
14535TIP3    H265097   5.050   2.578   3.336 -0.8122 -0.0086 -1.2842
14536TIP3   OH265098   2.601   5.890   5.739  0.2772 -0.5923  0.3759
14536TIP3    H165099   2.605   5.941   5.658  0.5721  0.6275  1.1335
14536TIP3    H265100   2.510   5.860   5.743  0.0234  0.1068  0.0391
14537TIP3   OH265101   4.305   6.484  16.920 -0.5770  0.4400 -0.0358
14537TIP3    H165102   4.360   6.496  16.842  0.9443 -0.2961  0.8757
14537TIP3    H265103   4.367   6.468  16.990 -1.9360  0.7726  1.2923
14538TIP3   OH265104   0.932   1.002  11.076 -0.1449 -0.0569 -0.2112
14538TIP3    H165105   0.837   0.992  11.087 -0.0638 -0.4091  0.1977
14538TIP3    H265106   0.943   1.025  10.984 -0.8527  2.9735  0.3729
14539TIP3   OH265107   0.850   4.782  13.288 -0.4290 -0.0019  0.3161
14539TIP3    H165108   0.918   4.849  13.290 -0.9771  0.5614  1.1762
14539TIP3    H265109   0.768   4.831  13.287 -0.8562 -0.6519 -1.6858
14540TIP3   OH265110   1.913   2.700   6.091  0.3277 -0.3656  0.1281
14540TIP3    H165111   1.939   2.657   6.172 -0.3444 -0.6599  0.1919
14540TIP3    H265112   1.832   2.746   6.113  0.3093 -0.1872 -0.2967
14541TIP3   OH265113   6.398   1.057   5.024 -0.4166  0.2277  0.2892
14541TIP3    H165114   6.346   0.978   5.005 -0.0520 -0.6744  2.6857
14541TIP3    H265115   6.333   1.126   5.036 -0.8432 -0.0879 -0.1568
14542TIP3   OH265116   4.048   5.807  15.997 -0.3726 -0.3092  0.1095
14542TIP3    H165117   4.074   5.898  16.013 -0.9972  0.1766 -1.4157
14542TIP3    H265118   4.126   5.765  15.962 -0.4917  0.0620 -0.6190
14543TIP3   OH265119   2.638   3.569   1.863  0.2359  0.2544  0.6010
14543TIP3    H165120   2.728   3.586   1.835 -0.2271  1.4873 -0.2101
14543TIP3    H265121   2.583   3.605   1.793 -0.9337  1.3972  2.0215
14544TIP3   OH265122   3.677   1.833   3.326  0.1630 -0.1597 -0.3886
14544TIP3    H165123   3.641   1.760   3.377 -0.0713  0.4366  0.3172
14544TIP3    H265124   3.628   1.909   3.355  2.2018  0.7638  0.9046
14545TIP3   OH265125   3.730   2.611   4.260  0.1245  0.3587 -0.3553
14545TIP3    H165126   3.679   2.530   4.250  0.7588 -0.0201 -0.5584
14545TIP3    H265127   3.672   2.669   4.310  0.2685 -0.7900  1.2402
14546TIP3   OH265128   0.821   5.827  17.105  0.1582 -0.8149  0.4497
14546TIP3    H165129   0.885   5.776  17.155 -0.8734 -0.8731  1.7251
14546TIP3    H265130   0.799   5.770  17.031  2.2565 -0.4171 -0.5835
14547TIP3   OH265131   4.273   5.170  13.860 -0.1595 -0.6164 -0.2315
14547TIP3    H165132   4.254   5.261  13.837  0.1770 -0.7202 -0.9358
14547TIP3    H265133   4.192   5.137  13.898 -0.5605 -0.2893 -0.8056
14548TIP3   OH265134   2.597   3.528   2.594  0.3418  0.3674  0.3251
14548TIP3    H165135   2.627   3.438   2.583  2.5171  1.0588  0.1172
14548TIP3    H265136   2.667   3.581   2.557 -0.3282  2.1872  1.5451
14549TIP3   OH265137   2.943   0.407  11.895  0.3055  0.0266  0.0265
14549TIP3    H165138   2.967   0.459  11.971  0.7082 -1.5770  1.0348
14549TIP3    H265139   2.865   0.450  11.860  0.0777  0.7541  1.3752
14550TIP3   OH265140   6.239   2.218  16.957 -0.5107  0.0500 -0.2981
14550TIP3    H165141   6.240   2.142  17.015 -0.4195  0.2168 -0.0758
14550TIP3    H265142   6.166   2.271  16.989 -0.1787  0.3604 -0.0465
14551TIP3   OH265143   2.791   6.669  14.029  0.1799  0.3006 -0.0897
14551TIP3    H165144   2.787   6.700  13.939  1.0142 -1.3036 -0.7310
14551TIP3    H265145   2.748   6.583  14.026 -0.7555  0.6862  1.2852
14552TIP3   OH265146   5.643   1.479   0.817  0.4585 -0.6520  0.2596
14552TIP3    H165147   5.578   1.447   0.754 -0.6997  0.1267  1.0244
14552TIP3    H265148   5.657   1.571   0.793 -1.2191  0.1475  2.0602
14553TIP3   OH265149   5.286   0.426   2.192 -0.0517 -0.1325 -0.3144
14553TIP3    H165150   5.345   0.472   2.132  0.2399  1.0338  0.8184
14553TIP3    H265151   5.229   0.495   2.228 -1.7291 -1.1471 -0.9318
14554TIP3   OH265152   1.928   6.150  16.539 -0.0500 -0.6497  0.1677
14554TIP3    H165153   2.018   6.175  16.519  0.1337 -0.6802  0.9127
14554TIP3    H265154   1.919   6.166  16.633 -0.1281 -2.7194  0.5617
14555TIP3   OH265155   1.120   5.924   2.779  0.0851 -0.2423 -0.2798
14555TIP3    H165156   1.108   5.945   2.687 -2.4882  0.2001  0.0918
14555TIP3    H265157   1.047   5.865   2.800 -0.1560  0.7040  1.7624
14556TIP3   OH265158   2.525   4.723  13.310  0.0556  0.1353 -0.1024
14556TIP3    H165159   2.573   4.786  13.257 -0.5819  1.1812  0.5290
14556TIP3    H265160   2.550   4.638  13.274 -0.7496  0.7968 -2.4287
14557TIP3   OH265161   5.273   5.209   4.242 -0.2567  0.0021  0.2649
14557TIP3    H165162   5.318   5.261   4.176 -2.0500  1.1078 -0.1578
14557TIP3    H265163   5.311   5.121   4.233  0.1133  0.3131 -1.6887
14558TIP3   OH265164   3.363   4.697  13.999  0.2412 -0.4497 -0.1953
14558TIP3    H165165   3.313   4.701  13.918 -1.2463 -0.5083  0.6811
14558TIP3    H265166   3.345   4.609  14.033 -0.4403  0.1115  0.9556
14559TIP3   OH265167   5.007   1.108  12.826 -0.0347  0.1573  0.2569
14559TIP3    H165168   5.028   1.034  12.769 -0.2136  0.8266 -0.6987
14559TIP3    H265169   4.923   1.084  12.866 -0.0139 -0.2265  0.0747
14560TIP3   OH265170   2.578   2.769   4.510 -1.0177  0.6878  0.1561
14560TIP3    H165171   2.554   2.842   4.567  0.5420 -0.9665  3.1581
14560TIP3    H265172   2.671   2.756   4.527 -1.2021 -1.8265 -0.4647
14561TIP3   OH265173   4.879   1.199   1.202 -0.0015 -0.0055  0.1975
14561TIP3    H165174   4.801   1.238   1.162 -0.6206 -1.2734  0.1126
14561TIP3    H265175   4.937   1.181   1.128 -0.4833 -0.8960  0.0221
14562TIP3   OH265176   5.129   4.265   0.909 -0.0576  0.1124  0.3892
14562TIP3    H165177   5.112   4.273   1.003  1.3815 -0.5013  0.7362
14562TIP3    H265178   5.117   4.172   0.891  1.7360 -0.1701  0.4476
14563TIP3   OH265179   5.475   5.413   0.957  0.6152  0.9142 -0.4673
14563TIP3    H165180   5.383   5.436   0.971  0.3250 -0.5109  0.0928
14563TIP3    H265181   5.514   5.417   1.045  0.0732 -2.5983  0.0669
14564TIP3   OH265182   3.245   3.049  14.631  0.0676  0.0924 -0.1613
14564TIP3    H165183   3.154   3.072  14.616 -0.4275  0.2455  2.5289
14564TIP3    H265184   3.268   2.989  14.560 -1.9095  0.5882 -1.2538
14565TIP3   OH265185   4.204   4.015  16.787 -0.7247 -0.0672  0.0021
14565TIP3    H165186   4.154   3.939  16.816 -0.6310 -0.1249  0.0148
14565TIP3    H265187   4.287   4.008  16.834 -0.6413 -0.0641 -0.1457
14566TIP3   OH265188   3.074   6.762  11.279  0.2913 -0.7226  0.6069
14566TIP3    H165189   3.072   6.851  11.314 -1.5072 -0.4545 -0.1052
14566TIP3    H265190   3.166   6.749  11.253  1.0238  0.1498  2.5882
14567TIP3   OH265191   1.361   2.932   1.615 -0.3157  0.6854  0.1890
14567TIP3    H165192   1.340   2.868   1.683  0.1820  0.0291 -0.2616
14567TIP3    H265193   1.320   3.014   1.645  0.3364  0.5396  1.5237
14568TIP3   OH265194   1.069   2.689   2.960  0.4771 -0.8933 -0.0114
14568TIP3    H165195   1.051   2.615   3.019  1.5926  0.2746  1.8842
14568TIP3    H265196   0.997   2.750   2.974 -0.3052 -1.4456 -1.3861
14569TIP3   OH265197   2.724   3.093   5.661  0.8475  0.1183 -0.5512
14569TIP3    H165198   2.700   3.039   5.737  3.2948  1.5345  1.3844
14569TIP3    H265199   2.759   3.031   5.597 -0.3460 -1.0060 -0.1722
14570TIP3   OH265200   6.761   5.676   0.697  0.0287 -0.7087 -0.3026
14570TIP3    H165201   6.735   5.626   0.775  1.2023 -1.3368 -0.2851
14570TIP3    H265202   6.691   5.740   0.686  0.5351  0.4027  2.1532
14571TIP3   OH265203   5.382   5.500   1.552 -0.2536 -0.1634 -0.1829
14571TIP3    H165204   5.418   5.578   1.596  0.3539  1.0120 -2.5735
14571TIP3    H265205   5.307   5.533   1.503 -1.3255 -1.5557  0.4741
14572TIP3   OH265206   1.869   5.702  10.730 -0.0710 -0.1369  0.2170
14572TIP3    H165207   1.859   5.678  10.638  3.7610 -0.6353 -0.2240
14572TIP3    H265208   1.846   5.622  10.778  1.3951 -1.0984 -0.5899
14573TIP3   OH265209   2.044   3.124  11.132  0.5016 -0.7829 -0.1705
14573TIP3    H165210   2.075   3.071  11.205  1.5649 -0.1156 -0.1170
14573TIP3    H265211   2.123   3.156  11.090 -0.0420  1.7243  0.5188
14574TIP3   OH265212   4.175   0.608  13.749 -0.6534 -0.0459 -0.4109
14574TIP3    H165213   4.088   0.642  13.727 -0.8681  1.0400  1.7796
14574TIP3    H265214   4.177   0.520  13.713 -3.0458 -0.4561  0.2739
14575TIP3   OH265215   6.411   3.776   5.351  0.0697  0.7107  0.1713
14575TIP3    H165216   6.367   3.709   5.403  0.5500  0.8961  0.8217
14575TIP3    H265217   6.428   3.847   5.412 -0.6969  1.5652 -0.5782
14576TIP3   OH265218   0.568   2.815  12.928 -0.6886 -0.1866  0.2309
14576TIP3    H165219   0.560   2.726  12.892 -0.4243 -0.1331  0.0356
14576TIP3    H265220   0.479   2.848  12.932 -0.9459 -0.9720  1.5876
14577TIP3   OH265221   0.101   6.652   0.672 -0.2030 -0.4050  0.0610
14577TIP3    H165222   0.099   6.556   0.673 -0.5088 -0.4177  2.0322
14577TIP3    H265223   0.194   6.674   0.666 -0.0095 -0.8646  1.1325
14578TIP3   OH265224   5.395   1.495   4.864 -0.1900 -0.0139 -0.0737
14578TIP3    H165225   5.314   1.489   4.915  0.6023 -2.2408  1.0451
14578TIP3    H265226   5.366   1.487   4.773 -1.4668  2.4392  0.0191
14579TIP3   OH265227   0.575   5.127   1.017  0.1452 -0.0692 -0.2537
14579TIP3    H165228   0.660   5.135   0.974  0.3724 -1.2243 -0.0685
14579TIP3    H265229   0.517   5.093   0.949 -0.7213  2.6128 -0.9632
14580TIP3   OH265230   4.992   1.250   6.020 -0.0841 -0.1039  0.3862
14580TIP3    H165231   4.994   1.279   5.929 -0.7768 -0.1184  0.3616
14580TIP3    H265232   5.084   1.249   6.047  0.0154  1.3043  0.1375
14581TIP3   OH265233   0.808   3.965  13.723  0.1372 -0.5079  0.1229
14581TIP3    H165234   0.896   3.961  13.684 -0.5515 -1.6145 -1.4495
14581TIP3    H265235   0.783   3.873  13.733 -1.0446 -0.2017  0.0673
14582TIP3   OH265236   3.577   2.888  15.013 -0.4833  0.2763  0.2275
14582TIP3    H165237   3.630   2.874  14.935 -1.2286  0.1622 -0.2692
14582TIP3    H265238   3.490   2.909  14.979 -1.2469 -1.4074  1.0194
14583TIP3   OH265239   0.592   6.295  15.572  0.4728 -0.5492 -0.5296
14583TIP3    H165240   0.535   6.372  15.576  2.6486  1.0811  1.1568
14583TIP3    H265241   0.541   6.225  15.614  0.3394  1.4002  2.9642
14584TIP3   OH265242   4.732   1.015  11.203  0.3106 -0.0731  0.1483
14584TIP3    H165243   4.756   0.968  11.283  0.4320 -0.8756 -0.3543
14584TIP3    H265244   4.650   1.058  11.225  1.7425  2.1170  1.6599
14585TIP3   OH265245   4.311   3.275  15.046  0.4092  0.1212  0.1433
14585TIP3    H165246   4.235   3.278  14.988 -0.6529 -2.6050  1.2718
14585TIP3    H265247   4.385   3.294  14.988 -0.8942  0.7985 -1.4009
14586TIP3   OH265248   6.597   1.037   3.927 -0.4154 -0.1891 -0.7352
14586TIP3    H165249   6.515   0.998   3.897 -0.3658  0.6866 -2.1035
14586TIP3    H265250   6.639   1.068   3.847  1.1262 -0.3678 -0.0207
14587TIP3   OH265251   2.982   6.512   5.676 -0.5708  0.4422 -0.5008
14587TIP3    H165252   2.954   6.424   5.651 -2.2383  0.5965  0.6676
14587TIP3    H265253   3.046   6.536   5.609  1.6944 -2.5025  0.4059
14588TIP3   OH265254   5.592   1.999   6.008 -0.4791  0.3782  0.0474
14588TIP3    H165255   5.657   2.065   5.983  0.5983 -1.0872 -1.2008
14588TIP3    H265256   5.535   2.044   6.070  1.0721  2.0421  0.3412
14589TIP3   OH265257   5.781   4.545  14.316 -0.1036  0.3523  0.0290
14589TIP3    H165258   5.764   4.599  14.393  1.5335 -1.1616  1.5332
14589TIP3    H265259   5.697   4.538  14.272 -1.1203  1.1434  1.7640
14590TIP3   OH265260   2.094   2.244  14.231 -0.3981 -0.5696  0.2928
14590TIP3    H165261   2.061   2.174  14.287 -0.5862 -0.2453  0.5930
14590TIP3    H265262   2.121   2.200  14.150 -4.4986 -0.5247 -1.3033
14591TIP3   OH265263   4.412   1.429  11.958  0.4221 -0.0808 -0.1179
14591TIP3    H165264   4.426   1.337  11.933  0.9030  0.1055 -0.5426
14591TIP3    H265265   4.497   1.458  11.992 -0.1223 -0.2384  1.5026
14592TIP3   OH265266   0.890   5.001   4.100 -0.0487 -0.1793  0.0939
14592TIP3    H165267   0.982   5.011   4.074 -0.4808 -0.6210 -1.7442
14592TIP3    H265268   0.890   4.922   4.155  0.4320 -1.2698 -1.4011
14593TIP3   OH265269   6.445   4.069  14.920 -0.4840 -0.0084 -0.7815
14593TIP3    H165270   6.486   3.990  14.885  0.2971 -0.6103  1.3186
14593TIP3    H265271   6.366   4.080  14.867  0.2513 -1.2080 -2.2192
14594TIP3   OH265272   0.867   6.600  14.570 -0.0976 -0.0641 -0.1629
14594TIP3    H165273   0.938   6.549  14.531  1.2664  1.5474  0.0917
14594TIP3    H265274   0.798   6.600  14.503  0.3729 -1.1326 -0.6732
14595TIP3   OH265275   2.160   3.868  16.386  0.5774  0.1082  0.7083
14595TIP3    H165276   2.248   3.833  16.370  1.0396  1.3286  0.4771
14595TIP3    H265277   2.165   3.906  16.473  0.5226  0.8783  0.3845
14596TIP3   OH265278   5.023   6.280   0.498  0.5491 -0.1705  0.4553
14596TIP3    H165279   5.010   6.280   0.403 -0.1425  0.5111  0.5339
14596TIP3    H265280   4.993   6.367   0.525  1.5152 -0.0625  1.2016
14597TIP3   OH265281   5.703   1.987   4.268  0.5372 -0.1261 -0.1223
14597TIP3    H165282   5.758   1.916   4.237  0.5569 -0.5136  0.7891
14597TIP3    H265283   5.763   2.046   4.314  0.1810 -0.6915  1.1201
14598TIP3   OH265284   5.742   6.570   0.350 -1.1374  0.3076  0.1981
14598TIP3    H165285   5.728   6.554   0.443 -0.7633  0.5654  0.3014
14598TIP3    H265286   5.655   6.561   0.311 -1.0638 -1.2769  0.3406
14599TIP3   OH265287   5.018   0.141  14.270  0.2265 -0.3254  0.3158
14599TIP3    H165288   4.933   0.099  14.255  1.5676 -3.4687  0.6810
14599TIP3    H265289   5.078   0.093  14.213  2.4353 -0.9738  3.0119
14600TIP3   OH265290   4.724   2.222   0.258 -0.5102 -0.4513 -0.3023
14600TIP3    H165291   4.743   2.136   0.222 -0.6089 -1.2166  1.3730
14600TIP3    H265292   4.651   2.208   0.318 -0.0411  0.6315  0.5756
14601TIP3   OH265293   6.538   0.258   3.265 -0.2016  0.2208 -0.0614
14601TIP3    H165294   6.502   0.234   3.350 -0.3263  2.0479  0.4413
14601TIP3    H265295   6.627   0.287   3.284 -0.4672  1.3339 -0.4102
14602TIP3   OH265296   3.451   5.898   4.109  0.0819  0.2354 -0.4517
14602TIP3    H165297   3.415   5.832   4.168  2.4710  0.0627  0.9323
14602TIP3    H265298   3.476   5.850   4.031  0.7257 -0.3298  0.0874
14603TIP3   OH265299   5.184   3.862  14.580  0.0055 -0.1445 -0.3165
14603TIP3    H165300   5.275   3.854  14.611  0.5422  0.9890 -1.4989
14603TIP3    H265301   5.148   3.934  14.633 -0.9484 -1.9535  1.6760
14604TIP3   OH265302   5.165   3.777   0.112 -0.0407  0.2624 -0.0054
14604TIP3    H165303   5.125   3.826   0.040  1.1116  1.1699 -0.0472
14604TIP3    H265304   5.125   3.813   0.191  0.8113  1.3215 -0.0340
14605TIP3   OH265305   5.413   2.208   0.882 -0.0388  0.6350  0.4484
14605TIP3    H165306   5.413   2.252   0.797  0.6471  0.8749  0.5651
14605TIP3    H265307   5.480   2.254   0.933 -0.3275  0.3871  1.0613
14606TIP3   OH265308   3.859   6.694   5.097 -0.1474  0.2134  0.5294
14606TIP3    H165309   3.932   6.692   5.159  0.0438  0.7141  0.3257
14606TIP3    H265310   3.857   6.605   5.060 -0.7433 -0.3227  1.7863
14607TIP3   OH265311   4.071   6.801   0.234 -0.0353  0.6714  0.1248
14607TIP3    H165312   3.988   6.846   0.247 -0.0497  0.3594  1.2177
14607TIP3    H265313   4.047   6.709   0.223  0.1262  0.6524 -0.0693
14608TIP3   OH265314   4.280   1.811   0.205 -0.0162 -0.2833 -0.3786
14608TIP3    H165315   4.292   1.777   0.294 -0.7309  0.5816  0.0664
14608TIP3    H265316   4.265   1.905   0.217  1.0272  0.0657 -1.5031
14609TIP3   OH265317   5.364   5.728  16.722  0.0378  0.1159 -0.4317
14609TIP3    H165318   5.274   5.712  16.749  0.1953 -0.3383 -0.1606
14609TIP3    H265319   5.414   5.657  16.762  0.6906  0.9826  0.3290
14610TIP3   OH265320   1.001   3.413   3.524  0.1002  0.1488  0.4103
14610TIP3    H165321   0.912   3.438   3.550  0.4851  2.3611 -0.2205
14610TIP3    H265322   1.003   3.318   3.535 -1.2944  0.3682  3.6178
14611TIP3   OH265323   1.461   5.473  17.017 -0.0317  0.3868 -0.3674
14611TIP3    H165324   1.499   5.438  17.097  1.3791  0.5174 -0.9490
14611TIP3    H265325   1.470   5.402  16.953 -0.7220  0.4468 -0.5428
14612TIP3   OH265326   2.079   6.402   1.579  0.1190  0.0510 -0.2462
14612TIP3    H165327   2.134   6.340   1.627 -1.0080  0.0287  1.0449
14612TIP3    H265328   1.990   6.373   1.594 -0.3693  1.2700 -0.6334
14613TIP3   OH265329   5.366   1.162  13.451  0.1363  0.3655  0.5031
14613TIP3    H165330   5.343   1.205  13.368 -1.6204 -2.5384 -0.7090
14613TIP3    H265331   5.355   1.229  13.517  0.0546  2.3994 -1.4641
14614TIP3   OH265332   6.499   5.394  13.689 -0.5158 -0.3119 -0.1159
14614TIP3    H165333   6.461   5.380  13.602 -1.9515 -0.2686  0.4701
14614TIP3    H265334   6.583   5.348  13.686 -1.0081 -1.1938 -1.1794
14615TIP3   OH265335   5.516   0.768   0.162  0.2619 -0.1112  0.0605
14615TIP3    H165336   5.444   0.767   0.100  0.0964  2.3017  0.1145
14615TIP3    H265337   5.482   0.722   0.239 -1.2102  0.8561  0.0334
14616TIP3   OH265338   5.666   4.047  15.124 -0.3761 -0.0454  0.1282
14616TIP3    H165339   5.668   4.136  15.162  1.3170 -0.4564  1.1004
14616TIP3    H265340   5.758   4.025  15.110 -0.6863 -2.1033  1.0355
14617TIP3   OH265341   4.500   3.239  14.473 -0.6215  0.4322  0.0797
14617TIP3    H165342   4.593   3.216  14.473 -0.5712  0.5879  1.2394
14617TIP3    H265343   4.456   3.161  14.440 -0.0930  0.3167 -0.3688
14618TIP3   OH265344   6.249   3.793  14.342 -0.0419  0.8873  0.5445
14618TIP3    H165345   6.206   3.852  14.404  0.4930 -0.8996  2.7523
14618TIP3    H265346   6.321   3.755  14.392  0.3619 -0.7416 -1.1719
14619TIP3   OH265347   3.385   5.414  15.516 -0.1522  0.1270  0.2676
14619TIP3    H165348   3.367   5.325  15.487 -1.0817  0.8224 -1.4417
14619TIP3    H265349   3.465   5.439  15.471 -0.8905  0.7650 -0.7251
14620TIP3   OH265350   0.850   3.382  14.024  0.4947 -0.3181  0.1773
14620TIP3    H165351   0.929   3.390  14.078 -0.4847  1.6058  1.4512
14620TIP3    H265352   0.794   3.322  14.071 -0.1210  0.9050  1.0431
14621TIP3   OH265353   3.656   0.268  16.647  0.5480  0.1574 -0.2246
14621TIP3    H165354   3.705   0.205  16.700  1.7673 -0.0347 -1.5326
14621TIP3    H265355   3.715   0.344  16.640  0.3981  0.1873 -1.2765
14622TIP3   OH265356   6.217   4.814  12.604  0.3641  0.1520 -0.2721
14622TIP3    H165357   6.249   4.785  12.689 -0.1445 -2.4582 -0.8694
14622TIP3    H265358   6.156   4.885  12.624  1.1402  0.3954  1.4150
14623TIP3   OH265359   6.665   6.227   4.370  0.0647 -0.6974 -0.5206
14623TIP3    H165360   6.623   6.312   4.370 -2.1669 -1.7424 -0.2411
14623TIP3    H265361   6.688   6.210   4.279 -0.6740 -0.3577 -0.7691
14624TIP3   OH265362   1.077   5.112  14.468 -0.5693  0.8785 -0.1159
14624TIP3    H165363   1.091   5.199  14.431  0.5743  1.5264  1.6949
14624TIP3    H265364   0.984   5.094  14.454 -0.5339  1.7929 -1.7174
14625TIP3   OH265365   5.137   0.477  15.154  0.5679  0.1913  0.1698
14625TIP3    H165366   5.096   0.417  15.092 -0.0556  1.2393 -0.4473
14625TIP3    H265367   5.167   0.420  15.226 -0.3443 -0.8024 -0.2130
14626TIP3   OH265368   3.942   5.498  11.830 -0.3737 -0.1166 -0.5592
14626TIP3    H165369   3.860   5.548  11.835 -0.5660 -0.5466  2.8641
14626TIP3    H265370   4.010   5.564  11.818 -1.0479  0.3765 -1.8899
14627TIP3   OH265371   5.108   0.028   0.155  0.1822 -0.3084 -0.2893
14627TIP3    H165372   5.148   0.108   0.124  1.8785 -1.5026 -1.3186
14627TIP3    H265373   5.141   0.017   0.244  0.0683  0.0395 -0.2031
14628TIP3   OH265374   6.165   3.327   6.017 -0.6280 -0.6454 -0.3111
14628TIP3    H165375   6.259   3.328   6.000 -0.6649 -0.8791 -0.5484
14628TIP3    H265376   6.151   3.392   6.085 -0.3668 -0.2096 -0.6673
14629TIP3   OH265377   3.785   4.236  13.402 -0.4507  0.2393  0.3011
14629TIP3    H165378   3.861   4.293  13.395 -2.2992  3.1076  1.6517
14629TIP3    H265379   3.770   4.205  13.313  1.2316  1.0044 -0.3023
14630TIP3   OH265380   3.936   0.351   0.218  0.7273 -0.1685 -0.3739
14630TIP3    H165381   3.924   0.400   0.137  1.0583 -0.9640 -0.9217
14630TIP3    H265382   4.026   0.317   0.212 -0.3359 -3.0879 -1.3041
14631TIP3   OH265383   1.426   0.862   4.038 -0.3098 -0.6481 -0.2228
14631TIP3    H165384   1.390   0.915   3.966 -1.3815  0.8381  1.3262
14631TIP3    H265385   1.359   0.867   4.106  1.2762 -0.8413  1.4091
14632TIP3   OH265386   6.210   1.663  14.994  0.0666  0.4162 -0.4095
14632TIP3    H165387   6.167   1.703  14.918  0.1744 -0.5686 -1.0001
14632TIP3    H265388   6.223   1.736  15.055  0.3892  1.3179 -1.5208
14633TIP3   OH265389   2.557   0.497   0.311  0.2525 -0.0583 -0.2584
14633TIP3    H165390   2.619   0.564   0.281  0.0193  0.6693  0.8229
14633TIP3    H265391   2.478   0.512   0.259  0.6364 -0.3417 -0.9355
14634TIP3   OH265392   4.913   1.916  16.064  0.1782  0.5087  0.4348
14634TIP3    H165393   4.825   1.893  16.032 -0.1349  1.9041  0.1806
14634TIP3    H265394   4.963   1.934  15.984  1.2742 -1.9867  0.4658
14635TIP3   OH265395   1.211   5.068  11.493  0.1311 -0.5249  0.9175
14635TIP3    H165396   1.279   5.133  11.511 -0.2588  0.3015 -0.4192
14635TIP3    H265397   1.253   5.004  11.437 -0.3286  0.3554 -0.4891
14636TIP3   OH265398   1.526   3.010  16.304  0.7331  0.2416 -0.3405
14636TIP3    H165399   1.575   2.930  16.287  3.0434  1.6718 -0.8165
14636TIP3    H265400   1.490   3.035  16.218 -0.8420 -0.7317 -0.0160
14637TIP3   OH265401   2.352   6.601  12.833 -0.0754  0.9732 -0.0732
14637TIP3    H165402   2.362   6.695  12.817 -1.1319  0.5661 -4.4988
14637TIP3    H265403   2.258   6.585  12.829  0.1648 -0.4753 -2.0119
14638TIP3   OH265404   1.480   4.930   2.323 -0.2070  0.2557  0.0596
14638TIP3    H165405   1.547   4.911   2.258 -0.1505  0.3371  0.0937
14638TIP3    H265406   1.525   4.924   2.407 -0.0960  0.9177  0.0507
14639TIP3   OH265407   0.663   3.166  11.477 -0.2118  0.8311 -0.1650
14639TIP3    H165408   0.746   3.150  11.431 -0.4990 -1.6305  0.0432
14639TIP3    H265409   0.649   3.260  11.468  1.9252  1.1120 -1.3581
14640TIP3   OH265410   4.804   0.840  10.980  0.1338 -0.2700  0.0345
14640TIP3    H165411   4.813   0.854  10.886 -3.5689 -1.4129 -0.6599
14640TIP3    H265412   4.739   0.904  11.008  1.0845 -0.0337  1.8107
14641TIP3   OH265413   5.336   0.947  11.745  0.2419 -0.2004  0.2002
14641TIP3    H165414   5.291   0.953  11.829 -0.1259  0.9037 -0.0583
14641TIP3    H265415   5.395   0.873  11.755 -0.3279 -0.5421  1.1750
14642TIP3   OH265416   1.045   3.179   4.725  0.1605 -0.0781 -0.2158
14642TIP3    H165417   1.137   3.160   4.742 -0.0515  0.3337  1.5254
14642TIP3    H265418   1.025   3.255   4.779 -1.5458 -0.9772  0.5014
14643TIP3   OH265419   1.056   3.919   5.917 -0.2203 -0.1669  0.8625
14643TIP3    H165420   1.126   3.891   5.975 -0.9270 -2.2698  0.7968
14643TIP3    H265421   1.012   3.838   5.892 -0.2149  0.6548 -2.2758
14644TIP3   OH265422   3.959   5.779  14.561  0.6575  0.1259  0.0591
14644TIP3    H165423   3.942   5.741  14.475  0.7452  0.3709 -0.0695
14644TIP3    H265424   4.042   5.740  14.589  1.4931  1.2620 -0.6984
14645TIP3   OH265425   0.987   5.651   3.601  0.5159  0.6549  0.2376
14645TIP3    H165426   0.924   5.714   3.635 -0.3133  0.4277 -0.8372
14645TIP3    H265427   1.064   5.662   3.657 -1.1010 -0.4232  2.8815
14646TIP3   OH265428   6.231   2.992  15.198 -0.0057 -0.3001 -0.2697
14646TIP3    H165429   6.176   2.982  15.121  0.3323  4.2751 -1.3788
14646TIP3    H265430   6.310   3.035  15.166  1.1128 -0.2187  2.3485
14647TIP3   OH265431   4.460   1.429   3.380 -0.2129  0.5766 -0.5789
14647TIP3    H165432   4.408   1.376   3.319 -2.5485  0.1967  1.5635
14647TIP3    H265433   4.461   1.377   3.461  2.0435  1.4269  0.0040
14648TIP3   OH265434   3.227   4.112   4.715  0.4881  0.1196  0.6536
14648TIP3    H165435   3.180   4.030   4.730 -1.9879  1.6027  1.7282
14648TIP3    H265436   3.253   4.109   4.623  0.6657 -1.9505  0.7376
14649TIP3   OH265437   4.237   6.496  11.494 -0.3662 -0.4347 -0.5165
14649TIP3    H165438   4.322   6.473  11.532 -0.5691 -0.6263 -0.1722
14649TIP3    H265439   4.235   6.450  11.410  0.2075  0.2250 -0.8989
14650TIP3   OH265440   5.321   1.243   5.614 -0.2626  0.3456 -0.0866
14650TIP3    H165441   5.266   1.252   5.536 -1.6697 -2.1577  0.5210
14650TIP3    H265442   5.363   1.157   5.604  2.0958  1.3556  0.4267
14651TIP3   OH265443   3.421   2.429   1.822  0.2073  0.4173 -0.6884
14651TIP3    H165444   3.473   2.490   1.770 -1.5279  2.9235  0.3570
14651TIP3    H265445   3.348   2.404   1.765 -1.5206  2.9167  0.2884
14652TIP3   OH265446   6.042   3.775  11.412 -0.0471  0.8348  0.4390
14652TIP3    H165447   6.097   3.831  11.356  0.9717  0.1418  0.7079
14652TIP3    H265448   5.985   3.836  11.459  1.1274  1.6671  0.8312
14653TIP3   OH265449   6.729   3.903   3.904 -0.6480  0.4090  0.3023
14653TIP3    H165450   6.747   3.819   3.947  0.0941  0.5626  0.3050
14653TIP3    H265451   6.718   3.881   3.812 -4.0443 -0.1824  0.7363
14654TIP3   OH265452   6.314   5.272  11.783  0.3701 -0.3630 -0.1737
14654TIP3    H165453   6.317   5.178  11.765  0.0937 -0.3947 -0.0559
14654TIP3    H265454   6.232   5.302  11.744  0.1190 -0.2992  0.3963
14655TIP3   OH265455   2.078   1.281  17.087 -0.4679  0.4223 -0.4219
14655TIP3    H165456   2.076   1.237  17.002 -0.0469  1.0391 -0.7538
14655TIP3    H265457   2.025   1.225  17.144 -0.3334 -0.2568 -0.9603
14656TIP3   OH265458   2.897   5.190  10.782  0.1211  0.0108  0.5228
14656TIP3    H165459   2.881   5.259  10.716  0.5662 -0.5629 -0.1972
14656TIP3    H265460   2.811   5.178  10.823 -0.4275 -0.3292 -0.6603
14657TIP3   OH265461   3.413   5.640  12.183  0.0126 -0.4529 -0.6678
14657TIP3    H165462   3.414   5.551  12.217  0.3264 -0.8382 -1.6450
14657TIP3    H265463   3.343   5.683  12.231  0.5134 -0.9328  0.5248
14658TIP3   OH265464   3.054   6.038  15.479  0.2685 -0.0517 -0.4343
14658TIP3    H165465   2.984   5.976  15.500  1.3927 -0.6043  2.1621
14658TIP3    H265466   3.075   6.021  15.387 -1.2938 -1.6164 -0.5494
14659TIP3   OH265467   4.725   6.335   0.949 -0.5339  0.0962 -0.0684
14659TIP3    H165468   4.632   6.353   0.958 -0.6981 -1.2281  1.3336
14659TIP3    H265469   4.740   6.256   1.002  1.3853  0.2788 -0.2470
14660TIP3   OH265470   1.920   4.306   5.559  0.7957 -0.3089  0.1209
14660TIP3    H165471   1.965   4.240   5.613  1.1745 -0.3691 -0.2677
14660TIP3    H265472   1.969   4.308   5.477 -0.0403 -0.5294 -0.3933
14661TIP3   OH265473   4.828   0.467   0.094  0.2114  0.2141 -0.4218
14661TIP3    H165474   4.851   0.558   0.073 -0.4447  0.7088  0.8785
14661TIP3    H265475   4.868   0.452   0.179 -0.2376 -0.4907 -0.3304
14662TIP3   OH265476   4.066   3.981   3.740 -0.2886 -0.3969  0.5296
14662TIP3    H165477   4.030   3.930   3.667  1.5332 -0.3166 -0.4988
14662TIP3    H265478   3.989   4.012   3.788 -1.5231 -1.2074 -0.8370
14663TIP3   OH265479   0.352   4.802   0.988 -0.1011 -0.1561  0.8141
14663TIP3    H165480   0.416   4.769   0.926 -1.3139 -1.2906  0.1231
14663TIP3    H265481   0.268   4.794   0.943 -0.8957 -0.0521  2.2168
14664TIP3   OH265482   0.589   0.202   5.100 -0.1559 -0.4967 -0.0097
14664TIP3    H165483   0.615   0.291   5.080  0.8935 -0.5434  1.0225
14664TIP3    H265484   0.496   0.208   5.122 -0.1270  0.3099 -0.0945
14665TIP3   OH265485   3.469   0.000   3.904 -0.1365 -0.0099 -0.2142
14665TIP3    H165486   3.556  -0.020   3.870  0.2799 -0.6777  1.1827
14665TIP3    H265487   3.452  -0.066   3.971 -0.8001  1.3700  1.0708
14666TIP3   OH265488   6.665   3.803  16.854 -0.1858  0.0412  0.5026
14666TIP3    H165489   6.672   3.708  16.866  0.3055  0.1298  0.9450
14666TIP3    H265490   6.593   3.814  16.791 -0.6550 -0.5879  0.9198
14667TIP3   OH265491   5.695   1.942   2.142 -0.8799  0.1258 -0.2677
14667TIP3    H165492   5.673   1.863   2.093 -0.1241 -0.2441 -0.0224
14667TIP3    H265493   5.739   1.998   2.079  0.2820 -0.4369  0.0192
14668TIP3   OH265494   3.493   6.142  11.783  0.6115  0.6384  0.6713
14668TIP3    H165495   3.525   6.229  11.758  1.8618  0.0798  0.2127
14668TIP3    H265496   3.410   6.132  11.736  2.4662 -0.0402 -2.7913
14669TIP3   OH265497   5.160   3.417  15.840 -0.3401  0.0725 -0.0781
14669TIP3    H165498   5.153   3.366  15.760  1.0736 -1.7744  0.8979
14669TIP3    H265499   5.071   3.417  15.876 -0.7693  0.0200 -1.1044
14670TIP3   OH265500   3.404   3.254   2.631 -0.0533 -0.3633 -0.1337
14670TIP3    H165501   3.369   3.193   2.565 -0.9523  0.1874 -0.1884
14670TIP3    H265502   3.428   3.332   2.580  1.4673 -0.7952 -0.1222
14671TIP3   OH265503   4.903   5.328   5.766  0.5790 -0.3622 -1.0967
14671TIP3    H165504   4.952   5.371   5.836 -1.3066  1.3747 -0.7462
14671TIP3    H265505   4.866   5.250   5.808  0.1168  0.2458 -0.3309
14672TIP3   OH265506   4.606   4.032   5.008 -0.3432  0.1404 -0.4642
14672TIP3    H165507   4.663   4.035   5.085 -2.6175  0.9519  1.2766
14672TIP3    H265508   4.552   3.954   5.020  0.6834 -0.9479 -2.3877
14673TIP3   OH265509   0.549   6.267  15.944  0.5462  0.6066  0.4138
14673TIP3    H165510   0.513   6.180  15.933  1.9931  0.0950 -0.6223
14673TIP3    H265511   0.478   6.319  15.981 -0.2589 -1.0554  1.2532
14674TIP3   OH265512   4.448   3.390   1.247 -0.4312  0.0035 -0.0002
14674TIP3    H165513   4.425   3.298   1.235  0.4048 -0.3389  0.8783
14674TIP3    H265514   4.537   3.398   1.211 -0.8924  0.7285 -1.0478
14675TIP3   OH265515   1.943   1.160  11.398 -0.3149  0.3586  0.7291
14675TIP3    H165516   1.915   1.090  11.340  0.4034  0.0587  0.7374
14675TIP3    H265517   1.871   1.171  11.460 -0.6930  0.0591  0.3429
14676TIP3   OH265518   1.615   0.236  13.760 -0.0437  0.3400 -0.0833
14676TIP3    H165519   1.608   0.157  13.706 -0.6470 -0.3686  1.0105
14676TIP3    H265520   1.631   0.306  13.697 -3.1569 -0.0476 -1.5161
14677TIP3   OH265521   3.930   6.640  15.029  0.3059  0.4560  0.5305
14677TIP3    H165522   3.909   6.642  15.123  1.6185 -1.9416  0.9426
14677TIP3    H265523   3.859   6.690  14.988 -3.3147 -2.7119  2.3137
14678TIP3   OH265524   1.145   6.658  13.793 -0.7940 -0.0423  0.4255
14678TIP3    H165525   1.170   6.748  13.775 -0.2421 -0.2853 -0.0392
14678TIP3    H265526   1.191   6.636  13.874  0.3452 -0.4210 -0.3173
14679TIP3   OH265527   1.795   3.421   4.720  0.0171  0.5570  0.4534
14679TIP3    H165528   1.863   3.373   4.672 -0.1959 -1.0228  1.6388
14679TIP3    H265529   1.736   3.352   4.752  0.2573  1.4872  3.1060
14680TIP3   OH265530   5.826   1.275  14.889 -0.2516 -0.0472  0.2021
14680TIP3    H165531   5.896   1.316  14.939  0.2341  1.3079 -1.5133
14680TIP3    H265532   5.750   1.332  14.904 -0.3204 -0.0973  0.0422
14681TIP3   OH265533   3.196   3.796  14.351  0.1850  0.2126  0.1148
14681TIP3    H165534   3.232   3.848  14.278 -1.0694 -0.4630 -1.0369
14681TIP3    H265535   3.180   3.860  14.420  0.5816  1.0295 -0.5228
14682TIP3   OH265536   2.716   0.243   5.465 -0.1641  0.4271 -0.4840
14682TIP3    H165537   2.787   0.292   5.422  2.4955 -1.2661  1.5804
14682TIP3    H265538   2.708   0.163   5.414 -0.7528  0.6918 -0.8150
14683TIP3   OH265539   3.706   3.203  13.057  0.4568  0.0768 -0.3049
14683TIP3    H165540   3.776   3.268  13.063  1.4006 -0.7276 -1.8131
14683TIP3    H265541   3.706   3.159  13.142 -0.3684  2.1538  0.8377
14684TIP3   OH265542   0.234   2.578  17.155  0.0591 -0.4128 -0.2033
14684TIP3    H165543   0.191   2.493  17.153  0.9499 -0.8656 -0.7504
14684TIP3    H265544   0.249   2.600  17.063 -0.3868  0.4552 -0.0796
14685TIP3   OH265545   2.032   5.912   5.054  0.6629  0.9264 -0.3013
14685TIP3    H165546   2.022   6.006   5.042 -1.8939  0.4811 -3.0720
14685TIP3    H265547   1.991   5.874   4.976  2.9183 -2.4839 -0.0423
14686TIP3   OH265548   5.667   5.830  12.474  0.2303  0.0148 -0.8123
14686TIP3    H165549   5.723   5.755  12.457  0.3071 -0.6200  1.8303
14686TIP3    H265550   5.701   5.868  12.555 -1.5348  1.1940 -0.5624
14687TIP3   OH265551   4.153   3.246   4.678  0.2545  0.1294 -0.0674
14687TIP3    H165552   4.100   3.261   4.756  0.0390  0.3406 -0.2523
14687TIP3    H265553   4.119   3.164   4.641  1.1412 -0.6207  0.7027
14688TIP3   OH265554   6.766   5.770   4.876  0.1940  0.5684 -0.0516
14688TIP3    H165555   6.671   5.780   4.886  0.0849 -0.0678 -0.4249
14688TIP3    H265556   6.793   5.850   4.832  0.0906  1.5441  1.5640
14689TIP3   OH265557   1.022   2.618   4.043  0.1613  0.1180  0.0722
14689TIP3    H165558   0.948   2.649   4.094  0.6712 -1.7209  2.0257
14689TIP3    H265559   0.986   2.550   3.987 -0.2722  1.7187 -1.7281
14690TIP3   OH265560   6.822   4.186  15.177 -0.2586 -0.5710 -0.5944
14690TIP3    H165561   6.845   4.206  15.087 -2.4565 -0.2922 -1.1304
14690TIP3    H265562   6.750   4.245  15.198  0.2646 -0.5664  1.3815
14691TIP3   OH265563   4.143   0.841   2.469  0.1049  0.3304 -0.3455
14691TIP3    H165564   4.221   0.788   2.486 -0.3982 -0.2354  0.2700
14691TIP3    H265565   4.105   0.804   2.390 -0.9157 -1.0804  0.7385
14692TIP3   OH265566   6.157   0.524  15.134 -0.1423 -0.1267 -0.1257
14692TIP3    H165567   6.207   0.519  15.053  0.0128 -0.8643  0.0128
14692TIP3    H265568   6.142   0.618  15.147 -1.8836 -0.0777 -2.0501
14693TIP3   OH265569   1.838   6.206  14.737  0.1000 -0.1813  0.4586
14693TIP3    H165570   1.907   6.203  14.803  1.1288 -0.9281 -0.6115
14693TIP3    H265571   1.875   6.256  14.665 -0.4631 -0.6206 -0.1497
14694TIP3   OH265572   3.707   3.055  12.226  0.1186 -0.8134  0.3957
14694TIP3    H165573   3.764   3.125  12.260 -1.2322  2.6008 -3.4854
14694TIP3    H265574   3.743   3.036  12.139 -1.4944 -2.6886  0.0822
14695TIP3   OH265575   0.210   5.337   3.735 -0.1226  0.2568 -0.0767
14695TIP3    H165576   0.254   5.256   3.709  1.4447  1.8551 -2.9637
14695TIP3    H265577   0.136   5.344   3.674  0.4910  1.5443 -0.7043
14696TIP3   OH265578   5.756   1.979   0.966  0.2850 -0.3470  0.0547
14696TIP3    H165579   5.678   2.005   1.016 -0.5025 -0.5656 -1.0133
14696TIP3    H265580   5.823   2.043   0.990 -0.9856  1.4474 -0.9574
14697TIP3   OH265581   0.929   6.584   5.254  0.5411 -0.2730 -0.5523
14697TIP3    H165582   0.966   6.602   5.168 -0.6492 -1.1445 -1.2769
14697TIP3    H265583   0.839   6.615   5.249  0.5746  0.0685  0.5447
14698TIP3   OH265584   3.626   1.941   1.401  0.0826 -0.2480 -0.6184
14698TIP3    H165585   3.684   1.875   1.438  0.4599 -0.2680 -1.2340
14698TIP3    H265586   3.670   1.971   1.321  1.5082  3.0149  1.2034
14699TIP3   OH265587   0.634   2.926  13.408 -0.0010 -0.0065  0.7772
14699TIP3    H165588   0.605   3.014  13.429  0.6069  0.2905  0.3914
14699TIP3    H265589   0.590   2.905  13.325  0.9439  0.4892  0.1311
14700TIP3   OH265590   5.199   0.391   1.723  0.0707  0.2633 -0.3133
14700TIP3    H165591   5.208   0.364   1.814  2.3848  0.2605 -0.4976
14700TIP3    H265592   5.225   0.315   1.672 -1.7684  0.0624 -1.0514
14701TIP3   OH265593   3.323   0.875   3.572 -0.4171 -0.1229 -0.1218
14701TIP3    H165594   3.333   0.779   3.578 -1.8751 -0.2584  0.7265
14701TIP3    H265595   3.323   0.894   3.479 -0.4919 -1.0106 -0.3127
14702TIP3   OH265596   3.302   3.857  11.743 -0.2261  0.6003  0.4442
14702TIP3    H165597   3.281   3.776  11.695  0.2990  1.9811 -2.3231
14702TIP3    H265598   3.358   3.906  11.683 -1.4068  3.5225  1.5700
14703TIP3   OH265599   3.720   3.183   4.052 -0.3862  0.2988 -0.2494
14703TIP3    H165600   3.813   3.202   4.055 -0.0183 -0.9087 -2.2202
14703TIP3    H265601   3.705   3.122   4.124  0.3351  0.5213  0.0900
14704TIP3   OH265602   1.682   6.724  11.960  0.2838 -0.0382  0.3225
14704TIP3    H165603   1.767   6.752  11.927  0.1009  0.3538  0.1715
14704TIP3    H265604   1.702   6.676  12.040  0.8333 -2.2092 -1.0536
14705TIP3   OH265605   2.216   4.583   4.390 -0.3585 -0.5803 -0.5307
14705TIP3    H165606   2.144   4.618   4.443 -2.3629 -3.1845 -1.2887
14705TIP3    H265607   2.262   4.523   4.448  0.4277  0.0914 -0.4367
14706TIP3   OH265608   5.635   3.967  17.023 -0.3981  0.1624  0.8390
14706TIP3    H165609   5.581   4.019  16.963 -0.2976  0.8558  1.3302
14706TIP3    H265610   5.694   3.918  16.967  0.9055  2.1282  0.3942
14707TIP3   OH265611   0.810   1.435  12.747 -0.2376 -0.5586 -0.2960
14707TIP3    H165612   0.894   1.450  12.790  0.3583 -0.3589 -1.4957
14707TIP3    H265613   0.826   1.362  12.688 -0.9668 -0.6390 -0.4034
14708TIP3   OH265614   3.725   2.851  10.914  0.0735  0.2311  0.7233
14708TIP3    H165615   3.801   2.841  10.970 -0.0967 -1.7659  0.6929
14708TIP3    H265616   3.704   2.762  10.886 -0.3861  1.0424 -1.7988
14709TIP3   OH265617   0.900   5.506  12.947 -0.1992 -0.0700 -0.2673
14709TIP3    H165618   0.805   5.512  12.952 -0.2094 -0.3984 -0.1116
14709TIP3    H265619   0.930   5.597  12.958 -0.5533  0.2293 -1.5827
14710TIP3   OH265620   6.309   6.402  10.891  0.2582  0.1117  0.1847
14710TIP3    H165621   6.261   6.388  10.809  0.6009  2.2799 -0.4636
14710TIP3    H265622   6.384   6.456  10.865  1.5947 -0.9873  1.6023
14711TIP3   OH265623   1.279   5.960  15.791  0.1360 -0.0656  0.1287
14711TIP3    H165624   1.219   5.992  15.858  0.4943  0.8824  0.0118
14711TIP3    H265625   1.228   5.896  15.741 -0.0754 -0.9208  1.4030
14712TIP3   OH265626   3.758   0.367  12.615 -0.6638 -0.5854  0.1294
14712TIP3    H165627   3.838   0.365  12.561 -0.9896 -0.6878 -0.3522
14712TIP3    H265628   3.708   0.291  12.585 -1.4505  0.1067 -0.3484
14713TIP3   OH265629   3.088   1.788  16.753 -0.9671 -0.2207 -0.1188
14713TIP3    H165630   3.010   1.742  16.784 -0.5124 -0.8862  0.0721
14713TIP3    H265631   3.077   1.793  16.658 -0.5398 -1.6985 -0.2780
14714TIP3   OH265632   1.784   4.603   2.510 -0.1377  0.1108  0.1981
14714TIP3    H165633   1.744   4.689   2.498  0.3801  0.3057 -0.1478
14714TIP3    H265634   1.753   4.553   2.434  0.0982  0.1934  0.0486
14715TIP3   OH265635   1.619   6.502  10.868  0.6856  0.6987 -0.6471
14715TIP3    H165636   1.664   6.441  10.810 -0.2246  0.1927 -0.8294
14715TIP3    H265637   1.669   6.499  10.950  1.7288  1.1034 -1.2486
14716TIP3   OH265638   2.625   6.144  12.531 -0.2466  0.6970 -0.2526
14716TIP3    H165639   2.716   6.122  12.553 -0.6413 -0.2014  0.5458
14716TIP3    H265640   2.589   6.064  12.493 -0.5306  1.2475 -1.1813
14717TIP3   OH265641   3.658   1.259  13.398  0.0913 -0.7373  0.0315
14717TIP3    H165642   3.607   1.183  13.372  1.8428 -1.1601 -2.5266
14717TIP3    H265643   3.678   1.305  13.316  1.0723  1.1834  1.2507
14718TIP3   OH265644   5.638   6.701  14.207 -0.8276 -0.3300 -0.1278
14718TIP3    H165645   5.688   6.779  14.182 -2.2557  0.7273  0.2259
14718TIP3    H265646   5.705   6.637  14.231  0.3963  1.6561  2.1735
14719TIP3   OH265647   6.257   5.454   5.031  0.4550 -0.3007  0.1783
14719TIP3    H165648   6.187   5.518   5.016 -0.2444 -1.1447 -0.2239
14719TIP3    H265649   6.337   5.507   5.033  0.0350  0.4693 -1.3758
14720TIP3   OH265650   2.356   0.467  12.363  0.2606  0.1776 -0.0228
14720TIP3    H165651   2.450   0.454  12.349  0.4559 -0.6374  1.7009
14720TIP3    H265652   2.314   0.406  12.303  0.9892 -2.2872  1.7794
14721TIP3   OH265653   1.679   5.168   2.332  0.1885  0.1261 -0.3772
14721TIP3    H165654   1.682   5.260   2.359  2.0864 -0.0153  0.0343
14721TIP3    H265655   1.734   5.123   2.397  0.8129 -1.0033 -1.6536
14722TIP3   OH265656   2.196   4.341  11.404 -0.2707 -0.4160 -0.1946
14722TIP3    H165657   2.141   4.289  11.345  0.5312  0.8400 -2.1235
14722TIP3    H265658   2.286   4.316  11.381  0.0592  0.0256  0.5824
14723TIP3   OH265659   1.659   0.623  14.933 -0.0562  0.3798 -0.0878
14723TIP3    H165660   1.679   0.715  14.950  1.3784 -0.0837  0.9596
14723TIP3    H265661   1.693   0.577  15.010  0.2529 -1.1393 -1.0920
14724TIP3   OH265662   5.776   2.045   1.711 -0.0034  0.5091 -0.2362
14724TIP3    H165663   5.786   2.119   1.771  0.6276  0.1768  0.0902
14724TIP3    H265664   5.692   2.007   1.734  0.1553  0.4907  0.3319
14725TIP3   OH265665   3.380   1.976   5.296  0.0508 -0.1011  0.2206
14725TIP3    H165666   3.407   2.063   5.269  1.2687 -0.9906 -1.6994
14725TIP3    H265667   3.402   1.920   5.221 -1.8767 -1.8528  0.8621
14726TIP3   OH265668   4.409   5.578  12.057  0.4745 -0.1520  0.0929
14726TIP3    H165669   4.460   5.500  12.034  0.7271  0.0056  0.1207
14726TIP3    H265670   4.341   5.545  12.115 -0.2213 -0.5716 -0.9330
14727TIP3   OH265671   4.459   0.541  12.661 -0.4317 -0.1670  0.4128
14727TIP3    H165672   4.420   0.628  12.665  0.3674  0.3088 -1.2246
14727TIP3    H265673   4.550   0.554  12.686  0.0153 -0.2700 -1.0468
14728TIP3   OH265674   5.204   5.091  14.219  0.1507  0.4595  0.6962
14728TIP3    H165675   5.201   5.042  14.301  0.9850 -1.2604 -0.2388
14728TIP3    H265676   5.295   5.115  14.209  0.6533 -1.8015 -1.0139
14729TIP3   OH265677   2.284   3.897  11.163  0.8614 -0.4639  0.0065
14729TIP3    H165678   2.283   3.886  11.258 -2.5251  0.1498  0.1839
14729TIP3    H265679   2.339   3.974  11.149  0.3876  0.2284  1.6327
14730TIP3   OH265680   0.363   1.262  13.010  0.2247  0.8296 -0.1293
14730TIP3    H165681   0.392   1.185  12.960 -0.5909  1.0487 -0.9864
14730TIP3    H265682   0.396   1.336  12.960  0.5027  1.0391  0.3707
14731TIP3   OH265683   6.578   4.741   1.457  0.4677 -0.6571  0.7929
14731TIP3    H165684   6.491   4.745   1.418  0.7434 -1.3284  0.0965
14731TIP3    H265685   6.620   4.823   1.429  1.2645 -1.8655 -1.8274
14732TIP3   OH265686   0.766   6.622   6.370 -0.2823  0.1655  0.0474
14732TIP3    H165687   0.765   6.687   6.439 -0.4690  1.7214 -1.3621
14732TIP3    H265688   0.687   6.640   6.318  0.4928 -0.1429 -1.2914
14733TIP3   OH265689   3.044   4.825   2.044  0.4454 -0.4165  0.1221
14733TIP3    H165690   3.026   4.879   2.121 -0.1385  0.1410 -0.4020
14733TIP3    H265691   3.138   4.835   2.030  0.5863 -0.6500  0.8548
14734TIP3   OH265692   0.950   0.798  16.981 -0.1035 -0.2773  0.1134
14734TIP3    H165693   0.908   0.734  17.038  0.0357 -0.3476  0.1352
14734TIP3    H265694   1.043   0.789  16.998 -0.1103  0.2310  0.4325
14735TIP3   OH265695   3.185   1.727   2.450 -0.1205 -0.2171  0.3436
14735TIP3    H165696   3.164   1.797   2.512 -1.7390 -0.6133  0.2918
14735TIP3    H265697   3.109   1.724   2.391  0.4498 -1.2292 -0.3720
14736TIP3   OH265698   0.648   0.700  14.033 -0.5193 -0.5068  0.4219
14736TIP3    H165699   0.712   0.755  13.988 -0.3849 -1.9847 -1.2784
14736TIP3    H265700   0.698   0.658  14.103  0.7618 -2.5043 -1.5641
14737TIP3   OH265701   0.707   1.198   3.342 -0.0013 -0.1503  0.0595
14737TIP3    H165702   0.656   1.122   3.368  0.3419  0.3041  2.2953
14737TIP3    H265703   0.730   1.241   3.425 -0.6370  2.6943 -1.1173
14738TIP3   OH265704   2.418   3.816   5.078 -0.2377 -0.0854 -0.5878
14738TIP3    H165705   2.500   3.784   5.040  1.3003  1.7442  1.0343
14738TIP3    H265706   2.408   3.766   5.159  0.2441  0.9568  0.1218
14739TIP3   OH265707   4.826   0.777   0.709 -0.9313 -0.0465  0.5160
14739TIP3    H165708   4.857   0.741   0.792 -2.8965  2.0768  2.3229
14739TIP3    H265709   4.730   0.773   0.715 -1.1334  0.2707 -1.6265
14740TIP3   OH265710   1.759   6.616  12.206  0.5926 -0.1622  0.2843
14740TIP3    H165711   1.732   6.631  12.297  1.9832 -2.1256  1.0758
14740TIP3    H265712   1.853   6.634  12.205  0.4174  0.8813 -1.0559
14741TIP3   OH265713   4.829   2.176  11.301 -0.7739 -0.1946  0.4159
14741TIP3    H165714   4.896   2.175  11.233 -1.7824  0.4247 -0.6250
14741TIP3    H265715   4.842   2.259  11.346 -1.7870  0.6604 -0.8025
14742TIP3   OH265716   4.759   3.061  15.307 -0.0907 -0.5365 -0.2153
14742TIP3    H165717   4.723   2.973  15.312  0.0167 -0.5950 -0.4215
14742TIP3    H265718   4.690   3.118  15.340  0.4059 -0.8359  1.4240
14743TIP3   OH265719   2.366   2.545   5.647 -0.2166  0.4114 -0.2622
14743TIP3    H165720   2.278   2.520   5.619 -1.1521  1.9768  1.1070
14743TIP3    H265721   2.383   2.627   5.601  0.0384  0.7269  0.3866
14744TIP3   OH265722   3.200   3.922   4.218 -0.3432 -0.2068 -0.6100
14744TIP3    H165723   3.279   3.947   4.171 -0.5858 -0.0011 -0.9137
14744TIP3    H265724   3.130   3.971   4.174 -0.6971 -0.7291 -0.6342
14745TIP3   OH265725   3.953   4.916   2.879  0.1788 -0.3208  0.1767
14745TIP3    H165726   3.935   4.830   2.841  0.8904 -0.1440 -0.5933
14745TIP3    H265727   3.867   4.959   2.881  0.0704 -0.4334 -1.0236
14746TIP3   OH265728   1.484   5.969   0.940 -0.1934  0.3757  0.3125
14746TIP3    H165729   1.465   5.908   0.868 -0.7939 -0.1597  0.9081
14746TIP3    H265730   1.406   6.024   0.946  0.0324  0.7009  0.2735
14747TIP3   OH265731   2.861   2.331  11.968 -0.2669  0.4976 -0.4014
14747TIP3    H165732   2.948   2.314  12.004  0.1733  3.6098  0.3665
14747TIP3    H265733   2.848   2.262  11.903  2.5755 -0.3679 -0.2145
14748TIP3   OH265734   3.762   1.280   3.005 -0.4033 -0.1128  0.5593
14748TIP3    H165735   3.705   1.331   3.062  0.1106  0.4722  0.5574
14748TIP3    H265736   3.796   1.210   3.061 -2.5541 -1.6172  0.1113
14749TIP3   OH265737   0.633   5.612   2.722 -1.1991 -0.5859 -0.1902
14749TIP3    H165738   0.714   5.560   2.717  0.5062  1.9822 -1.7321
14749TIP3    H265739   0.602   5.601   2.811 -0.2416 -3.1677 -0.1018
14750TIP3   OH265740   3.193   4.158   3.611 -0.7713  0.3973 -0.0611
14750TIP3    H165741   3.243   4.149   3.529 -0.8107 -2.2168  0.1128
14750TIP3    H265742   3.108   4.192   3.584 -0.6975 -0.1916 -1.0893
14751TIP3   OH265743   2.765   6.673  12.683  0.3006  0.4650 -0.0086
14751TIP3    H165744   2.849   6.656  12.726 -0.3314  0.6884  1.3917
14751TIP3    H265745   2.769   6.766  12.658  0.5512  0.4212 -0.1284
14752TIP3   OH265746   0.576   6.021   3.005 -0.5994 -0.3876 -0.2397
14752TIP3    H165747   0.497   6.004   3.058 -1.5992  0.0477 -1.5343
14752TIP3    H265748   0.555   5.986   2.919  1.1430 -1.4100 -0.2909
14753TIP3   OH265749   2.987   1.729  15.387  0.9694 -0.4967  0.1527
14753TIP3    H165750   3.042   1.706  15.462  1.3420  2.8180  1.0695
14753TIP3    H265751   2.898   1.709  15.416  1.1107  0.7374  1.5324
14754TIP3   OH265752   2.775   0.888  10.605  0.3681 -0.0480  0.3727
14754TIP3    H165753   2.867   0.899  10.627  0.6199  2.1266 -1.4882
14754TIP3    H265754   2.768   0.796  10.577  2.2320  0.0596 -0.6018
14755TIP3   OH265755   0.187   3.050   5.000  0.5199  0.1800 -0.1467
14755TIP3    H165756   0.203   3.132   5.048  1.0549  1.7057 -2.7222
14755TIP3    H265757   0.112   3.070   4.944 -0.6860 -1.8436  0.6463
14756TIP3   OH265758   0.721   3.275   1.985 -0.0745 -0.2422 -0.9215
14756TIP3    H165759   0.693   3.183   1.990  0.2675 -0.3695 -1.3727
14756TIP3    H265760   0.753   3.286   1.896  1.4947 -0.1443 -0.3810
14757TIP3   OH265761   6.689   0.151   0.137 -0.2906  0.3445 -0.1005
14757TIP3    H165762   6.628   0.130   0.066 -0.9994  1.7313  0.0652
14757TIP3    H265763   6.697   0.246   0.134  0.8511  0.2917  0.7344
14758TIP3   OH265764   3.678   3.283  13.421  0.2935 -0.6582  0.3752
14758TIP3    H165765   3.666   3.204  13.474 -1.8562 -1.2706 -0.9328
14758TIP3    H265766   3.624   3.350  13.464 -0.0476 -0.6654 -0.0367
14759TIP3   OH265767   0.545   4.490   3.355  0.6556  0.0157 -0.3875
14759TIP3    H165768   0.596   4.571   3.359 -0.4996  0.7327  0.0984
14759TIP3    H265769   0.573   4.440   3.431  1.1491  0.0799 -0.5215
14760TIP3   OH265770   0.281   5.827  16.514 -0.4895 -0.2155 -0.2402
14760TIP3    H165771   0.297   5.903  16.459 -0.2001  1.8168  2.4786
14760TIP3    H265772   0.366   5.809  16.555 -0.7395 -1.5555 -0.2687
14761TIP3   OH265773   6.515   0.293  16.711 -0.1784  0.1458  0.0155
14761TIP3    H165774   6.437   0.349  16.710 -0.8410 -0.7349 -1.5885
14761TIP3    H265775   6.490   0.218  16.764 -0.7395 -0.4931 -1.1017
14762TIP3   OH265776   3.033   2.126   4.619 -0.4535 -0.2591 -0.4674
14762TIP3    H165777   3.042   2.030   4.617 -0.8897 -0.2948 -1.2626
14762TIP3    H265778   3.040   2.152   4.527  0.5328  0.5707 -0.1742
14763TIP3   OH265779   4.306   6.201  15.867 -0.2395 -0.3058  0.2702
14763TIP3    H165780   4.342   6.198  15.779  0.1982  0.1596  0.4285
14763TIP3    H265781   4.381   6.222  15.923 -0.1131 -2.4405  0.9848
14764TIP3   OH265782   6.156   4.502  15.875  0.1589  0.4308  0.0243
14764TIP3    H165783   6.092   4.505  15.947 -2.2351 -2.1452 -1.7748
14764TIP3    H265784   6.209   4.424  15.894  0.9303  0.9524  0.0498
14765TIP3   OH265785   4.232   4.721  15.494  0.0616 -0.6798  0.2001
14765TIP3    H165786   4.291   4.746  15.423  2.4180 -1.7620  1.6474
14765TIP3    H265787   4.184   4.646  15.460 -1.1020  0.6290 -1.2456
14766TIP3   OH265788   6.670   2.915  12.886 -0.2516 -0.1021  0.3102
14766TIP3    H165789   6.575   2.927  12.888 -0.4852 -1.6694  0.1039
14766TIP3    H265790   6.684   2.847  12.819  0.6717 -2.2233  2.4928
14767TIP3   OH265791   3.457   2.314  13.615 -0.4439 -0.1567 -0.2220
14767TIP3    H165792   3.497   2.243  13.565  1.0914  0.7587 -0.3348
14767TIP3    H265793   3.496   2.307  13.702  0.3437  1.0365 -0.4666
14768TIP3   OH265794   2.965   1.812  16.256  0.2668 -0.2696  0.4091
14768TIP3    H165795   3.034   1.773  16.201  0.4100 -0.1940  0.5342
14768TIP3    H265796   2.898   1.840  16.194  0.3970 -0.2460  0.2760
14769TIP3   OH265797   1.526   2.411  11.974 -0.0965 -0.0679  0.3499
14769TIP3    H165798   1.553   2.483  12.031  0.6259 -1.0120  1.2290
14769TIP3    H265799   1.507   2.339  12.034 -2.4819 -0.1383 -0.3812
14770TIP3   OH265800   1.751   5.488   2.651  0.4244 -0.4384 -0.0946
14770TIP3    H165801   1.714   5.494   2.739  2.3113  0.3051  0.7065
14770TIP3    H265802   1.766   5.579   2.625  1.5077 -0.6920 -0.4210
14771TIP3   OH265803   6.511   1.267   3.576 -0.1869 -0.3243  0.0295
14771TIP3    H165804   6.594   1.303   3.607 -0.8188  0.0737  1.3070
14771TIP3    H265805   6.449   1.340   3.583 -0.2597  0.0141 -2.8204
14772TIP3   OH265806   4.987   5.194  13.552  0.2048 -0.1199 -0.0879
14772TIP3    H165807   4.896   5.185  13.579  0.6960 -3.0072  0.9068
14772TIP3    H265808   5.033   5.219  13.632  0.5043 -0.2853 -0.2049
14773TIP3   OH265809   4.218   4.790  13.927  0.1966  0.0662 -0.1539
14773TIP3    H165810   4.249   4.766  13.840 -1.1774  0.9885 -0.9399
14773TIP3    H265811   4.293   4.833  13.969  0.9200 -0.5350 -0.8123
14774TIP3   OH265812   3.063   5.960  12.799  0.5032  0.1001 -0.3099
14774TIP3    H165813   3.144   5.998  12.766  0.2758  0.4205 -0.5178
14774TIP3    H265814   3.041   6.014  12.875  0.0807  0.5136 -0.7166
14775TIP3   OH265815   6.700   1.501   2.279 -0.2937  0.3440 -0.4578
14775TIP3    H165816   6.753   1.575   2.308 -0.4878  0.5353 -0.5934
14775TIP3    H265817   6.722   1.490   2.187 -0.1272  0.1160 -0.3910
14776TIP3   OH265818   6.008   1.841   3.318  0.1464 -0.6596  0.1272
14776TIP3    H165819   5.952   1.904   3.274 -0.7163 -2.0691 -0.8795
14776TIP3    H265820   6.010   1.869   3.410 -2.0981 -0.4899  0.1687
14777TIP3   OH265821   4.209   2.025  16.560  0.4737 -0.0138 -0.0862
14777TIP3    H165822   4.145   2.031  16.489 -0.5405 -1.1208  0.6983
14777TIP3    H265823   4.224   2.116  16.587 -2.4660  0.1928  1.1823
14778TIP3   OH265824   6.772   2.836   0.140 -0.5505  0.2147 -0.2783
14778TIP3    H165825   6.681   2.864   0.128 -0.7467  0.0018  0.6990
14778TIP3    H265826   6.765   2.748   0.176  0.0512  0.0446 -0.5743
14779TIP3   OH265827   0.610   4.962   5.355 -0.6367  0.4837  0.7719
14779TIP3    H165828   0.666   5.005   5.419 -1.6170  2.7067  0.2023
14779TIP3    H265829   0.671   4.911   5.301  1.1163  3.8342 -0.6597
14780TIP3   OH265830   1.662   5.643  16.461 -0.1426 -0.7664  0.1896
14780TIP3    H165831   1.684   5.719  16.515  0.3664 -0.8528  0.1107
14780TIP3    H265832   1.593   5.674  16.403  0.0718 -0.3619  0.1517
14781TIP3   OH265833   2.176   4.987   2.000 -0.7597 -0.0834 -0.1958
14781TIP3    H165834   2.252   4.938   1.967 -1.3017 -0.6759 -0.5729
14781TIP3    H265835   2.175   5.067   1.948 -0.7349 -0.3361 -0.5853
14782TIP3   OH265836   6.266   1.255   0.114  0.5690  0.0510 -0.0239
14782TIP3    H165837   6.186   1.249   0.166  1.1807  0.6912  1.0086
14782TIP3    H265838   6.236   1.241   0.023 -0.6129 -0.3110  0.3965
14783TIP3   OH265839   5.387   4.047  13.631 -0.4421 -0.3037  0.5889
14783TIP3    H165840   5.471   4.079  13.664  0.8832 -2.4552 -0.5060
14783TIP3    H265841   5.389   3.953  13.648 -2.0411 -0.6197 -0.7128
14784TIP3   OH265842   3.550   0.030  11.464  0.7447  0.0692  0.4408
14784TIP3    H165843   3.561   0.111  11.413  1.0353 -0.3652 -0.1999
14784TIP3    H265844   3.566  -0.040  11.401 -2.2174 -0.5974  0.2942
14785TIP3   OH265845   0.721   1.734   2.131  0.0589 -0.1941  0.0145
14785TIP3    H165846   0.680   1.732   2.045  0.7961 -0.1448 -0.3375
14785TIP3    H265847   0.648   1.751   2.191  0.0829  4.3215 -0.9422
14786TIP3   OH265848   4.212   2.868  13.991 -0.2129 -0.4236 -0.4979
14786TIP3    H165849   4.152   2.935  13.958 -0.6957  1.0199  2.8399
14786TIP3    H265850   4.299   2.908  13.983 -0.0624 -0.9648 -1.8469
14787TIP3   OH265851   4.301   2.797  15.833 -0.3193 -0.0852 -0.2210
14787TIP3    H165852   4.228   2.781  15.774 -1.1240 -1.4069  1.0593
14787TIP3    H265853   4.333   2.710  15.857  0.8655  0.4475  0.2383
14788TIP3   OH265854   1.075   1.830  14.257 -0.4605 -1.1598 -0.4666
14788TIP3    H165855   1.072   1.923  14.235 -1.8630 -1.2458 -0.7529
14788TIP3    H265856   0.983   1.805  14.266 -0.1351 -2.6910 -1.1527
14789TIP3   OH265857   1.186   6.690   3.607  0.0892  0.0293  0.6257
14789TIP3    H165858   1.273   6.672   3.641  0.3652 -1.3522 -0.7353
14789TIP3    H265859   1.166   6.778   3.639  2.3713  0.7817  0.1698
14790TIP3   OH265860   4.003   6.294   5.675  0.2469 -0.0865  0.6633
14790TIP3    H165861   3.987   6.294   5.770  1.8864  0.0332  0.9707
14790TIP3    H265862   4.047   6.211   5.658 -2.3357 -1.3311 -0.4848
14791TIP3   OH265863   5.748   1.233   0.735 -0.2440 -0.5999  0.3912
14791TIP3    H165864   5.761   1.298   0.804  0.8163  1.4290 -1.6055
14791TIP3    H265865   5.662   1.253   0.699  0.4535  0.3801 -0.8232
14792TIP3   OH265866   0.513   4.606  13.710 -0.0421  0.1260  0.2713
14792TIP3    H165867   0.599   4.571  13.735  1.2211  2.1458 -0.9614
14792TIP3    H265868   0.492   4.669  13.779  0.9072  1.7724 -0.8832
14793TIP3   OH265869   0.751   4.535  10.746 -0.1743 -0.1656  0.1356
14793TIP3    H165870   0.693   4.504  10.816 -0.7446  0.9905  0.1905
14793TIP3    H265871   0.826   4.574  10.792  0.3297 -1.0302  0.0695
14794TIP3   OH265872   2.996   4.282  16.888  0.1121 -0.0571  0.2879
14794TIP3    H165873   2.979   4.205  16.834 -2.6767  0.0142  0.9003
14794TIP3    H265874   2.986   4.356  16.828  2.3028 -0.0787 -0.1890
14795TIP3   OH265875   2.663   1.314  11.926 -0.0456 -0.0004  0.3199
14795TIP3    H165876   2.740   1.299  11.870  0.3575 -1.8035  1.2663
14795TIP3    H265877   2.588   1.300  11.868  0.2948  1.6867 -0.5941
14796TIP3   OH265878   3.609   1.756  13.018  0.2726  0.2653 -0.5746
14796TIP3    H165879   3.630   1.840  13.059  1.2446  0.6881 -1.9022
14796TIP3    H265880   3.604   1.694  13.092 -0.1073  1.4008  0.3798
14797TIP3   OH265881   2.483   1.200   3.699  0.2214  0.5110 -0.7278
14797TIP3    H165882   2.399   1.230   3.733  0.3640  1.4690 -1.1837
14797TIP3    H265883   2.539   1.278   3.702  1.0734 -0.1043 -0.4842
14798TIP3   OH265884   3.233   1.315   3.333  0.1612  0.4421 -0.3021
14798TIP3    H165885   3.154   1.368   3.342 -0.2706 -0.2785  0.2182
14798TIP3    H265886   3.302   1.367   3.374  0.1098  1.3766 -1.3504
14799TIP3   OH265887   1.130   0.665   4.100 -0.4746 -0.6098  0.1362
14799TIP3    H165888   1.073   0.595   4.130 -0.1452 -0.5669  0.8898
14799TIP3    H265889   1.219   0.629   4.108 -0.4156 -1.1630 -2.2758
14800TIP3   OH265890   0.581   4.229  13.207 -0.0305 -0.1361 -0.1537
14800TIP3    H165891   0.604   4.263  13.293 -0.0512 -2.0657  0.6661
14800TIP3    H265892   0.488   4.249  13.197 -0.4585 -1.3274  1.0409
14801TIP3   OH265893   5.546   1.815  16.441  0.0527  0.0125  0.3213
14801TIP3    H165894   5.482   1.834  16.373  0.5600  1.0401  0.1071
14801TIP3    H265895   5.526   1.725  16.469 -1.1899  0.1679 -0.0296
14802TIP3   OH265896   2.324   2.912  16.406 -0.3165  0.0684 -0.3450
14802TIP3    H165897   2.258   2.887  16.471 -0.4976 -0.8007 -0.8449
14802TIP3    H265898   2.358   2.829  16.373  0.3728  0.5070 -0.7617
14803TIP3   OH265899   4.332   2.685  11.830  0.5267 -0.3722  0.8183
14803TIP3    H165900   4.316   2.665  11.737  0.3435  3.9172 -0.2915
14803TIP3    H265901   4.246   2.681  11.871  0.0897  0.6769  0.0441
14804TIP3   OH265902   3.601   4.117   1.116 -0.1157 -0.4637  0.0732
14804TIP3    H165903   3.599   4.120   1.212  0.6074 -1.3266  0.1257
14804TIP3    H265904   3.610   4.024   1.095  1.4449 -0.1597 -0.7799
14805TIP3   OH265905   0.598   6.348   3.243  0.2039 -0.2250  0.1584
14805TIP3    H165906   0.605   6.379   3.153 -0.0073 -0.4026  0.0812
14805TIP3    H265907   0.524   6.396   3.279  0.6743  0.3040  0.4250
14806TIP3   OH265908   1.620   2.217  17.241 -0.3621 -0.0865 -0.9766
14806TIP3    H165909   1.600   2.125  17.220 -2.5977 -0.0711  0.7099
14806TIP3    H265910   1.535   2.260  17.242  0.2270  1.2192  1.6879
14807TIP3   OH265911   2.294   4.103  15.621 -0.1842  0.5144  0.2260
14807TIP3    H165912   2.247   4.183  15.647 -1.8221  0.1794 -1.5358
14807TIP3    H265913   2.375   4.135  15.580 -0.8859  1.2983 -0.5902
14808TIP3   OH265914   3.899   3.014   1.634  0.4666  0.4874  0.3078
14808TIP3    H165915   3.890   3.100   1.594  0.9775  0.2606 -0.3160
14808TIP3    H265916   3.972   3.023   1.696  1.5933  0.1175 -0.9105
14809TIP3   OH265917   1.104   1.066  16.593 -0.2123  1.0809  0.4092
14809TIP3    H165918   1.017   1.039  16.565  0.1523 -1.2892  1.3298
14809TIP3    H265919   1.100   1.162  16.594 -2.6534  1.0492  0.0116
14810TIP3   OH265920   2.459   3.921  15.394 -0.7649  0.1416 -0.8523
14810TIP3    H165921   2.491   3.864  15.464 -1.5419  1.3395  0.5141
14810TIP3    H265922   2.423   3.860  15.329  0.6635 -1.0212 -0.5901
14811TIP3   OH265923   5.063   0.601   5.289  0.1003  0.1139 -0.0058
14811TIP3    H165924   5.088   0.592   5.381  0.7090  1.6745  0.0153
14811TIP3    H265925   4.970   0.624   5.292  0.3601  1.1773  0.2923
14812TIP3   OH265926   0.389   4.430  13.529 -0.1267 -0.2657  0.3214
14812TIP3    H165927   0.410   4.491  13.600 -1.2119  0.6761 -0.1195
14812TIP3    H265928   0.473   4.393  13.503  0.6710  1.4394  0.2869
14813TIP3   OH265929   2.678   3.166   0.069  0.7522 -0.4077  0.1795
14813TIP3    H165930   2.737   3.184   0.142  0.6629 -1.8877  0.6468
14813TIP3    H265931   2.714   3.216  -0.004  0.3589  1.7831  1.4106
14814TIP3   OH265932   1.646   6.163  14.387  0.3696 -0.1524  0.3438
14814TIP3    H165933   1.600   6.219  14.325  1.0609 -0.2981 -0.3153
14814TIP3    H265934   1.588   6.159  14.463  0.3255  1.4940  0.4329
14815TIP3   OH265935   3.179   0.148  16.522  0.2230 -0.8331 -0.2528
14815TIP3    H165936   3.145   0.155  16.432  0.4285 -0.0522 -0.2762
14815TIP3    H265937   3.274   0.151  16.511  0.2430 -0.5240  0.0056
14816TIP3   OH265938   5.802   2.861   0.643  0.3450 -0.1423  0.4036
14816TIP3    H165939   5.746   2.792   0.679  1.9739 -0.6802  2.0270
14816TIP3    H265940   5.884   2.817   0.622  0.6886  0.9146 -0.5807
14817TIP3   OH265941   4.473   5.156   2.127 -0.1884  0.0630 -0.1925
14817TIP3    H165942   4.506   5.129   2.213 -1.9763  0.2159  0.5869
14817TIP3    H265943   4.436   5.077   2.089 -0.2955  0.2027 -0.3811
14818TIP3   OH265944   2.211   6.574  16.094  0.0099 -0.0750  0.5053
14818TIP3    H165945   2.243   6.637  16.030  0.1141 -1.5169 -0.9275
14818TIP3    H265946   2.116   6.579  16.087  0.0206 -0.1908  0.2897
14819TIP3   OH265947   4.337   3.134   1.193  0.6628  0.2467  0.7433
14819TIP3    H165948   4.247   3.159   1.175  0.4770 -0.7869  0.1616
14819TIP3    H265949   4.373   3.110   1.107  1.2284 -0.1754  1.0863
14820TIP3   OH265950   6.381   2.987   1.379 -0.1538 -0.1017 -0.4882
14820TIP3    H165951   6.473   3.012   1.390  0.0178 -0.7766 -0.3446
14820TIP3    H265952   6.333   3.041   1.442  0.2188 -0.1730 -0.1424
14821TIP3   OH265953   1.566   2.576  15.998  0.7054  0.2354  0.2121
14821TIP3    H165954   1.527   2.509  16.055  2.1586  1.1029  2.3392
14821TIP3    H265955   1.612   2.526  15.931 -3.1230 -0.8402 -1.9100
14822TIP3   OH265956   1.627   0.975  16.594  0.1288 -0.0516  0.2762
14822TIP3    H165957   1.564   0.924  16.543 -0.4843  0.3960  0.5746
14822TIP3    H265958   1.573   1.031  16.650  0.7180  2.6225 -1.6254
14823TIP3   OH265959   0.957   3.070   0.240 -0.3594 -0.1003 -0.2171
14823TIP3    H165960   1.029   3.093   0.181 -0.6631  0.2733 -0.4524
14823TIP3    H265961   0.884   3.125   0.211 -0.3531  0.5251  0.8682
14824TIP3   OH265962   5.074   4.299   4.133 -0.3292 -0.1353 -0.2886
14824TIP3    H165963   5.144   4.280   4.071 -0.5846 -0.3780 -0.5023
14824TIP3    H265964   5.026   4.217   4.141 -0.9417  0.1925 -0.5897
14825TIP3   OH265965   5.411   4.650   4.755 -0.4113 -0.3322  0.0240
14825TIP3    H165966   5.361   4.720   4.712  0.5671  0.4605  0.1295
14825TIP3    H265967   5.495   4.650   4.709  0.2115 -0.2910  1.1332
14826TIP3   OH265968   4.371   2.791  12.414 -0.3175  0.4952  0.8432
14826TIP3    H165969   4.372   2.773  12.320  0.6951  1.6314  0.6116
14826TIP3    H265970   4.439   2.734  12.450  1.7898  2.5250  0.3331
14827TIP3   OH265971   5.087   1.826  13.759  0.1319 -0.1222 -0.4238
14827TIP3    H165972   4.995   1.839  13.734  0.1673  0.3701 -0.3032
14827TIP3    H265973   5.126   1.913  13.754  0.8301 -0.4757 -1.4212
14828TIP3   OH265974   6.090   3.936  13.385 -0.0336 -0.5832 -0.1132
14828TIP3    H165975   6.170   3.962  13.431 -0.6238 -0.0657  0.6446
14828TIP3    H265976   6.073   4.007  13.324  0.1269 -0.7345 -0.3365
14829TIP3   OH265977   2.998   3.126  14.532  0.2489 -0.0706  0.6736
14829TIP3    H165978   2.909   3.157  14.549  0.2030  0.2352 -0.0641
14829TIP3    H265979   3.033   3.188  14.467  1.9320  1.3859  2.8295
14830TIP3   OH265980   4.516   1.680  12.861 -0.1924 -0.9098 -0.0172
14830TIP3    H165981   4.529   1.618  12.790 -0.7557 -0.5451 -0.4380
14830TIP3    H265982   4.430   1.658  12.897 -1.1790  0.7074 -1.2723
14831TIP3   OH265983   3.088   1.375   2.051 -0.1481 -0.0988 -0.3297
14831TIP3    H165984   3.081   1.402   2.142 -1.4425  1.9531 -0.9708
14831TIP3    H265985   2.998   1.374   2.019  0.4012  1.2391 -2.0891
14832TIP3   OH265986   1.207   4.668   5.182 -0.4653  0.1620 -0.1088
14832TIP3    H165987   1.293   4.689   5.218  0.5809 -0.7128 -1.9452
14832TIP3    H265988   1.201   4.572   5.189 -2.4014  0.3592  2.2556
14833TIP3   OH265989   1.609   2.221   3.358  0.1106 -0.3529 -0.0540
14833TIP3    H165990   1.696   2.219   3.399  0.7613  0.4064 -1.3493
14833TIP3    H265991   1.625   2.199   3.267 -1.0559 -0.0881 -0.3323
14834TIP3   OH265992   4.959   6.231   4.504 -0.2137  0.2075  0.3659
14834TIP3    H165993   4.928   6.140   4.501  2.3165 -0.6891 -1.3199
14834TIP3    H265994   5.032   6.229   4.567  0.4923  0.8384 -0.4201
14835TIP3   OH265995   0.146   3.620  14.224  0.6876  0.1485  0.1347
14835TIP3    H165996   0.077   3.672  14.184 -0.4717 -1.2716  0.1903
14835TIP3    H265997   0.200   3.683  14.271 -0.2081  1.3697 -0.4264
14836TIP3   OH265998   1.992   6.123  14.948  0.1686 -0.2965  0.3504
14836TIP3    H165999   1.962   6.042  14.989  1.2184 -1.5006 -1.1140
14836TIP3    H266000   2.076   6.100  14.909  2.9162  2.7516  3.7711
14837TIP3   OH266001   0.932   3.014   3.953 -0.2364 -0.4517 -0.0347
14837TIP3    H166002   0.972   2.960   4.022 -0.1586 -0.4482 -0.0775
14837TIP3    H266003   0.995   3.012   3.881  1.7100  2.9100  1.3507
14838TIP3   OH266004   4.134   2.243  14.497 -0.0492  0.1237 -0.3471
14838TIP3    H166005   4.174   2.293  14.568 -0.5555 -0.7117  0.5436
14838TIP3    H266006   4.172   2.156  14.503  1.1081  0.4492 -2.1308
14839TIP3   OH266007   3.310   6.575   2.589 -0.5484  0.3775  0.3537
14839TIP3    H166008   3.294   6.500   2.646 -0.4554 -0.0562 -0.1861
14839TIP3    H266009   3.352   6.640   2.646 -0.3974 -0.0729  0.7633
14840TIP3   OH266010   4.643   1.146   1.884  0.1051 -0.7869 -0.1675
14840TIP3    H166011   4.677   1.071   1.835  2.3035  0.6893 -1.0511
14840TIP3    H266012   4.700   1.154   1.960  0.5478  0.5296 -0.5980
14841TIP3   OH266013   0.504   1.688   5.307  0.6398  0.0024  0.3197
14841TIP3    H166014   0.436   1.655   5.367  2.5549 -3.0090  1.0650
14841TIP3    H266015   0.507   1.622   5.238  1.0855  1.4658 -1.1088
14842TIP3   OH266016   6.135   6.473   0.017  0.1705  0.0041  0.2466
14842TIP3    H166017   6.171   6.539  -0.042  1.5028 -0.2669  0.7197
14842TIP3    H266018   6.047   6.505   0.038 -0.1871  0.2838 -1.5536
14843TIP3   OH266019   2.546   5.928  13.407 -0.2552  0.0740  0.1324
14843TIP3    H166020   2.603   5.858  13.375 -0.6063 -0.4428  0.6237
14843TIP3    H266021   2.478   5.883  13.457  0.1332  0.8481  1.3891
14844TIP3   OH266022   6.347   0.853  16.295  0.5915 -0.1505  0.4346
14844TIP3    H166023   6.300   0.936  16.293 -1.5978 -1.2896  0.7679
14844TIP3    H266024   6.328   0.818  16.383  1.9820 -0.7345  0.5222
14845TIP3   OH266025   1.782   0.379  12.197  0.3393  0.0899  0.0318
14845TIP3    H166026   1.778   0.385  12.292 -0.7282 -0.4600  0.0356
14845TIP3    H266027   1.841   0.449  12.171  4.3230 -2.3883  1.3932
14846TIP3   OH266028   6.594   1.025  10.240  0.0494 -0.2356  0.0290
14846TIP3    H166029   6.653   0.960  10.280  0.7936  0.6438  0.3828
14846TIP3    H266030   6.617   1.108  10.282 -1.6021  0.0972  0.3237
14847TIP3   OH266031   5.708   5.027   3.270  0.2228 -0.0898 -0.1235
14847TIP3    H166032   5.614   5.045   3.267  0.2395  0.0251  0.0167
14847TIP3    H266033   5.730   5.001   3.181 -0.2429 -1.6996  0.1912
14848TIP3   OH266034   5.973   6.186  16.532 -0.1289 -0.3850  0.2290
14848TIP3    H166035   5.888   6.152  16.558  0.5595 -1.4533  1.1485
14848TIP3    H266036   6.005   6.233  16.609 -0.3260  0.9303 -0.4620
14849TIP3   OH266037   4.944   0.923   5.401 -0.0814  0.0475  0.1005
14849TIP3    H166038   5.026   0.878   5.421 -0.3410 -0.4304  0.0984
14849TIP3    H266039   4.880   0.885   5.461 -0.5755 -0.4828 -0.7374
14850TIP3   OH266040   5.282   1.988  11.061 -0.5355 -0.2939  0.5897
14850TIP3    H166041   5.331   2.067  11.037  0.5976 -0.9194  0.7373
14850TIP3    H266042   5.206   1.988  11.003 -2.3586  2.5699  2.6960
14851TIP3   OH266043   6.176   0.720  11.393  0.8551  0.4274  0.3574
14851TIP3    H166044   6.162   0.770  11.312  1.1148  0.4578  0.3296
14851TIP3    H266045   6.246   0.768  11.438 -1.1442  2.0566  1.9451
14852TIP3   OH266046   0.108   3.194  12.353  0.4048  0.2649 -0.6038
14852TIP3    H166047   0.098   3.100  12.341  2.4093  0.0319 -0.7145
14852TIP3    H266048   0.136   3.204  12.444 -1.8450  0.9786  0.0919
14853TIP3   OH266049   4.987   0.042  10.671 -0.2883  0.9095 -0.5583
14853TIP3    H166050   4.964  -0.035  10.723  1.9150  0.8739  0.5025
14853TIP3    H266051   4.926   0.110  10.699 -0.5975  0.2513  0.3976
14854TIP3   OH266052   5.544   2.094  15.716 -0.2695 -0.1688 -0.3935
14854TIP3    H166053   5.587   2.026  15.768 -1.0847 -2.2229 -2.2550
14854TIP3    H266054   5.460   2.107  15.759  0.4838  0.8338  0.8487
14855TIP3   OH266055   0.999   3.769  14.767  0.4744 -0.1446 -0.1879
14855TIP3    H166056   1.018   3.688  14.813  0.3992 -0.4079 -0.6119
14855TIP3    H266057   0.903   3.774  14.764  0.4537 -0.7867 -1.4212
14856TIP3   OH266058   5.785   4.396   0.987 -0.3444 -1.0509 -0.8447
14856TIP3    H166059   5.785   4.491   1.004 -1.1747 -1.3791  1.3685
14856TIP3    H266060   5.841   4.360   1.056 -1.5934 -2.3100 -0.4533
14857TIP3   OH266061   2.001   2.290   2.731 -0.7101 -0.1810  0.1637
14857TIP3    H166062   2.033   2.238   2.805  0.8030 -0.1554 -0.4338
14857TIP3    H266063   1.964   2.226   2.671  1.2986 -0.6814 -0.6465
14858TIP3   OH266064   3.698   4.341   6.607  0.0963 -0.1427  0.2513
14858TIP3    H166065   3.643   4.384   6.540 -0.9081 -4.0319 -1.7262
14858TIP3    H266066   3.770   4.303   6.557 -0.6459 -3.1084  1.2642
14859TIP3   OH266067   1.147   0.154  12.148  0.2984  0.0589 -0.1672
14859TIP3    H166068   1.156   0.201  12.231  0.5051 -0.7673  0.2847
14859TIP3    H266069   1.092   0.078  12.169 -2.3626  1.4977 -1.4663
14860TIP3   OH266070   5.850   3.596   4.194 -0.1109 -0.2525  0.2788
14860TIP3    H166071   5.786   3.559   4.134  0.9352 -3.0285  0.7079
14860TIP3    H266072   5.841   3.543   4.274  1.2050  0.7385  1.1223
14861TIP3   OH266073   5.777   5.208  14.022  0.1544  0.0921 -0.2675
14861TIP3    H166074   5.724   5.229  14.099 -0.0185 -0.5445 -0.2130
14861TIP3    H266075   5.857   5.170  14.059  0.2751  0.2285 -0.3868
14862TIP3   OH266076   1.259   3.204   5.726 -1.0017  0.3247 -0.1151
14862TIP3    H166077   1.278   3.282   5.779 -0.9274  1.3571 -1.6027
14862TIP3    H266078   1.256   3.237   5.636  0.2917 -1.6065 -0.9218
14863TIP3   OH266079   6.095   3.044  15.615  0.0122 -0.1353 -0.4075
14863TIP3    H166080   6.007   3.077  15.635 -0.9690 -2.0333 -1.3019
14863TIP3    H266081   6.154   3.106  15.658 -1.7743  0.5076  1.2917
14864TIP3   OH266082   5.441   1.362   3.709  0.1623  0.9358  0.3581
14864TIP3    H166083   5.501   1.396   3.642 -1.0980  1.2259 -0.6653
14864TIP3    H266084   5.479   1.278   3.735  0.5525  0.6845 -0.9300
14865TIP3   OH266085   1.934   3.221  13.886 -0.5675  0.1047 -0.2307
14865TIP3    H166086   1.857   3.207  13.941  0.9835 -1.2349  1.7196
14865TIP3    H266087   1.986   3.285  13.933  1.1188 -1.5742  0.2809
14866TIP3   OH266088   6.368   6.458  11.354  0.3779  0.0312 -0.0440
14866TIP3    H166089   6.458   6.440  11.383 -0.2994 -2.1466  0.8955
14866TIP3    H266090   6.315   6.445  11.432 -0.9396 -0.4786 -0.9950
14867TIP3   OH266091   1.434   6.531  12.570 -0.5221 -0.1649 -0.1812
14867TIP3    H166092   1.366   6.501  12.509  0.2028 -0.8171 -0.6959
14867TIP3    H266093   1.512   6.483  12.543  0.0700  0.3468  0.5956
14868TIP3   OH266094   2.329   6.112   4.004 -0.3297  0.3038 -0.3603
14868TIP3    H166095   2.406   6.140   3.954  0.9304  0.1654  1.4034
14868TIP3    H266096   2.273   6.068   3.939  1.6880 -0.7830 -1.4635
14869TIP3   OH266097   1.287   1.656   4.081  0.2472  0.1712  0.2873
14869TIP3    H166098   1.308   1.748   4.097  1.9160 -0.2894  0.8894
14869TIP3    H266099   1.321   1.609   4.157  0.5632 -1.1028 -0.6008
14870TIP3   OH266100   2.563   2.382  15.785  0.0688  0.1409 -1.0074
14870TIP3    H166101   2.574   2.343  15.698  0.9204 -1.5158 -0.1896
14870TIP3    H266102   2.622   2.333  15.841 -1.4108  0.3363  0.7937
14871TIP3   OH266103   3.106   3.762   1.579 -0.4762 -0.5277 -0.5145
14871TIP3    H166104   3.121   3.838   1.522  0.0236 -0.8766 -0.8628
14871TIP3    H266105   3.186   3.710   1.571 -0.2362 -0.3839  0.8353
14872TIP3   OH266106   1.418   6.391   1.888 -0.3573 -0.2688 -0.0576
14872TIP3    H166107   1.448   6.300   1.880 -1.1943 -0.6243  0.7074
14872TIP3    H266108   1.410   6.405   1.983  1.0176  1.0311 -0.1042
14873TIP3   OH266109   4.381   4.472  16.148 -0.6644 -0.0746 -0.3677
14873TIP3    H166110   4.326   4.396  16.167 -1.0542  0.3513  0.2532
14873TIP3    H266111   4.421   4.453  16.064 -0.0464 -1.3724  0.1993
14874TIP3   OH266112   0.008   5.087  15.042  0.4770 -0.5906  0.4321
14874TIP3    H166113   0.063   5.151  15.088  1.4793  0.2465 -1.7765
14874TIP3    H266114   0.032   5.003  15.080  0.1374  0.1712  2.4548
14875TIP3   OH266115   5.812   4.171  16.498  0.2336  0.0858 -0.5763
14875TIP3    H166116   5.719   4.180  16.521  0.1675  2.7497 -1.5293
14875TIP3    H266117   5.816   4.093  16.443 -1.7518  0.7687 -1.7975
14876TIP3   OH266118   6.085   4.693   2.850 -0.4153 -0.3214 -0.5151
14876TIP3    H166119   6.007   4.715   2.799 -0.1047  0.1420 -0.7969
14876TIP3    H266120   6.129   4.624   2.800 -0.2580 -0.0624 -0.7391
14877TIP3   OH266121   5.795   1.604   2.097  0.4418  0.2850 -0.0668
14877TIP3    H166122   5.847   1.681   2.074  0.2439  0.1727 -0.9479
14877TIP3    H266123   5.840   1.531   2.054  0.6025 -0.0900  0.7227
14878TIP3   OH266124   3.280   4.514   3.474  0.6139 -0.2507 -0.0996
14878TIP3    H166125   3.252   4.541   3.561  3.3667  0.5250  0.6584
14878TIP3    H266126   3.281   4.419   3.478  2.3930 -0.2426  1.4234
14879TIP3   OH266127   5.183   5.352  14.556  0.4215 -0.1318 -0.4094
14879TIP3    H166128   5.161   5.437  14.518 -1.0021  0.8455  2.3242
14879TIP3    H266129   5.110   5.295  14.532  0.7908 -0.2774 -1.2291
14880TIP3   OH266130   2.615   5.872  16.895  0.0628  0.4524  0.2489
14880TIP3    H166131   2.702   5.844  16.922  0.2388  1.0591  0.3205
14880TIP3    H266132   2.630   5.944  16.834 -0.3581 -0.2162 -0.6705
14881TIP3   OH266133   0.120   0.220   0.393  0.8248  0.0153  0.4278
14881TIP3    H166134   0.210   0.190   0.378  0.9342  0.5944 -0.1661
14881TIP3    H266135   0.123   0.314   0.371  0.7103  0.7223  3.0704
14882TIP3   OH266136   2.761   3.159  12.790 -0.9532  0.1827  0.0334
14882TIP3    H166137   2.842   3.110  12.803 -0.8095  0.1145 -1.0229
14882TIP3    H266138   2.747   3.158  12.695 -1.8389  0.7601  0.1429
14883TIP3   OH266139   4.209   4.230   0.203 -0.3924  0.2285  0.0898
14883TIP3    H166140   4.179   4.141   0.191  2.0318 -0.6143 -0.4174
14883TIP3    H266141   4.268   4.226   0.279  1.0462  0.9991 -0.9283
14884TIP3   OH266142   6.256   6.498  15.637  0.5101  0.2779  0.2221
14884TIP3    H166143   6.306   6.544  15.570 -0.5085 -1.2018 -1.6675
14884TIP3    H266144   6.295   6.526  15.720  3.2113  0.6256 -1.0552
14885TIP3   OH266145   0.873   6.502  11.117 -0.1646 -0.0703 -0.3255
14885TIP3    H166146   0.942   6.535  11.174  0.2892  1.0243 -1.4680
14885TIP3    H266147   0.805   6.569  11.120 -1.4895 -1.3785  1.2129
14886TIP3   OH266148   4.200   4.924   4.339  0.4294  0.1243 -0.1087
14886TIP3    H166149   4.274   4.884   4.293 -1.1329 -2.0483 -0.8797
14886TIP3    H266150   4.216   5.018   4.332  3.0856 -0.2527 -0.2459
14887TIP3   OH266151   5.196   3.442   3.785 -0.1021 -0.3120 -0.7484
14887TIP3    H166152   5.200   3.350   3.810 -3.3421 -0.1178  1.0941
14887TIP3    H266153   5.220   3.489   3.865 -0.2315  0.3990 -1.1203
14888TIP3   OH266154   3.822   6.325   3.734  0.2723 -0.4882  0.5138
14888TIP3    H166155   3.866   6.273   3.667 -1.1905  1.1886 -1.9595
14888TIP3    H266156   3.880   6.399   3.749  0.1121 -0.2979  0.2196
14889TIP3   OH266157   6.394   5.969   0.359  0.3271 -0.0919 -0.6858
14889TIP3    H166158   6.420   6.000   0.446  1.2168  0.0361 -0.9929
14889TIP3    H266159   6.388   6.049   0.307 -0.3561 -0.1546 -0.7107
14890TIP3   OH266160   1.945   0.758  11.641  0.3050 -0.1626 -0.6643
14890TIP3    H166161   2.005   0.687  11.662  0.3921  0.1173  0.0661
14890TIP3    H266162   1.997   0.838  11.652  0.0460  0.0389 -0.8864
14891TIP3   OH266163   2.569   1.097   6.857  0.2310 -0.4578  0.1581
14891TIP3    H166164   2.624   1.076   6.933 -1.4823 -0.8592  1.3438
14891TIP3    H266165   2.602   1.181   6.826  1.7161 -0.8487  0.6150
14892TIP3   OH266166   6.492   6.074   2.454  0.3065 -0.7363 -0.2500
14892TIP3    H166167   6.510   6.002   2.515 -0.1674  0.1358  0.9812
14892TIP3    H266168   6.432   6.037   2.390 -0.3525 -1.3237  0.6713
14893TIP3   OH266169   5.776   0.184  15.998 -0.1059 -0.6396  0.0265
14893TIP3    H166170   5.782   0.088  15.990 -0.8644 -0.6882 -0.1115
14893TIP3    H266171   5.772   0.215  15.908 -1.5287 -0.6254  0.0616
14894TIP3   OH266172   0.214   2.873   0.547 -0.0053 -0.1916  0.2297
14894TIP3    H166173   0.202   2.867   0.452 -0.9210  0.6436  0.2639
14894TIP3    H266174   0.242   2.786   0.574  2.4029  0.0962 -1.0668
14895TIP3   OH266175   3.476   5.286  15.925  0.0509  0.3742  0.2872
14895TIP3    H166176   3.559   5.259  15.888 -0.8905 -1.3810 -0.6665
14895TIP3    H266177   3.420   5.302  15.849 -0.6114  1.0948  0.9150
14896TIP3   OH266178   2.181   5.098   6.380  0.0050 -0.5116 -0.0902
14896TIP3    H166179   2.155   5.129   6.466  2.0121 -0.7954  0.6724
14896TIP3    H266180   2.127   5.020   6.365  0.0038 -0.7678  1.1427
14897TIP3   OH266181   2.824   0.711  15.285 -0.0854 -0.2956  0.3772
14897TIP3    H166182   2.768   0.692  15.209 -1.4433  0.8603  1.0265
14897TIP3    H266183   2.805   0.802  15.306  2.9816  0.5568 -0.0658
14898TIP3   OH266184   3.454   6.474  17.004  0.7764  0.0188  0.8983
14898TIP3    H166185   3.526   6.532  16.980  1.3481 -0.8707  0.3700
14898TIP3    H266186   3.440   6.420  16.926  0.3350 -0.6098  1.4015
14899TIP3   OH266187   0.295   6.248  12.846 -0.0497  0.6265  0.1976
14899TIP3    H166188   0.239   6.324  12.826  0.7015  1.6011  1.5819
14899TIP3    H266189   0.233   6.175  12.855 -0.8862  1.2504 -0.3030
14900TIP3   OH266190   0.713   2.520  14.356 -0.0317  0.1434  0.2305
14900TIP3    H166191   0.681   2.564  14.434 -2.6390 -1.4047  0.1380
14900TIP3    H266192   0.724   2.590  14.292  1.5785  1.3578  1.7207
14901TIP3   OH266193   5.673   5.354   3.973  0.3484 -0.4619 -0.7683
14901TIP3    H166194   5.614   5.346   4.048 -0.1452  1.1722 -0.9652
14901TIP3    H266195   5.620   5.331   3.897 -0.2974  1.7385 -1.0307
14902TIP3   OH266196   3.880   6.557   0.291 -0.5142 -0.1778 -0.6426
14902TIP3    H166197   3.863   6.464   0.306  1.0813 -0.2932  0.7453
14902TIP3    H266198   3.801   6.589   0.248 -2.7196 -1.3647  2.2304
14903TIP3   OH266199   3.783   4.044  15.331  0.4761  0.6037  0.5826
14903TIP3    H166200   3.738   4.001  15.403  1.0255 -0.1871  0.4691
14903TIP3    H266201   3.830   3.973  15.286 -1.8806  0.5935 -2.1378
14904TIP3   OH266202   0.816   4.267  15.189 -0.4714  0.0949 -0.4165
14904TIP3    H166203   0.834   4.234  15.277  0.0112 -0.0013 -0.5501
14904TIP3    H266204   0.816   4.362  15.198  1.7876  0.1852 -0.7095
14905TIP3   OH266205   1.568   4.476  13.763  0.3482  0.1572 -0.4130
14905TIP3    H166206   1.574   4.418  13.840 -1.1154  0.1234 -0.2952
14905TIP3    H266207   1.655   4.514  13.755  0.6234 -0.0825  1.0843
14906TIP3   OH266208   3.921   3.109  11.593 -0.5654  0.1941 -0.1334
14906TIP3    H166209   3.871   3.110  11.675  2.7469  1.7877  2.0949
14906TIP3    H266210   3.910   3.196  11.556 -1.6650 -0.3713 -1.2172
14907TIP3   OH266211   4.226   2.520   2.117 -0.6073  0.0021  0.1111
14907TIP3    H166212   4.198   2.435   2.084 -0.1052 -0.4086  0.7379
14907TIP3    H266213   4.182   2.529   2.202 -2.9020  1.5951 -1.1335
14908TIP3   OH266214   0.496   5.878   5.297  0.4333  0.0881 -0.0142
14908TIP3    H166215   0.553   5.873   5.374  0.9019 -2.1975 -0.4503
14908TIP3    H266216   0.414   5.916   5.331  0.5774 -0.9872  1.6687
14909TIP3   OH266217   4.181   3.803  15.338 -0.4194 -0.4628  0.0231
14909TIP3    H166218   4.143   3.823  15.252 -1.3947  1.1963  0.7796
14909TIP3    H266219   4.251   3.868  15.348  0.4303 -1.3618  0.0430
14910TIP3   OH266220   5.670   6.110   4.448 -0.8173  0.1765  0.2826
14910TIP3    H166221   5.584   6.121   4.407 -0.8197 -1.3002 -0.1806
14910TIP3    H266222   5.703   6.199   4.460 -2.0994  0.7408 -0.1931
14911TIP3   OH266223   6.785   1.687  12.651 -0.3924 -0.1004 -0.1057
14911TIP3    H166224   6.713   1.624  12.659 -0.7884  0.1349 -1.5130
14911TIP3    H266225   6.773   1.747  12.724 -1.8938  0.1733 -0.5396
14912TIP3   OH266226   5.365   4.990   2.403  0.0422 -0.0571  0.0524
14912TIP3    H166227   5.432   5.026   2.346 -1.7481  1.1651 -1.3887
14912TIP3    H266228   5.308   4.939   2.345 -0.7808 -0.3299  1.0595
14913TIP3   OH266229   4.935   5.748  17.251 -0.1940  0.5242  0.7409
14913TIP3    H166230   4.943   5.700  17.334 -1.9188 -1.3594 -0.0808
14913TIP3    H266231   4.841   5.744  17.231  0.3011 -0.0484 -1.8190
14914TIP3   OH266232   3.094   0.934  14.252  0.4803  0.6723 -0.4331
14914TIP3    H166233   3.008   0.893  14.263  0.6960  0.0383 -1.0263
14914TIP3    H266234   3.152   0.885  14.310  0.8768 -0.3318 -1.6379
14915TIP3   OH266235   3.125   4.768   6.139  0.3354  0.1882  0.3700
14915TIP3    H166236   3.075   4.848   6.157  0.0285 -0.6295  3.7562
14915TIP3    H266237   3.101   4.708   6.210  0.4505 -3.0419 -2.1019
14916TIP3   OH266238   0.872   3.984  15.408  0.1998 -0.7207 -0.1355
14916TIP3    H166239   0.883   3.920  15.478  3.0971  0.7221  0.9168
14916TIP3    H266240   0.810   4.048  15.443  0.8398 -0.5530  0.7007
14917TIP3   OH266241   6.165   0.646   0.107 -0.2596 -0.8108  0.0660
14917TIP3    H166242   6.088   0.589   0.111 -0.7744 -0.1291  3.8401
14917TIP3    H266243   6.238   0.588   0.128 -0.2684 -0.7851  0.1681
14918TIP3   OH266244   1.753   6.768   5.670 -0.1739 -0.0187  0.2664
14918TIP3    H166245   1.770   6.833   5.602  0.4900  0.5229  0.9347
14918TIP3    H266246   1.764   6.816   5.752 -0.5010 -0.7771  0.7625
14919TIP3   OH266247   1.151   2.894  11.246 -0.0346 -0.1964  0.3930
14919TIP3    H166248   1.185   2.962  11.305  0.4248  0.3988 -0.5300
14919TIP3    H266249   1.229   2.855  11.207 -0.3410 -0.4225  0.0010
14920TIP3   OH266250   4.806   5.316  17.119 -0.2455  0.4786 -0.0892
14920TIP3    H166251   4.792   5.346  17.029 -2.0653  2.8763  0.8781
14920TIP3    H266252   4.901   5.306  17.127 -0.0256  0.6263 -2.1429
14921TIP3   OH266253   6.746   1.532   1.992  0.2633 -0.2428 -0.1857
14921TIP3    H166254   6.734   1.622   2.023 -2.7556 -0.6046  0.0473
14921TIP3    H266255   6.785   1.541   1.906  2.9029  1.0820  1.0275
14922TIP3   OH266256   1.916   6.545  14.525  0.0795  0.1890 -0.1280
14922TIP3    H166257   1.907   6.449  14.526 -2.0219  0.3404 -0.1109
14922TIP3    H266258   1.933   6.568  14.617 -1.2325 -0.0708  0.2074
14923TIP3   OH266259   2.984   3.755   5.130 -0.6452  0.2838 -0.4905
14923TIP3    H166260   2.946   3.671   5.103  0.1188  0.1010 -1.0311
14923TIP3    H266261   2.929   3.820   5.088  0.0225  0.0095 -1.8511
14924TIP3   OH266262   5.642   1.882   1.249 -0.1175 -0.1953 -0.4010
14924TIP3    H166263   5.550   1.903   1.235 -0.3561 -0.1869  1.0362
14924TIP3    H266264   5.686   1.967   1.248 -0.1348 -0.1921 -1.0051
14925TIP3   OH266265   0.359   3.148  10.595  0.2198 -0.0484  0.6378
14925TIP3    H166266   0.427   3.127  10.531  0.0137  1.8103 -0.2633
14925TIP3    H266267   0.401   3.137  10.680  0.8543 -1.4257  0.1678
14926TIP3   OH266268   6.065   1.659   1.415  0.4099 -0.0200 -0.4185
14926TIP3    H166269   6.017   1.740   1.432 -1.8196 -1.2568 -0.5249
14926TIP3    H266270   6.156   1.687   1.406 -0.2066  2.3848  0.1336
14927TIP3   OH266271   5.912   5.540   2.430  0.3673 -0.6077  0.2573
14927TIP3    H166272   5.834   5.573   2.386 -0.1054 -1.2592  0.5833
14927TIP3    H266273   5.946   5.473   2.371 -1.4585 -3.0062  1.7221
14928TIP3   OH266274   4.321   1.249   3.226  0.2272  0.7854  0.0915
14928TIP3    H166275   4.375   1.213   3.156 -1.8934  0.1362 -1.2933
14928TIP3    H266276   4.318   1.180   3.292 -0.6981 -0.1241 -0.8500
14929TIP3   OH266277   3.721   2.991   4.258 -0.4811 -0.2361  0.0393
14929TIP3    H166278   3.808   2.962   4.286 -0.5728 -0.5736 -0.0149
14929TIP3    H266279   3.661   2.934   4.306 -0.6573 -0.3439 -0.3070
14930TIP3   OH266280   2.934   4.839  15.031 -0.1208  0.1657 -0.0939
14930TIP3    H166281   2.938   4.935  15.035 -0.7618  0.2226 -0.5926
14930TIP3    H266282   2.875   4.815  15.103 -1.3182  0.2792 -1.0027
14931TIP3   OH266283   1.138   3.499  14.553 -0.3275 -0.0029  0.1451
14931TIP3    H166284   1.217   3.552  14.541  0.1527 -0.5785  0.6478
14931TIP3    H266285   1.076   3.557  14.597  0.2596  0.0875  0.8733
14932TIP3   OH266286   3.229   2.841  10.058 -0.4485  0.1986 -0.9627
14932TIP3    H166287   3.266   2.873   9.976  0.3358  1.8276 -0.0138
14932TIP3    H266288   3.134   2.849  10.047 -0.3130  1.6157 -1.2544
14933TIP3   OH266289   1.186   3.085   0.758 -0.1642  0.1888  0.1487
14933TIP3    H166290   1.093   3.105   0.748 -0.2980  0.9050  2.2494
14933TIP3    H266291   1.197   3.069   0.852  1.6424 -0.9768 -0.1999
14934TIP3   OH266292   6.758   1.803   1.305 -0.1997 -0.2917  0.1031
14934TIP3    H166293   6.707   1.877   1.273 -0.9330 -1.3616 -1.3404
14934TIP3    H266294   6.741   1.733   1.242 -0.8355 -2.2167  2.2486
14935TIP3   OH266295   4.020   1.170  12.374  0.2284  0.1216  0.0798
14935TIP3    H166296   3.995   1.106  12.440 -0.1265 -0.9979 -1.0966
14935TIP3    H266297   3.971   1.249  12.397 -2.6147 -1.2737 -0.7669
14936TIP3   OH266298   2.578   0.609  16.425 -0.2259 -0.0351 -0.7349
14936TIP3    H166299   2.625   0.676  16.475  1.0859  0.1751 -2.1921
14936TIP3    H266300   2.521   0.659  16.367  0.6038 -0.1617 -1.6790
14937TIP3   OH266301   4.937   1.659  16.864  0.0404  0.0427  0.1445
14937TIP3    H166302   5.026   1.694  16.868 -0.0227  0.2202  0.0231
14937TIP3    H266303   4.888   1.709  16.929  0.0281 -0.0522  0.2089
14938TIP3   OH266304   3.116   3.523  15.675  0.0234  0.5991  0.5903
14938TIP3    H166305   3.210   3.536  15.686 -0.1389 -0.2522  4.7273
14938TIP3    H266306   3.108   3.435  15.640  0.8725 -0.4752  2.8764
14939TIP3   OH266307   2.400   0.581   5.698 -0.2427  0.2908  0.4187
14939TIP3    H166308   2.387   0.643   5.769 -1.0203 -0.1386  0.6683
14939TIP3    H266309   2.311   0.559   5.668  0.0649  0.2817 -0.5219
14940TIP3   OH266310   6.279   0.487  16.269 -0.0881 -0.3627 -0.0153
14940TIP3    H166311   6.230   0.503  16.188 -2.8433 -0.4506  1.4959
14940TIP3    H266312   6.334   0.565  16.280 -2.4862  1.4542 -0.1059
14941TIP3   OH266313   3.942   1.719   3.913  0.0131 -0.3857  0.5620
14941TIP3    H166314   3.993   1.763   3.846 -2.4272  0.9165 -0.5810
14941TIP3    H266315   4.006   1.668   3.963  2.1461 -0.0652 -1.6752
14942TIP3   OH266316   6.577   0.621  13.844  0.1014 -0.9837 -0.0618
14942TIP3    H166317   6.580   0.682  13.771  2.5516 -1.7371 -0.7000
14942TIP3    H266318   6.577   0.676  13.922  0.9878 -0.1630 -0.6291
14943TIP3   OH266319   2.003   6.075  11.967  0.5862 -0.2231 -0.2882
14943TIP3    H166320   2.065   6.142  11.941  0.2865  0.2680  0.2345
14943TIP3    H266321   1.919   6.104  11.930  0.7476 -1.1281 -1.4014
14944TIP3   OH266322   3.175   4.524  11.890  0.0017 -0.6102 -0.2677
14944TIP3    H166323   3.189   4.577  11.811  0.3783  0.3565  0.4260
14944TIP3    H266324   3.242   4.456  11.885  1.9019  1.0869  0.5671
14945TIP3   OH266325   5.658   3.932   4.907  0.0519 -0.2771  0.3108
14945TIP3    H166326   5.699   3.850   4.937  2.3179  0.1613 -1.2797
14945TIP3    H266327   5.589   3.904   4.847  0.9008 -1.0706 -0.3326
14946TIP3   OH266328   0.914   4.077  10.766 -0.2797  0.1035  0.1776
14946TIP3    H166329   0.894   4.134  10.691 -0.1707 -1.0420 -0.7569
14946TIP3    H266330   0.880   3.991  10.740 -0.6258 -0.2307  1.6349
14947TIP3   OH266331   4.900   4.275  14.798 -0.6426  0.1113  0.1051
14947TIP3    H166332   4.822   4.229  14.769  1.2234 -2.7399 -0.8209
14947TIP3    H266333   4.878   4.309  14.885 -2.6778 -1.2137  0.1575
14948TIP3   OH266334   2.544   5.891  12.422 -0.0348 -0.4899  0.6834
14948TIP3    H166335   2.485   5.896  12.347 -0.2111 -0.2298  0.8388
14948TIP3    H266336   2.610   5.826  12.396 -0.5465 -0.9920  0.6240
14949TIP3   OH266337   5.534   4.948  11.871 -0.1237  0.0904  0.2073
14949TIP3    H166338   5.477   4.898  11.929 -0.7663  0.6842  0.0908
14949TIP3    H266339   5.552   4.887  11.798 -0.4422 -0.1681  0.3433
14950TIP3   OH266340   3.086   5.954   0.631 -0.3583 -0.5256 -0.4047
14950TIP3    H166341   3.039   6.037   0.628  2.4591  1.5401  3.4161
14950TIP3    H266342   3.073   5.921   0.720  3.1002 -1.0845  0.0598
14951TIP3   OH266343   5.504   2.196  15.008  0.5872  0.0615  0.2871
14951TIP3    H166344   5.493   2.268  14.946  0.7495 -0.3119 -0.1802
14951TIP3    H266345   5.436   2.211  15.073  0.6608  0.6766  0.2349
14952TIP3   OH266346   0.127   6.618   1.013 -0.1167 -0.4355 -0.2541
14952TIP3    H166347   0.041   6.628   0.972 -0.2771 -1.9290 -0.3514
14952TIP3    H266348   0.108   6.599   1.105  0.1532  0.1731 -0.0658
14953TIP3   OH266349   1.062   4.219  15.506 -0.4401  0.0530 -0.0609
14953TIP3    H166350   1.054   4.209  15.411 -2.4178  0.7961 -0.0061
14953TIP3    H266351   1.137   4.278  15.517 -0.8172  0.7875 -1.2312
14954TIP3   OH266352   3.181   6.686  15.158  0.0034  0.1369 -0.1348
14954TIP3    H166353   3.138   6.637  15.088 -1.9360  1.2874  0.1750
14954TIP3    H266354   3.204   6.769  15.118  0.6381  0.0751  0.0965
14955TIP3   OH266355   4.221   4.309   5.858  0.5634  0.1782  0.6964
14955TIP3    H166356   4.162   4.320   5.784 -0.2699  2.4868  1.6036
14955TIP3    H266357   4.171   4.340   5.933  2.3741  0.6761  1.7475
14956TIP3   OH266358   2.532   4.275  12.736 -0.4344  0.0125 -0.3853
14956TIP3    H166359   2.511   4.367  12.751 -1.7794 -0.1005 -1.3826
14956TIP3    H266360   2.479   4.251  12.660 -0.3775 -1.6822  0.0820
14957TIP3   OH266361   0.322   0.383  14.801 -0.5550  0.3522 -0.5723
14957TIP3    H166362   0.287   0.393  14.889  1.7977 -1.9441  0.8025
14957TIP3    H266363   0.322   0.471  14.764 -1.8527  1.3423  1.6263
14958TIP3   OH266364   0.495   0.466  12.853 -0.7225 -0.2604 -0.3868
14958TIP3    H166365   0.423   0.406  12.835 -0.1326 -1.0875 -0.0141
14958TIP3    H266366   0.454   0.539  12.900 -0.9248 -1.9375  2.1910
14959TIP3   OH266367   0.823   6.315  14.713  0.0001 -0.4117  0.1124
14959TIP3    H166368   0.731   6.334  14.732 -0.5269 -0.9356 -1.7299
14959TIP3    H266369   0.829   6.317  14.617  2.0384  0.1518  0.2005
14960TIP3   OH266370   1.906   4.583  15.366 -0.2793  1.0671  0.4098
14960TIP3    H166371   1.850   4.625  15.301  1.0219  1.9015 -0.2177
14960TIP3    H266372   1.936   4.503  15.324  0.4708  1.5499  0.0037
14961TIP3   OH266373   3.575   5.152   5.831  0.1939  0.2064 -0.5766
14961TIP3    H166374   3.502   5.137   5.771  1.9006 -2.9745 -2.1096
14961TIP3    H266375   3.622   5.068   5.834  1.6406  0.9495  3.3510
14962TIP3   OH266376   1.772   0.698   2.381 -0.4185 -0.3777  0.4284
14962TIP3    H166377   1.805   0.788   2.389 -0.3661 -0.3358 -0.2461
14962TIP3    H266378   1.837   0.653   2.328  1.0230 -1.5849  3.0083
14963TIP3   OH266379   3.415   3.968   6.285 -0.1412 -0.0402  0.1248
14963TIP3    H166380   3.419   4.053   6.328 -0.2695 -0.5833  1.2416
14963TIP3    H266381   3.507   3.939   6.280 -0.0704  0.2621 -0.4945
14964TIP3   OH266382   3.774   2.353  12.047 -0.3379  0.3731  0.5211
14964TIP3    H166383   3.764   2.281  12.109  0.4472  0.8795  1.2657
14964TIP3    H266384   3.829   2.416  12.093  0.4071  0.6959 -0.7720
14965TIP3   OH266385   3.764   1.123  12.219  0.3703 -0.1970  0.6299
14965TIP3    H166386   3.775   1.134  12.124  1.2878  1.1677  0.8736
14965TIP3    H266387   3.850   1.143  12.256 -0.7110  2.4417  1.9744
14966TIP3   OH266388   5.888   2.933  11.389 -0.2406 -0.1900 -0.1687
14966TIP3    H166389   5.804   2.887  11.383 -1.3693  1.8532 -0.9149
14966TIP3    H266390   5.947   2.881  11.334 -1.9641  0.2082 -2.5681
14967TIP3   OH266391   6.763   3.590  12.307 -0.0350 -0.0021  0.0012
14967TIP3    H166392   6.689   3.538  12.277 -0.4280  0.4224  0.2338
14967TIP3    H266393   6.772   3.660  12.242 -0.8106  0.8473  0.7765
14968TIP3   OH266394   0.915   4.830   6.015  0.3969 -0.1047  0.1099
14968TIP3    H166395   0.900   4.801   5.925 -1.6790  2.2474 -0.3773
14968TIP3    H266396   0.861   4.772   6.068  0.9262 -0.9134 -0.2082
14969TIP3   OH266397   6.645   0.369  15.244  0.4278 -0.2141 -0.1748
14969TIP3    H166398   6.688   0.435  15.190  0.6406  0.6129  0.9973
14969TIP3    H266399   6.612   0.305  15.180  0.3138  0.9443 -1.3137
14970TIP3   OH266400   2.043   1.498  10.928 -0.2000 -0.3502 -0.4495
14970TIP3    H166401   1.972   1.512  10.990  0.1932 -2.0854  0.4652
14970TIP3    H266402   2.007   1.440  10.861 -0.1040  0.0926 -0.8963
14971TIP3   OH266403   1.228   5.997   3.277 -0.0857  0.2742 -0.3380
14971TIP3    H166404   1.143   6.009   3.320 -0.5259  0.0257 -1.1347
14971TIP3    H266405   1.224   5.909   3.240  1.2599 -0.5269  1.2589
14972TIP3   OH266406   3.100   1.640  16.065 -0.0791 -0.6560  0.0981
14972TIP3    H166407   3.051   1.682  15.995  1.7296  0.1418 -0.7403
14972TIP3    H266408   3.111   1.549  16.037 -0.3564 -0.6289 -0.0940
14973TIP3   OH266409   0.417   3.912  14.966  0.2262 -0.0379 -0.4641
14973TIP3    H166410   0.409   3.961  14.884  1.6206  0.6411 -0.2337
14973TIP3    H266411   0.354   3.955  15.025 -0.2613 -0.0653 -0.9518
14974TIP3   OH266412   6.811   5.966  14.841 -0.1128  0.1650 -0.4833
14974TIP3    H166413   6.810   5.889  14.785 -1.1536  0.0886 -0.3747
14974TIP3    H266414   6.898   5.965  14.881 -0.2923 -1.2578 -0.0692
14975TIP3   OH266415   2.431   4.121   1.207  0.1726  0.2258 -0.0935
14975TIP3    H166416   2.463   4.204   1.170  0.0792  0.3106  0.0147
14975TIP3    H266417   2.510   4.080   1.244  0.0657  0.7035  0.6868
14976TIP3   OH266418   4.602   3.301   0.046 -0.2698 -0.1205 -1.1858
14976TIP3    H166419   4.657   3.241   0.096 -0.5204  0.6392  0.0412
14976TIP3    H266420   4.647   3.385   0.052 -1.3812  0.4516 -0.4095
14977TIP3   OH266421   0.426   3.944  12.281 -0.1599  0.2312 -0.1705
14977TIP3    H166422   0.435   3.990  12.365 -1.2427  0.4873 -0.1784
14977TIP3    H266423   0.457   4.007  12.216 -0.7019  0.5859 -0.0905
14978TIP3   OH266424   5.132   4.872   2.221 -0.7521  0.2148  0.0875
14978TIP3    H166425   5.066   4.813   2.187  0.5412 -0.7041 -0.9357
14978TIP3    H266426   5.086   4.925   2.286 -3.1175  1.4307 -2.4015
14979TIP3   OH266427   0.530   0.829  14.610  0.5628 -0.0907 -0.3417
14979TIP3    H166428   0.575   0.745  14.613 -2.1141 -1.6311  1.5653
14979TIP3    H266429   0.476   0.825  14.530  0.4457 -0.1923 -0.2578
14980TIP3   OH266430   3.689   5.204   3.736 -0.0105  0.3858  0.5565
14980TIP3    H166431   3.664   5.151   3.661 -1.1367  0.5720  0.7833
14980TIP3    H266432   3.744   5.146   3.789 -0.2958 -0.1807  0.2449
14981TIP3   OH266433   3.282   3.249   4.265 -0.7079 -0.0267  0.4181
14981TIP3    H166434   3.200   3.237   4.312 -0.5106 -0.2527  0.7079
14981TIP3    H266435   3.287   3.174   4.205 -0.1858 -0.6123  1.1822
14982TIP3   OH266436   2.049   0.932  13.560 -0.1208 -0.3454  0.5017
14982TIP3    H166437   2.071   0.852  13.608  1.2289 -0.0205  0.4764
14982TIP3    H266438   2.099   0.924  13.478 -1.1734 -0.1742 -0.1657
14983TIP3   OH266439   2.866   3.304  13.123 -0.7662  0.0804  0.3271
14983TIP3    H166440   2.855   3.399  13.131 -1.4111 -0.0649  1.3463
14983TIP3    H266441   2.934   3.293  13.056 -1.3800  1.2352 -0.5247
14984TIP3   OH266442   5.092   5.784   4.315 -0.9915  0.1602 -0.1064
14984TIP3    H166443   5.184   5.808   4.305 -1.3250  2.1311  1.0235
14984TIP3    H266444   5.082   5.762   4.408 -1.8166  0.7602 -0.0375
14985TIP3   OH266445   6.143   1.078  11.849  0.2000  0.4978  0.5010
14985TIP3    H166446   6.217   1.069  11.788 -0.5755  1.9778 -0.7028
14985TIP3    H266447   6.107   0.989  11.856  1.2747  0.0134  0.0728
14986TIP3   OH266448   0.506   6.430   0.695  0.5181 -0.3203 -0.0892
14986TIP3    H166449   0.424   6.439   0.744  1.7060 -1.8309  2.3174
14986TIP3    H266450   0.574   6.461   0.755  1.9115 -0.9084 -1.3006
14987TIP3   OH266451   6.591   4.538  10.660 -0.2971 -0.0208 -0.8756
14987TIP3    H166452   6.638   4.598  10.718  0.0305 -1.0305 -0.0756
14987TIP3    H266453   6.499   4.548  10.685 -0.1042 -0.9128  0.3027
14988TIP3   OH266454   5.291   3.663  16.943  0.4968  0.3041 -0.4108
14988TIP3    H166455   5.312   3.634  17.031  1.7209  1.0786 -0.4219
14988TIP3    H266456   5.305   3.586  16.888  0.6940  0.0902 -0.0614
14989TIP3   OH266457   3.496   1.057   3.014 -0.1053 -0.0751 -0.0644
14989TIP3    H166458   3.484   0.963   2.997 -2.6864  0.2208 -0.2398
14989TIP3    H266459   3.530   1.092   2.932  0.6032 -0.7874 -0.0912
14990TIP3   OH266460   1.403   4.069  11.823 -0.1920  0.5358 -0.5833
14990TIP3    H166461   1.319   4.033  11.793 -0.9648  1.4134  0.4579
14990TIP3    H266462   1.416   4.030  11.910  0.1799  0.8787 -0.4834
14991TIP3   OH266463   2.807   0.140   6.050 -0.1079  0.2954  0.1648
14991TIP3    H166464   2.820   0.218   6.103 -0.6137  1.2993 -1.1336
14991TIP3    H266465   2.840   0.164   5.963  1.1588 -1.4559  0.0865
14992TIP3   OH266466   2.484   5.304   0.428 -0.0541 -0.1819 -0.0444
14992TIP3    H166467   2.528   5.385   0.405 -0.1782  0.1734  0.9130
14992TIP3    H266468   2.417   5.293   0.360  0.8465 -0.2126 -0.9465
14993TIP3   OH266469   5.865   4.958   5.375  0.4205  0.6723  0.3674
14993TIP3    H166470   5.926   4.891   5.347  0.4122  1.1433 -0.8288
14993TIP3    H266471   5.918   5.018   5.429  0.9674  0.9310 -0.4372
14994TIP3   OH266472   1.846   6.330   3.362  0.0472 -0.4435  0.1867
14994TIP3    H166473   1.833   6.388   3.436 -1.6691 -0.3941 -0.1096
14994TIP3    H266474   1.757   6.309   3.331  0.6441 -2.2058 -0.4983
14995TIP3   OH266475   4.214   4.372  13.544 -0.2833  0.4001  0.5036
14995TIP3    H166476   4.213   4.392  13.637  0.6323  2.2867  0.1600
14995TIP3    H266477   4.295   4.322  13.531 -0.3098  0.3119  0.6789
14996TIP3   OH266478   6.627   4.134   1.157  0.3067 -0.2752 -0.7531
14996TIP3    H166479   6.563   4.161   1.091  1.4630  4.0805 -0.3710
14996TIP3    H266480   6.712   4.149   1.115  1.0502  0.1484  0.8385
14997TIP3   OH266481   1.686   5.658  12.170 -0.0010  0.7234  0.4607
14997TIP3    H166482   1.662   5.680  12.261  0.3034 -1.9418  1.2907
14997TIP3    H266483   1.753   5.590  12.179 -0.0297  0.3314 -1.7807
14998TIP3   OH266484   0.429   4.776   2.281  0.2862  0.6506  0.4418
14998TIP3    H166485   0.359   4.813   2.335  1.3290  0.4126  2.0344
14998TIP3    H266486   0.510   4.797   2.329  1.0653 -1.9017  0.3998
14999TIP3   OH266487   2.983   1.824   3.817 -0.1432 -0.1483 -0.6099
14999TIP3    H166488   3.018   1.737   3.833 -1.8561 -1.2302 -2.3161
14999TIP3    H266489   3.047   1.866   3.760 -0.2481 -1.0530 -1.4090
15000TIP3   OH266490   3.075   4.592  13.937 -0.0168  0.6638 -0.2042
15000TIP3    H166491   3.078   4.566  14.029  0.4645 -1.1683 -0.6920
15000TIP3    H266492   3.089   4.687  13.939  1.3640  0.4910  1.5378
15001TIP3   OH266493   1.574   1.118   2.139 -0.4889 -0.4167  0.0547
15001TIP3    H166494   1.594   1.025   2.143 -0.2642 -0.3446  0.5747
15001TIP3    H266495   1.659   1.162   2.146 -0.4102 -0.1885 -1.6915
15002TIP3   OH266496   5.007   6.396  17.043 -0.0176 -0.6006  0.2111
15002TIP3    H166497   4.936   6.425  17.100 -0.6324 -1.2056 -0.2328
15002TIP3    H266498   5.059   6.337  17.098  0.2128 -0.0729  0.5696
15003TIP3   OH266499   0.837   4.663  13.722  0.4993  0.4202  0.0248
15003TIP3    H166500   0.879   4.748  13.738 -0.8654  1.0749  0.2607
15003TIP3    H266501   0.768   4.657  13.788 -0.2434 -0.3002 -0.7812
15004TIP3   OH266502   2.767   3.318  10.438 -0.7206  0.2669 -0.0065
15004TIP3    H166503   2.797   3.257  10.506 -0.5112  1.0625  0.6287
15004TIP3    H266504   2.841   3.324  10.377 -0.5536  0.2620  0.1951
15005TIP3   OH266505   4.810   5.122   4.805 -0.7759 -0.1844  0.1619
15005TIP3    H166506   4.797   5.137   4.898  1.5089 -1.4152  0.7497
15005TIP3    H266507   4.781   5.032   4.790  1.5903 -1.0523  0.3856
15006TIP3   OH266508   5.467   3.027  16.377  0.7446  0.0121 -0.2210
15006TIP3    H166509   5.413   3.078  16.437  1.7014  0.9751 -0.1315
15006TIP3    H266510   5.410   2.958  16.344 -0.8675  1.6609 -1.0205
15007TIP3   OH266511   5.769   5.136   2.069 -0.2359  0.2444  0.0037
15007TIP3    H166512   5.704   5.069   2.087 -0.5747  0.7788  0.8505
15007TIP3    H266513   5.782   5.180   2.153  0.1979  1.0326 -0.4599
15008TIP3   OH266514   6.423   1.376   3.050 -0.5551 -0.0317  0.2691
15008TIP3    H166515   6.368   1.364   3.128  0.0457  0.2001  0.7359
15008TIP3    H266516   6.461   1.289   3.034  0.3678  0.2111  1.0430
15009TIP3   OH266517   4.937   3.696   1.444  0.4999  0.0622  0.5155
15009TIP3    H166518   4.913   3.683   1.352  0.5209 -1.2813  0.6831
15009TIP3    H266519   4.980   3.782   1.445 -0.0437  0.3733 -0.6115
15010TIP3   OH266520   4.040   1.945  12.735  0.8442  0.6756 -0.0037
15010TIP3    H166521   4.017   1.881  12.802 -0.8779  1.6139  0.3591
15010TIP3    H266522   4.092   1.896  12.672  0.0246 -0.9454  0.5222
15011TIP3   OH266523   2.961   3.194   4.947  0.3627  0.4697 -0.1813
15011TIP3    H166524   3.027   3.261   4.929  0.2534  0.8241  0.7250
15011TIP3    H266525   2.987   3.156   5.031  0.3610 -0.5576 -0.6269
15012TIP3   OH266526   3.901   5.835  12.462 -0.4895  0.6901  0.3836
15012TIP3    H166527   3.964   5.844  12.390 -1.7992 -1.3427 -1.1277
15012TIP3    H266528   3.950   5.860  12.540  1.2703  2.0707 -1.0763
15013TIP3   OH266529   2.956   2.450  16.670  0.2917 -0.0447 -0.1038
15013TIP3    H166530   2.950   2.434  16.764 -0.4470  1.3362  0.1198
15013TIP3    H266531   2.885   2.399  16.632  0.8337 -0.9143  0.0305
15014TIP3   OH266532   1.855   4.521   1.829  0.0739  0.3041  0.1489
15014TIP3    H166533   1.945   4.554   1.834  0.2721 -0.2759  0.4768
15014TIP3    H266534   1.863   4.434   1.792 -0.1496 -0.5040  1.8743
15015TIP3   OH266535   4.966   0.086  15.625 -0.4110  0.0678 -0.4378
15015TIP3    H166536   4.960  -0.004  15.592 -1.0471 -0.1436  0.2016
15015TIP3    H266537   4.970   0.140  15.547 -2.0709 -0.4041 -0.8927
15016TIP3   OH266538   0.736   2.041  11.665  0.2851  0.1997  0.2671
15016TIP3    H166539   0.711   1.958  11.624 -0.2346  0.2253  0.5240
15016TIP3    H266540   0.695   2.108  11.610  3.0293  0.4925 -1.6804
15017TIP3   OH266541   3.127   2.610  16.985 -0.5441  0.2660  0.0364
15017TIP3    H166542   3.097   2.687  16.936 -0.4627  0.0671 -0.3271
15017TIP3    H266543   3.219   2.629  17.003  0.0867 -0.6557 -1.8879
15018TIP3   OH266544   6.351   5.372   5.836 -0.5410 -0.6036  0.9129
15018TIP3    H166545   6.369   5.355   5.928  1.5688 -1.5466  0.3949
15018TIP3    H266546   6.284   5.308   5.812  1.3904 -2.7973  1.0145
15019TIP3   OH266547   5.903   1.978   5.870 -0.1677  0.0214  0.4931
15019TIP3    H166548   5.909   1.957   5.963  2.1229  1.3288  0.7083
15019TIP3    H266549   5.994   1.978   5.839 -0.8897 -0.6150 -1.8147
15020TIP3   OH266550   0.759   5.795   6.004  0.5038 -0.3332  0.3335
15020TIP3    H166551   0.755   5.793   6.100  0.3939 -1.7485  0.3257
15020TIP3    H266552   0.791   5.708   5.980  0.7682  0.0897 -0.9165
15021TIP3   OH266553   5.436   1.220  11.967  0.0742 -1.0792  0.2803
15021TIP3    H166554   5.404   1.305  11.997 -1.2482 -1.3564 -0.3020
15021TIP3    H266555   5.363   1.182  11.919  2.2270 -0.3330 -4.0858
15022TIP3   OH266556   2.354   3.820  13.878  0.1262 -0.0037  0.1777
15022TIP3    H166557   2.301   3.741  13.891  1.1917 -0.7321  0.2397
15022TIP3    H266558   2.346   3.838  13.784 -0.8817  0.3832  0.3273
15023TIP3   OH266559   3.076   3.242   2.501  0.0229  0.5502  0.3076
15023TIP3    H166560   3.158   3.204   2.470  0.8325  0.7703  2.0488
15023TIP3    H266561   3.086   3.336   2.487  0.8894  0.7770  2.2297
15024TIP3   OH266562   6.477   0.863  13.638  0.0796 -0.3788 -0.4549
15024TIP3    H166563   6.438   0.800  13.577  0.7384 -0.8262 -0.4304
15024TIP3    H266564   6.464   0.948  13.597 -2.5687 -0.2827  0.4243
15025TIP3   OH266565   5.510   1.419   2.571  0.3841 -0.1153 -0.1049
15025TIP3    H166566   5.482   1.444   2.659  2.0382  0.4592  0.2949
15025TIP3    H266567   5.507   1.500   2.521 -1.6107 -0.6390 -0.9199
15026TIP3   OH266568   4.796   0.121  11.883 -0.9812 -0.0636  0.3730
15026TIP3    H166569   4.751   0.138  11.800 -0.3156 -1.2881 -0.2674
15026TIP3    H266570   4.774   0.030  11.903 -0.2479 -0.1124  0.9674
15027TIP3   OH266571   6.788   6.633   1.930 -0.5275 -0.1043 -0.0544
15027TIP3    H166572   6.852   6.579   1.976 -0.1202  0.5888  0.2164
15027TIP3    H266573   6.708   6.626   1.982 -0.9236 -1.5593 -0.7862
15028TIP3   OH266574   3.666   0.634  14.743  0.8282 -0.2330 -0.7817
15028TIP3    H166575   3.736   0.579  14.708  1.9015  0.8601 -0.4225
15028TIP3    H266576   3.704   0.676  14.820 -0.1622  0.5184 -0.6770
15029TIP3   OH266577   2.061   2.839  16.181  0.1969 -0.2551 -0.0584
15029TIP3    H166578   2.020   2.835  16.267  0.4871  0.2793  0.1145
15029TIP3    H266579   2.081   2.748  16.159 -0.0870 -0.4141  0.3364
15030TIP3   OH266580   3.969   1.265  16.154 -0.1615 -0.1149  0.2740
15030TIP3    H166581   4.019   1.273  16.073  0.1608 -1.1245  0.3708
15030TIP3    H266582   3.903   1.335  16.148  2.4750  2.6576  1.0746
15031TIP3   OH266583   0.316   1.649  16.906  0.2777 -0.2741  0.1984
15031TIP3    H166584   0.245   1.712  16.892  0.4395  0.3183  1.8576
15031TIP3    H266585   0.393   1.690  16.867  0.2544  0.2995  0.7415
15032TIP3   OH266586   2.704   0.633   3.488 -0.1218 -0.4101 -0.2007
15032TIP3    H166587   2.797   0.632   3.513 -0.0100 -1.4883 -0.5778
15032TIP3    H266588   2.662   0.687   3.554  0.8219  0.3443 -0.1939
15033TIP3   OH266589   4.599   5.676   2.913  0.5255  0.2166  0.0231
15033TIP3    H166590   4.603   5.623   2.992  0.2131  0.3709  0.1423
15033TIP3    H266591   4.618   5.765   2.942  2.9502 -0.0744 -0.4494
15034TIP3   OH266592   2.906   2.221   0.609 -0.6802  1.1362 -0.1200
15034TIP3    H166593   2.846   2.294   0.595 -0.1332  2.0113  1.7058
15034TIP3    H266594   2.865   2.170   0.679 -0.6151  0.1959 -0.7607
15035TIP3   OH266595   1.141   6.014   2.507 -0.6079  1.0833  0.0482
15035TIP3    H166596   1.201   6.086   2.527 -0.0989  0.5000  0.6951
15035TIP3    H266597   1.159   5.993   2.415  0.8231  0.3661  0.4521
15036TIP3   OH266598   2.441   6.540  13.172 -0.4586 -0.7170  0.2196
15036TIP3    H166599   2.405   6.488  13.244  0.4360  0.4630  1.5913
15036TIP3    H266600   2.528   6.566  13.203  0.0824 -0.4169 -1.4380
15037TIP3   OH266601   3.449   1.865   0.427 -0.5027 -0.5396  0.3209
15037TIP3    H166602   3.447   1.812   0.348 -1.4064  0.7961 -0.5914
15037TIP3    H266603   3.393   1.819   0.489  1.1081 -2.2030  0.6467
15038TIP3   OH266604   4.941   4.473  15.018 -0.4648  0.0605 -0.3698
15038TIP3    H166605   4.954   4.449  15.110  0.6005 -0.9546 -0.7630
15038TIP3    H266606   5.014   4.432  14.972 -1.4272 -0.1106 -1.7912
15039TIP3   OH266607   3.080   0.180   1.511  0.0609 -0.3627  0.1150
15039TIP3    H166608   3.110   0.145   1.427  2.4666  3.4276 -0.8718
15039TIP3    H266609   3.161   0.203   1.557 -1.2563  0.0019  2.4038
15040TIP3   OH266610   6.343   2.291  13.230 -0.3088 -0.5678 -0.3683
15040TIP3    H166611   6.378   2.205  13.207  1.1314  0.5290 -2.4940
15040TIP3    H266612   6.380   2.309  13.317 -0.1207 -1.7859 -0.1668
15041TIP3   OH266613   6.139   5.182  15.163 -0.8317 -0.0347 -0.4195
15041TIP3    H166614   6.077   5.197  15.235  0.0605  0.4477  0.2703
15041TIP3    H266615   6.174   5.095  15.178 -1.8727 -0.6187 -1.2394
15042TIP3   OH266616   4.136   5.422   1.100  0.3794  0.0647  0.3276
15042TIP3    H166617   4.194   5.358   1.142  1.2752  1.1630  0.7929
15042TIP3    H266618   4.195   5.483   1.057 -0.4722  0.5732 -0.1330
15043TIP3   OH266619   5.784   6.416   1.646 -0.2580 -0.6738 -0.1956
15043TIP3    H166620   5.818   6.505   1.657  0.9314 -1.1812  0.4170
15043TIP3    H266621   5.828   6.365   1.714  0.7014 -2.1792 -1.8635
15044TIP3   OH266622   5.061   3.510   2.578 -0.9011  0.2102  0.2846
15044TIP3    H166623   5.047   3.457   2.656  0.6269  1.1916  1.2833
15044TIP3    H266624   5.129   3.574   2.603 -0.4407  0.6417 -1.7934
15045TIP3   OH266625   0.067   2.653  13.720 -0.1933 -0.1515 -0.0631
15045TIP3    H166626   0.015   2.731  13.738  1.2282  0.6703  0.6476
15045TIP3    H266627   0.090   2.661  13.628 -2.0744 -1.0259 -0.6614
15046TIP3   OH266628   3.890   4.982  13.905  0.0647 -0.1876 -0.1184
15046TIP3    H166629   3.806   5.023  13.882  0.1767  0.2558  0.2337
15046TIP3    H266630   3.935   5.049  13.956 -1.0388 -1.7828  3.2517
15047TIP3   OH266631   1.402   6.739  11.376 -0.4037 -0.2806  0.1363
15047TIP3    H166632   1.476   6.683  11.354 -0.2704 -0.3744  0.7851
15047TIP3    H266633   1.350   6.687  11.437 -0.6976  0.0016  0.1288
15048TIP3   OH266634   0.928   5.759  11.952  0.0461 -0.4676 -0.1286
15048TIP3    H166635   0.909   5.759  11.858  0.0349 -0.9155 -0.1310
15048TIP3    H266636   0.873   5.827  11.988 -0.4559 -0.7497 -0.3509
15049TIP3   OH266637   4.904   3.665   4.675 -0.1010 -0.1280 -0.6405
15049TIP3    H166638   4.999   3.672   4.687  0.0259 -1.3326 -0.7844
15049TIP3    H266639   4.892   3.662   4.580 -0.1409 -1.3750 -0.6136
15050TIP3   OH266640   1.572   2.883   2.188  0.1158 -0.1264 -0.1374
15050TIP3    H166641   1.477   2.881   2.172  0.2474 -0.9465 -0.8299
15050TIP3    H266642   1.584   2.959   2.245 -0.8588  0.4981 -0.7273
15051TIP3   OH266643   1.367   6.335   0.974 -0.2740 -0.3333  0.0598
15051TIP3    H166644   1.410   6.387   1.042  1.1429 -2.2710  0.7304
15051TIP3    H266645   1.399   6.372   0.892  1.2780 -0.5601  0.5332
15052TIP3   OH266646   1.865   1.610  14.139  0.4960  0.4001  0.4375
15052TIP3    H166647   1.927   1.537  14.131  1.8849  1.6927 -1.3388
15052TIP3    H266648   1.835   1.605  14.230  1.4891 -1.6203  0.7283
15053TIP3   OH266649   2.547   0.793   2.133  0.2834  0.2042 -0.3414
15053TIP3    H166650   2.596   0.735   2.191  0.9485  0.2893 -0.8112
15053TIP3    H266651   2.458   0.757   2.132 -0.2699  1.2609  2.2096
15054TIP3   OH266652   5.941   0.765   4.159  0.1465 -0.0351 -0.3326
15054TIP3    H166653   5.912   0.674   4.171  0.1932  0.0256  0.3122
15054TIP3    H266654   6.026   0.758   4.116  0.5476 -0.3413  0.4786
15055TIP3   OH266655   4.158   6.342   0.487 -0.2708 -0.2193  0.1504
15055TIP3    H166656   4.087   6.344   0.423  0.1282 -0.4609 -0.3076
15055TIP3    H266657   4.201   6.257   0.472  0.6279  0.2747 -0.1469
15056TIP3   OH266658   2.021   1.028  11.664  0.2437 -0.4972 -0.2296
15056TIP3    H166659   1.934   1.043  11.702 -0.3904 -1.7385 -1.1580
15056TIP3    H266660   2.020   1.076  11.581  0.9585  0.6201  0.3728
15057TIP3   OH266661   6.090   3.573  15.165  0.2789  0.0205  0.4318
15057TIP3    H166662   6.021   3.580  15.099  0.3339 -0.5019  0.3229
15057TIP3    H266663   6.065   3.498  15.218  0.7228 -0.1191  0.4466
15058TIP3   OH266664   0.306   4.358   2.425 -0.5851 -0.2970  0.0146
15058TIP3    H166665   0.274   4.289   2.366 -0.8172  0.4840 -0.7879
15058TIP3    H266666   0.377   4.315   2.474 -1.3422 -1.3795  0.2027
15059TIP3   OH266667   5.621   0.866  16.217 -0.3040 -0.3225  0.4969
15059TIP3    H166668   5.714   0.879  16.234 -0.7949  2.6740  1.5327
15059TIP3    H266669   5.611   0.771  16.209  2.3313 -1.0192  3.4208
15060TIP3   OH266670   3.173   3.192  13.393 -0.0145 -0.0316 -0.1480
15060TIP3    H166671   3.182   3.275  13.439  1.4869  0.3232 -1.0188
15060TIP3    H266672   3.081   3.190  13.365 -0.8456 -0.0156  2.3015
15061TIP3   OH266673   4.809   2.476   5.163  1.1388 -0.1508  0.6432
15061TIP3    H166674   4.744   2.515   5.105 -1.0301 -0.7998  2.4829
15061TIP3    H266675   4.860   2.551   5.194 -1.0085  0.9570  1.7812
15062TIP3   OH266676   0.487   5.673   5.993  0.3360 -0.4759  0.0844
15062TIP3    H166677   0.491   5.626   6.077 -0.2517 -1.2076 -0.2859
15062TIP3    H266678   0.424   5.624   5.941  1.9289 -1.0435 -1.4065
15063TIP3   OH266679   3.961   0.196  11.691  0.8442 -0.1966 -0.1198
15063TIP3    H166680   3.890   0.217  11.630  0.8851 -0.4210 -0.2464
15063TIP3    H266681   4.031   0.163  11.635  0.0696 -2.6388  0.2054
15064TIP3   OH266682   0.674   0.928  14.913 -0.2293 -0.1674  0.1803
15064TIP3    H166683   0.594   0.980  14.920 -1.5615 -2.1382  0.5677
15064TIP3    H266684   0.738   0.975  14.966 -1.8377  0.2954  1.8176
15065TIP3   OH266685   1.409   4.105  17.055 -0.6337  0.1517 -0.0675
15065TIP3    H166686   1.335   4.164  17.041 -0.4426  0.0502 -1.7854
15065TIP3    H266687   1.377   4.020  17.025 -0.9441 -0.7185  2.4889
15066TIP3   OH266688   5.446   5.228  11.322  0.1312 -0.5963 -0.7492
15066TIP3    H166689   5.365   5.179  11.340  0.9629 -1.8573 -0.2666
15066TIP3    H266690   5.491   5.175  11.255  1.5675 -1.1092  0.5772
15067TIP3   OH266691   0.768   3.909  12.507  0.2819  0.0305  0.0425
15067TIP3    H166692   0.815   3.940  12.429  0.6087  0.2691  0.3352
15067TIP3    H266693   0.776   3.980  12.570 -2.5389  1.1460 -0.7089
15068TIP3   OH266694   0.216   4.835  13.694  0.3905  0.2001  0.1895
15068TIP3    H166695   0.160   4.851  13.618  0.2214  0.2018  0.3146
15068TIP3    H266696   0.270   4.914  13.700 -0.3532  0.6857  0.7279
15069TIP3   OH266697   1.097   2.033  16.426 -0.5489 -0.3656 -0.1423
15069TIP3    H166698   1.192   2.031  16.437 -0.6258 -0.5515  0.5723
15069TIP3    H266699   1.063   2.023  16.515 -1.2267  1.4855 -0.1531
15070TIP3   OH266700   0.952   4.325   4.235  0.2243  0.0823 -0.1002
15070TIP3    H166701   1.003   4.394   4.192  0.4468  0.5512  0.8724
15070TIP3    H266702   0.875   4.314   4.181  0.3358  0.8869 -0.4358
15071TIP3   OH266703   0.764   4.208   6.394  0.6918 -0.2612  0.2140
15071TIP3    H166704   0.711   4.133   6.368 -1.0361  1.2764 -0.9182
15071TIP3    H266705   0.714   4.251   6.463  2.4100 -0.9406  1.9823
15072TIP3   OH266706   5.584   2.102  14.001 -0.4281  0.0132 -0.1351
15072TIP3    H166707   5.673   2.094  13.966 -0.3651  0.7186 -0.1356
15072TIP3    H266708   5.564   2.014  14.034  0.3683 -0.0884  0.1058
15073TIP3   OH266709   3.454   6.415   1.823 -0.3867  0.0989 -0.5798
15073TIP3    H166710   3.507   6.401   1.901 -0.4207  1.8060 -0.2198
15073TIP3    H266711   3.398   6.337   1.818 -0.6078  0.0874  1.2795
15074TIP3   OH266712   5.413   6.497   1.228 -0.6348 -0.5935 -0.2080
15074TIP3    H166713   5.373   6.440   1.163 -1.2923 -0.7492  0.3172
15074TIP3    H266714   5.502   6.512   1.196 -0.5764 -1.5989 -0.5442
15075TIP3   OH266715   4.569   4.764  14.567  0.2282  0.2876 -0.3336
15075TIP3    H166716   4.548   4.702  14.497  0.3451 -0.3858  0.2105
15075TIP3    H266717   4.487   4.776  14.614  0.1081  0.8778 -0.6910
15076TIP3   OH266718   2.089   6.297  12.783 -0.2550 -0.2932  0.9839
15076TIP3    H166719   2.104   6.247  12.703  0.1681  1.0691  0.1733
15076TIP3    H266720   2.133   6.246  12.852 -0.1995 -1.2306  0.2649
15077TIP3   OH266721   4.186   4.487  15.326  0.3674 -0.3468  0.8681
15077TIP3    H166722   4.269   4.442  15.343  1.3384  0.8901 -0.4214
15077TIP3    H266723   4.141   4.430  15.263  1.2933  0.1004 -0.2370
15078TIP3   OH266724   5.961   1.038   1.775  0.2403 -0.9777 -0.2040
15078TIP3    H166725   6.023   1.071   1.840 -0.2419 -2.8385  1.3372
15078TIP3    H266726   5.876   1.071   1.804  0.4164  1.6678 -2.3774
15079TIP3   OH266727   4.646   4.588   5.800  0.0036  0.1618 -0.1338
15079TIP3    H166728   4.734   4.569   5.770  0.2320  0.7665  0.1392
15079TIP3    H266729   4.655   4.600   5.895 -0.6174 -1.2032  0.1238
15080TIP3   OH266730   6.365   6.143  14.637  0.0198  0.1841  0.2228
15080TIP3    H166731   6.389   6.102  14.720 -0.1358  0.9091  0.6402
15080TIP3    H266732   6.347   6.234  14.660  0.2641  0.4680 -0.6600
15081TIP3   OH266733   4.438   1.397  16.753  0.1232 -1.0112  0.0679
15081TIP3    H166734   4.488   1.415  16.832 -0.0170 -0.0481 -0.0465
15081TIP3    H266735   4.381   1.474  16.743 -1.1389 -1.9251  0.0180
15082TIP3   OH266736   6.724   2.103   2.470 -0.1964  0.4656  0.2696
15082TIP3    H166737   6.790   2.060   2.524 -0.4389 -0.2082  0.0409
15082TIP3    H266738   6.666   2.146   2.532 -1.2376 -1.3993  0.6470
15083TIP3   OH266739   3.963   5.075   5.731  0.1746  0.2023  0.9148
15083TIP3    H166740   3.988   5.165   5.755 -1.2955  0.5436  1.2879
15083TIP3    H266741   3.933   5.082   5.641  0.1938  0.0641  0.8983
15084TIP3   OH266742   4.147   0.447  14.236  0.1113  0.3618 -0.2181
15084TIP3    H166743   4.194   0.405  14.309  0.6391  0.6818 -0.3725
15084TIP3    H266744   4.066   0.396  14.229 -0.5653  1.1285  1.4409
15085TIP3   OH266745   4.094   1.118  15.006 -0.0744  0.2518  0.2441
15085TIP3    H166746   4.137   1.176  15.069 -0.3385  0.9273 -0.1818
15085TIP3    H266747   4.125   1.149  14.921 -0.1393 -0.3049  0.0198
15086TIP3   OH266748   4.759   6.196  13.482 -0.6109  0.1790 -0.0469
15086TIP3    H166749   4.854   6.197  13.479 -0.5959 -1.2714 -0.5978
15086TIP3    H266750   4.732   6.277  13.438  0.3517 -0.0330 -1.0611
15087TIP3   OH266751   0.857   2.818   2.377 -0.1471 -0.6320 -0.0372
15087TIP3    H166752   0.823   2.754   2.440  0.7359 -0.7674  0.3176
15087TIP3    H266753   0.779   2.852   2.332 -0.8117 -0.4352  1.2175
15088TIP3   OH266754   2.249   4.399  13.732  0.2725 -0.3031 -0.2311
15088TIP3    H166755   2.276   4.464  13.668  1.7288 -1.6452 -1.0527
15088TIP3    H266756   2.245   4.446  13.815  0.9371  0.8918 -0.8589
15089TIP3   OH266757   2.514   1.682   0.600  0.2794 -0.0947  0.0415
15089TIP3    H166758   2.444   1.739   0.569 -0.1260  0.3967  1.7969
15089TIP3    H266759   2.481   1.644   0.681  1.7381 -0.4618  0.4979
15090TIP3   OH266760   2.998   1.834   0.702 -0.0340  0.0233  0.3652
15090TIP3    H166761   2.980   1.746   0.733  0.6887 -0.2003  0.1556
15090TIP3    H266762   3.016   1.884   0.782 -2.7546  0.5819  0.7452
15091TIP3   OH266763   4.750   3.818  11.310 -0.0366 -0.3626  0.0637
15091TIP3    H166764   4.710   3.734  11.330  0.5899 -0.7055 -0.1124
15091TIP3    H266765   4.785   3.808  11.221 -0.2480  0.1947 -0.0939
15092TIP3   OH266766   3.309   1.627  11.158 -0.0866  0.3179  0.0482
15092TIP3    H166767   3.379   1.570  11.125 -0.6667 -0.8584  0.7724
15092TIP3    H266768   3.232   1.604  11.106 -0.1152  1.0598 -0.2346
15093TIP3   OH266769   1.049   3.581  13.249 -0.5927  0.5057 -0.0433
15093TIP3    H166770   1.080   3.603  13.337 -0.7887 -0.0761  0.1776
15093TIP3    H266771   0.966   3.629  13.240 -0.6842  0.3904  0.1757
15094TIP3   OH266772   2.948   5.883  13.162 -0.6041 -0.4998  0.0144
15094TIP3    H166773   2.911   5.965  13.132  1.1914 -0.2455 -1.7350
15094TIP3    H266774   2.933   5.822  13.090  0.6021 -0.8878  0.0729
15095TIP3   OH266775   3.773   6.601  12.622 -0.0775  0.2279 -0.1721
15095TIP3    H166776   3.721   6.566  12.693  0.3555  0.3809  0.2250
15095TIP3    H266777   3.749   6.693  12.617  1.4081  0.7362  1.1763
15096TIP3   OH266778   2.427   5.301   1.380 -0.1871  0.1200 -0.4197
15096TIP3    H166779   2.428   5.210   1.349 -0.6840 -0.5066  1.2392
15096TIP3    H266780   2.493   5.346   1.327  0.9099 -1.4892 -0.4981
15097TIP3   OH266781   6.338   4.184   4.819  0.0637  0.1850 -0.0754
15097TIP3    H166782   6.391   4.105   4.805 -1.0447 -0.1916 -2.6444
15097TIP3    H266783   6.383   4.252   4.770 -0.2945  0.5638  0.1207
15098TIP3   OH266784   3.369   1.199   4.176 -0.0116  0.4265 -0.0638
15098TIP3    H166785   3.275   1.206   4.157 -0.7673  0.9391  3.2545
15098TIP3    H266786   3.411   1.202   4.090 -3.0587 -0.9108 -1.7690
15099TIP3   OH266787   6.412   1.879   5.095  1.0656  0.0920  0.0356
15099TIP3    H166788   6.366   1.964   5.096  1.9013  0.5711 -0.7570
15099TIP3    H266789   6.437   1.864   5.186 -0.8631 -0.3125  0.5492
15100TIP3   OH266790   3.099   3.315  10.593 -0.3516 -0.6569  0.5324
15100TIP3    H166791   3.097   3.366  10.674 -1.7515  0.0762  0.0725
15100TIP3    H266792   3.014   3.272  10.590 -0.3547 -0.6040 -0.5821
15101TIP3   OH266793   6.548   5.917   3.706 -0.7132  0.5071 -0.5474
15101TIP3    H166794   6.564   5.989   3.767 -0.8791 -1.5006  2.0186
15101TIP3    H266795   6.461   5.884   3.729 -0.9962 -0.0466 -2.2253
15102TIP3   OH266796   0.252   3.102  14.795  1.2351  0.5267 -0.1986
15102TIP3    H166797   0.214   3.091  14.882  0.2902 -0.1338 -0.6825
15102TIP3    H266798   0.236   3.018  14.751 -2.0746  2.1032 -2.4348
15103TIP3   OH266799   5.166   2.419  10.630  0.1598  0.1486  0.1380
15103TIP3    H166800   5.130   2.355  10.691 -0.9255  0.4727 -0.1387
15103TIP3    H266801   5.156   2.378  10.544 -0.1087  0.4821  0.0052
15104TIP3   OH266802   4.787   0.567   6.431 -0.1100  0.2185 -0.6083
15104TIP3    H166803   4.869   0.568   6.381  0.5591  1.0055  0.4702
15104TIP3    H266804   4.731   0.631   6.387  0.7189  1.4030  0.0062
15105TIP3   OH266805   1.380   4.556  16.858 -0.6145 -0.1534  0.0009
15105TIP3    H166806   1.349   4.635  16.902 -1.8963 -0.2470 -0.6877
15105TIP3    H266807   1.338   4.485  16.906 -0.2129 -0.3668  0.0323
15106TIP3   OH266808   6.695   2.176  11.215 -0.3463 -0.7189  0.4353
15106TIP3    H166809   6.767   2.180  11.152  0.3271 -1.9930  1.0672
15106TIP3    H266810   6.623   2.138  11.165 -0.2766 -0.3609  0.0538
15107TIP3   OH266811   3.194   0.668   5.576  0.5411 -0.8285 -0.0843
15107TIP3    H166812   3.200   0.717   5.658  2.0671  0.5058 -0.9509
15107TIP3    H266813   3.102   0.641   5.571 -0.3803  1.8904  0.4844
15108TIP3   OH266814   0.292   2.077  12.689 -0.3638  0.0015  0.1622
15108TIP3    H166815   0.359   2.012  12.707 -1.1453 -0.8652  0.0022
15108TIP3    H266816   0.324   2.157  12.732  1.0556 -0.2114 -0.4369
15109TIP3   OH266817   1.948   5.957  13.445  0.3695  0.0749  0.7947
15109TIP3    H166818   1.897   5.956  13.364 -1.4513  1.4524  1.8426
15109TIP3    H266819   2.039   5.959  13.416 -0.2196  0.1989 -1.1980
15110TIP3   OH266820   4.464   5.942  16.393 -0.0262 -0.1545 -0.9969
15110TIP3    H166821   4.387   5.955  16.449  0.9192 -2.1006  0.9148
15110TIP3    H266822   4.433   5.962  16.305 -2.7224 -0.7893 -0.2908
15111TIP3   OH266823   6.370   5.755   5.658  0.6331 -1.0980 -0.0255
15111TIP3    H166824   6.410   5.809   5.726  0.7884  0.0490 -0.9867
15111TIP3    H266825   6.444   5.714   5.613  0.9179  1.7487 -2.3996
15112TIP3   OH266826   6.049   3.377  14.265  0.3070  0.5637 -0.0724
15112TIP3    H166827   5.978   3.339  14.214 -0.1228  0.9056  0.2714
15112TIP3    H266828   6.111   3.305  14.278 -1.4540 -0.6155  2.3812
15113TIP3   OH266829   0.203   3.175  12.625  0.1150  0.0098 -0.8556
15113TIP3    H166830   0.298   3.188  12.623  0.1495 -0.2645 -1.1080
15113TIP3    H266831   0.168   3.260  12.652  0.5065 -0.3406  0.8424
15114TIP3   OH266832   2.277   1.378   2.452 -0.5417 -0.5616 -0.3052
15114TIP3    H166833   2.254   1.410   2.539 -0.8224 -0.4617 -0.4136
15114TIP3    H266834   2.261   1.453   2.394  0.8244 -0.2313 -0.2882
15115TIP3   OH266835   2.989   0.147  10.271 -0.2533  0.0919 -0.4364
15115TIP3    H166836   2.928   0.118  10.339 -0.9817  1.3583 -0.5257
15115TIP3    H266837   3.039   0.068  10.248 -0.3548 -0.4805  1.1842
15116TIP3   OH266838   2.912   2.708  16.609  0.0220  0.2088 -0.2002
15116TIP3    H166839   2.941   2.631  16.657  0.1284  0.8381  0.7631
15116TIP3    H266840   2.908   2.679  16.518 -1.3605 -1.3649  0.3077
15117TIP3   OH266841   4.004   0.586   3.439  0.6816 -0.8485 -0.0674
15117TIP3    H166842   4.096   0.568   3.460  0.5718 -3.0412 -1.2673
15117TIP3    H266843   3.956   0.556   3.517  0.9176 -0.2231  0.3298
15118TIP3   OH266844   3.092   4.783  12.465 -0.0160  0.0068  0.1622
15118TIP3    H166845   3.087   4.846  12.393  0.8486 -0.7598 -0.5997
15118TIP3    H266846   3.174   4.805  12.510 -0.7884  0.7905  1.2355
15119TIP3   OH266847   6.343   5.595  11.560  0.3258 -0.2762 -0.3098
15119TIP3    H166848   6.431   5.601  11.598  0.9435 -1.3324 -1.4815
15119TIP3    H266849   6.352   5.632  11.472 -0.4809 -0.1152 -0.3318
15120TIP3   OH266850   2.842   4.756  15.484 -0.2701 -0.2900  0.0287
15120TIP3    H166851   2.922   4.803  15.459 -1.1046  0.3122 -1.6908
15120TIP3    H266852   2.815   4.798  15.566  0.6297  0.1712  0.1120
15121TIP3   OH266853   3.621   5.275   2.732 -0.3232 -0.4688  0.1078
15121TIP3    H166854   3.537   5.261   2.775 -1.3279 -1.0798 -1.9181
15121TIP3    H266855   3.598   5.311   2.646  1.5640  0.5701 -0.0234
15122TIP3   OH266856   2.859   0.280   0.553  0.3286  0.2782  0.2826
15122TIP3    H166857   2.912   0.347   0.509  0.6344  0.5021  0.9689
15122TIP3    H266858   2.848   0.314   0.642 -2.5864  1.1749 -0.3180
15123TIP3   OH266859   5.830   5.603  13.747  0.2173  0.9237  0.0325
15123TIP3    H166860   5.815   5.511  13.767  1.9150  0.5496 -0.2421
15123TIP3    H266861   5.801   5.613  13.656  0.2017  0.6184  0.0047
15124TIP3   OH266862   1.429   5.394  16.201  0.0461  0.6224  0.5714
15124TIP3    H166863   1.419   5.316  16.257 -0.6226  0.3470  0.0873
15124TIP3    H266864   1.438   5.467  16.262 -1.2747  0.4043  1.0645
15125TIP3   OH266865   0.826   1.315  11.385 -0.3057  0.2937 -0.2568
15125TIP3    H166866   0.889   1.363  11.331  0.1836 -0.5686 -0.4670
15125TIP3    H266867   0.862   1.227  11.391 -1.3384 -0.1298 -0.1198
15126TIP3   OH266868   4.960   5.265  12.917 -0.4080  0.0317 -0.3624
15126TIP3    H166869   4.974   5.313  12.835 -1.4008  0.8511 -0.0694
15126TIP3    H266870   4.892   5.314  12.963 -0.4765 -0.8954  0.5749
15127TIP3   OH266871   4.069   5.736  10.365  0.1291 -0.0385  0.0646
15127TIP3    H166872   4.017   5.726  10.446 -1.1763 -2.5637 -0.9756
15127TIP3    H266873   4.054   5.827  10.339  1.3823  1.1808  3.1065
15128TIP3   OH266874   4.311   5.184   0.457 -1.0302  0.0684  0.2469
15128TIP3    H166875   4.260   5.263   0.439 -1.5254 -0.5240 -0.9927
15128TIP3    H266876   4.391   5.195   0.405 -2.1072 -1.2703 -1.7944
15129TIP3   OH266877   5.787   2.990  13.241  0.1575 -0.4518  0.0175
15129TIP3    H166878   5.774   3.082  13.260 -0.2953 -0.3943 -0.5435
15129TIP3    H266879   5.729   2.972  13.167  1.8816 -0.6371 -1.3620
15130TIP3   OH266880   0.883   2.185   2.843 -0.4603 -0.0765  0.2962
15130TIP3    H166881   0.882   2.273   2.805 -0.7757 -1.2156 -2.6350
15130TIP3    H266882   0.965   2.180   2.891  0.1860  1.4045 -0.5799
15131TIP3   OH266883   1.345   6.657   1.672  0.6619  0.1682  0.0998
15131TIP3    H166884   1.292   6.698   1.603  0.1851  0.8067  0.8266
15131TIP3    H266885   1.282   6.630   1.738  1.2408  1.2024  1.1143
15132TIP3   OH266886   1.360   3.757  10.321 -0.2402 -0.4152 -0.2955
15132TIP3    H166887   1.396   3.836  10.362 -1.9761 -0.0121  0.5462
15132TIP3    H266888   1.289   3.789  10.266  0.2726 -1.2426 -1.4969
15133TIP3   OH266889   5.970   3.791   2.168  0.7865 -0.3318 -0.4695
15133TIP3    H166890   5.909   3.853   2.126 -1.5784 -1.3121  1.2706
15133TIP3    H266891   5.919   3.710   2.176  2.5360 -1.3781  0.5993
15134TIP3   OH266892   0.459   6.725  13.729  0.0186  0.0630  0.4273
15134TIP3    H166893   0.375   6.739  13.772 -0.9610 -0.7860 -1.1286
15134TIP3    H266894   0.483   6.811  13.694 -0.7772  0.0618 -0.1214
15135TIP3   OH266895   4.129   3.567   4.543  0.5239  0.0774  0.4999
15135TIP3    H166896   4.213   3.612   4.540  0.5242  0.0562 -1.0672
15135TIP3    H266897   4.148   3.479   4.573  0.8174  0.5135  1.6417
15136TIP3   OH266898   0.953   1.134   3.763  0.6161 -0.4723 -0.1378
15136TIP3    H166899   0.952   1.042   3.790  0.8280 -0.5014 -0.2322
15136TIP3    H266900   1.045   1.154   3.749  0.4228 -0.8704 -2.2745
15137TIP3   OH266901   1.904   1.867   1.950  0.1859 -0.2523  0.5187
15137TIP3    H166902   1.886   1.961   1.947 -0.5749 -0.3618  1.2161
15137TIP3    H266903   1.834   1.829   1.897  0.7164 -0.4028 -0.0794
15138TIP3   OH266904   3.191   3.798   5.642  0.2565  0.2539 -0.1770
15138TIP3    H166905   3.214   3.760   5.557  0.3324 -0.1167  0.0100
15138TIP3    H266906   3.275   3.815   5.685  0.2030 -0.4276  0.2072
15139TIP3   OH266907   5.870   4.180   2.604  0.4031  0.0087 -0.1442
15139TIP3    H166908   5.800   4.133   2.650  1.0180 -0.1553  0.6474
15139TIP3    H266909   5.886   4.127   2.525 -0.7266  0.3426 -0.6204
15140TIP3   OH266910   3.328   1.643  16.740 -0.0036 -0.0904 -0.0886
15140TIP3    H166911   3.361   1.672  16.655 -0.5825 -0.1385 -0.3372
15140TIP3    H266912   3.252   1.699  16.756  0.0925 -0.0965  0.3893
15141TIP3   OH266913   3.063   2.316   5.610  0.2993  0.3364 -0.3192
15141TIP3    H166914   3.147   2.279   5.581 -0.5890 -0.3602 -2.2101
15141TIP3    H266915   3.060   2.403   5.571  0.4291  0.6501  0.3513
15142TIP3   OH266916   0.766   6.610   2.069 -0.1030 -0.4194 -0.3598
15142TIP3    H166917   0.683   6.656   2.074 -0.3819 -0.8337 -0.9803
15142TIP3    H266918   0.787   6.586   2.160 -0.9857 -0.8774 -0.2719
15143TIP3   OH266919   6.109   2.893  10.336  0.1805  0.6097 -0.2246
15143TIP3    H166920   6.079   2.807  10.307  1.4717 -0.0281  0.2448
15143TIP3    H266921   6.039   2.953  10.311 -0.9673 -0.6434 -0.1068
15144TIP3   OH266922   2.031   5.247   5.416  1.0071 -0.0126  0.5198
15144TIP3    H166923   1.976   5.319   5.384  1.7756 -0.2402 -1.4498
15144TIP3    H266924   2.092   5.230   5.344 -0.0998 -3.6487  0.2538
15145TIP3   OH266925   1.242   5.242  13.057  0.1539  0.2416 -0.0483
15145TIP3    H166926   1.206   5.232  12.969 -0.5047 -3.5164  0.4668
15145TIP3    H266927   1.177   5.296  13.103 -1.3628 -0.7354 -0.9496
15146TIP3   OH266928   6.334   0.140   0.065  0.1981 -0.3191 -0.2052
15146TIP3    H166929   6.252   0.112   0.106  0.9675  0.3218  1.9546
15146TIP3    H266930   6.392   0.064   0.072  0.6399  0.0903  0.8812
15147TIP3   OH266931   3.637   5.795  13.752  0.1222 -0.3698  0.0232
15147TIP3    H166932   3.612   5.884  13.730 -0.7971 -0.8330 -0.9025
15147TIP3    H266933   3.598   5.779  13.838 -0.7107 -0.2567 -0.3249
15148TIP3   OH266934   0.939   3.945   3.947 -0.4500 -0.2022  0.8280
15148TIP3    H166935   0.854   3.925   3.987 -0.3391 -0.8611  0.7464
15148TIP3    H266936   0.952   3.875   3.883 -0.6759  0.8944 -0.4672
15149TIP3   OH266937   2.083   0.930  14.607  0.3032 -0.2553  0.1274
15149TIP3    H166938   2.131   0.931  14.525 -0.2740  2.0634 -0.2698
15149TIP3    H266939   2.151   0.923  14.675  0.8633 -1.0401 -0.5007
15150TIP3   OH266940   3.162   1.782  14.141 -0.0784 -0.5100  0.5289
15150TIP3    H166941   3.241   1.732  14.160 -0.2106 -0.9866 -0.1215
15150TIP3    H266942   3.194   1.862  14.098  0.0748 -0.5285  0.6097
15151TIP3   OH266943   1.840   1.052   4.173 -0.5138 -0.2456 -0.2577
15151TIP3    H166944   1.799   1.131   4.138 -1.2780  0.5068  2.1902
15151TIP3    H266945   1.778   1.019   4.238  1.4809 -0.6785  1.5218
15152TIP3   OH266946   1.657   1.200   3.208 -0.0542  0.6180 -0.1922
15152TIP3    H166947   1.638   1.111   3.178  0.7710  0.2886  0.2533
15152TIP3    H266948   1.572   1.245   3.205 -0.9862 -0.8797  1.9785
15153TIP3   OH266949   2.738   2.971  14.595  0.1163  0.1747  0.2554
15153TIP3    H166950   2.651   3.006  14.573  0.3252  0.2580 -0.4786
15153TIP3    H266951   2.761   2.916  14.520 -0.0076 -1.1898  1.1901
15154TIP3   OH266952   2.875   0.928  12.573 -0.0010 -0.0438 -0.0047
15154TIP3    H166953   2.825   0.896  12.498 -0.3981  1.7527 -0.5588
15154TIP3    H266954   2.808   0.941  12.641  0.1522 -0.3484  0.2060
15155TIP3   OH266955   4.097   4.752  13.058  0.5826  0.7262 -0.2223
15155TIP3    H166956   4.030   4.796  13.111 -1.1687 -2.5684  0.5721
15155TIP3    H266957   4.168   4.816  13.052 -0.7172  2.7124  2.8366
15156TIP3   OH266958   6.745   1.454  12.445 -0.3433 -0.3589 -0.0643
15156TIP3    H166959   6.739   1.376  12.390  0.9263  0.2997 -1.2015
15156TIP3    H266960   6.731   1.527  12.385  1.8341  0.4167  0.2949
15157TIP3   OH266961   5.864   0.768   1.369  0.1632 -0.2263  0.0572
15157TIP3    H166962   5.930   0.708   1.403 -0.6518 -0.4399  1.3549
15157TIP3    H266963   5.889   0.783   1.278  0.9413 -1.7404 -0.0073
15158TIP3   OH266964   4.087   3.235   5.915  0.0061 -0.0982  0.5360
15158TIP3    H166965   4.031   3.161   5.892 -1.0909  0.8754 -0.0424
15158TIP3    H266966   4.039   3.281   5.984  1.4945 -0.8616  2.1615
15159TIP3   OH266967   4.578   5.258   2.789  0.6581 -0.4117  0.0720
15159TIP3    H166968   4.589   5.327   2.723  0.1867  0.7793  1.1873
15159TIP3    H266969   4.646   5.275   2.853  0.3017 -0.7544  0.5479
15160TIP3   OH266970   0.181   1.768   0.198 -0.1065 -0.0607  0.2395
15160TIP3    H166971   0.207   1.787   0.289 -1.0945  0.5237  0.4125
15160TIP3    H266972   0.128   1.688   0.205  0.5576 -0.5270  0.0502
15161TIP3   OH266973   3.330   4.494  13.498 -0.0793  0.9782  0.1872
15161TIP3    H166974   3.388   4.556  13.453 -0.2131  0.9010 -0.0936
15161TIP3    H266975   3.261   4.548  13.536 -0.6132  0.9330 -0.6959
15162TIP3   OH266976   5.826   5.543   0.474  0.1459 -0.0824  0.3313
15162TIP3    H166977   5.888   5.498   0.416 -0.2757  1.0962 -1.0940
15162TIP3    H266978   5.748   5.488   0.473  0.2054 -0.1615 -0.0738
15163TIP3   OH266979   6.647   0.693   5.450  0.3248  0.2512  0.3137
15163TIP3    H166980   6.604   0.611   5.426 -0.3280  0.1861  1.5957
15163TIP3    H266981   6.728   0.695   5.399  2.1908 -2.9180  2.8319
15164TIP3   OH266982   2.140   5.419  13.560 -0.2335  0.2413 -0.1815
15164TIP3    H166983   2.160   5.443  13.650 -0.6642 -0.8400  0.2190
15164TIP3    H266984   2.057   5.464  13.541 -1.3372 -1.2853  0.7568
15165TIP3   OH266985   4.866   5.512   1.495  0.5796  0.6612  0.5391
15165TIP3    H166986   4.958   5.514   1.520  0.3624  1.1316  1.3708
15165TIP3    H266987   4.840   5.604   1.491  0.1592  0.5347  0.2611
15166TIP3   OH266988   2.694   4.469  10.713 -0.0778  0.5748  0.1821
15166TIP3    H166989   2.737   4.422  10.785  0.5621  1.2225  0.2419
15166TIP3    H266990   2.763   4.481  10.648 -1.1587 -1.9805 -1.6101
15167TIP3   OH266991   4.405   4.259   1.776 -0.2011 -0.2371  0.2630
15167TIP3    H166992   4.364   4.308   1.705  1.1420 -0.1528 -0.5004
15167TIP3    H266993   4.368   4.171   1.769 -0.9426  0.0775  0.2011
15168TIP3   OH266994   4.600   5.929  14.381 -0.0007  0.4220 -0.3615
15168TIP3    H166995   4.626   5.876  14.456 -1.3216  0.2587  0.0056
15168TIP3    H266996   4.626   5.878  14.305 -0.1540 -0.1988 -0.0033
15169TIP3   OH266997   2.177   3.073   4.629 -0.4259  0.5406 -0.1462
15169TIP3    H166998   2.233   3.150   4.634  1.0292 -0.5177  0.8910
15169TIP3    H266999   2.143   3.062   4.718 -1.3257  0.4893 -0.4914
15170TIP3   OH267000   5.317   4.891   4.649  0.8029  0.3918 -0.0385
15170TIP3    H167001   5.341   4.862   4.561  0.2621 -2.4693  0.6524
15170TIP3    H267002   5.251   4.959   4.635 -0.3232 -0.9839 -1.8985
15171TIP3   OH267003   6.708   4.475   1.090  1.1443 -0.8090  0.4003
15171TIP3    H167004   6.727   4.424   1.168  3.4955  1.5139  1.4978
15171TIP3    H267005   6.773   4.446   1.025 -0.2674 -2.1353 -0.5035
15172TIP3   OH267006   6.176   1.218   4.787  0.5183 -0.2695 -0.6277
15172TIP3    H167007   6.216   1.140   4.750 -0.6047 -1.2981  0.2375
15172TIP3    H267008   6.245   1.284   4.785  2.6050 -2.1672  1.5457
15173TIP3   OH267009   3.221   3.409  16.920  0.0795  0.0762  0.3401
15173TIP3    H167010   3.170   3.363  16.854 -0.1527  1.6034 -0.6002
15173TIP3    H267011   3.192   3.372  17.003 -0.8957 -0.6727 -0.3187
15174TIP3   OH267012   5.234   4.087   4.474  0.1975  0.5181  0.8312
15174TIP3    H167013   5.142   4.096   4.449 -0.0000  2.6953  2.0821
15174TIP3    H267014   5.244   3.994   4.496 -1.8289  0.3132  1.0966
15175TIP3   OH267015   4.354   1.400   2.214 -0.1099  0.1421  0.1537
15175TIP3    H167016   4.406   1.476   2.239 -0.7018  0.3060  0.9198
15175TIP3    H267017   4.323   1.364   2.297 -3.4885  1.6444 -0.2761
15176TIP3   OH267018   0.047   3.778  13.196  0.0372 -0.9076 -0.0678
15176TIP3    H167019  -0.008   3.798  13.272  1.6475  3.6173  0.2303
15176TIP3    H267020  -0.010   3.795  13.121  0.0774  0.8482  0.2417
15177TIP3   OH267021   0.646   4.944  13.302  0.3589  0.1606  0.0155
15177TIP3    H167022   0.685   5.002  13.367  1.6311 -0.6871  0.0415
15177TIP3    H267023   0.558   4.927  13.336  0.5638  0.7128  0.8705
15178TIP3   OH267024   2.899   5.572   0.755 -0.1022  0.0456 -0.6044
15178TIP3    H167025   2.902   5.570   0.660 -0.6618  0.0518 -0.6256
15178TIP3    H267026   2.850   5.493   0.780 -0.5758  0.4100 -0.3589
15179TIP3   OH267027   3.494   0.768   0.483 -0.3034 -0.9407 -0.8057
15179TIP3    H167028   3.537   0.785   0.399  0.0078 -0.1739 -0.4996
15179TIP3    H267029   3.451   0.683   0.471 -1.0060 -0.4351 -2.0376
15180TIP3   OH267030   0.039   1.761  13.319  0.1465 -0.2371  0.0769
15180TIP3    H167031  -0.022   1.821  13.361 -1.1904 -1.3657 -0.1616
15180TIP3    H267032  -0.016   1.708  13.261  1.3992 -1.1359 -0.3444
15181TIP3   OH267033   1.511   3.908   5.940 -0.6454 -0.9039 -0.1280
15181TIP3    H167034   1.473   3.974   5.882  0.5495  0.0769  0.1450
15181TIP3    H267035   1.436   3.865   5.981 -1.4758 -0.6513 -1.3340
15182TIP3   OH267036   4.761   0.130  16.089 -0.1620  0.7628  0.5233
15182TIP3    H167037   4.735   0.044  16.123 -1.3501  1.0849  0.5023
15182TIP3    H267038   4.730   0.192  16.156 -1.4931  1.3199 -0.5514
15183TIP3   OH267039   5.890   0.080   0.864 -0.2345  0.8042 -0.1223
15183TIP3    H167040   5.906   0.162   0.817  1.2798  0.3735 -0.4343
15183TIP3    H267041   5.968   0.027   0.846 -0.3328  0.0149  1.5921
15184TIP3   OH267042   0.068   5.644  13.616 -0.2806 -0.1124 -0.3199
15184TIP3    H167043   0.032   5.678  13.698  1.5585  1.7804 -0.2020
15184TIP3    H267044   0.102   5.557  13.639 -1.9217 -0.6206  0.2923
15185TIP3   OH267045   3.716   4.878   3.621  0.0134  0.0736  0.0187
15185TIP3    H167046   3.667   4.914   3.547  1.3238  1.0235 -0.4201
15185TIP3    H267047   3.655   4.884   3.695 -0.7289  0.7063 -0.6230
15186TIP3   OH267048   2.987   3.025  12.821  0.2778 -0.0611  0.2076
15186TIP3    H167049   3.021   3.032  12.732  0.0431  1.5709  0.2220
15186TIP3    H267050   3.036   2.953  12.860  1.7137  0.4232 -0.6445
15187TIP3   OH267051   3.337   3.511   3.321  0.3221  0.1004  0.5478
15187TIP3    H167052   3.315   3.440   3.261 -0.4572  1.3629 -0.6908
15187TIP3    H267053   3.417   3.549   3.285  0.9391 -0.3345  1.4073
15188TIP3   OH267054   0.624   4.521   2.322 -0.2113 -0.3207 -0.3877
15188TIP3    H167055   0.568   4.509   2.246 -1.7163 -2.5982  0.9578
15188TIP3    H267056   0.581   4.592   2.372  0.1385  0.3849 -1.0709
15189TIP3   OH267057   3.201   5.996   5.310  0.2318 -0.2816 -0.0416
15189TIP3    H167058   3.268   6.031   5.369 -0.4577  1.8335 -0.4250
15189TIP3    H267059   3.221   6.034   5.225 -1.1630  0.0266 -0.2580
15190TIP3   OH267060   2.133   4.606   4.953 -0.2153  0.0233  0.1257
15190TIP3    H167061   2.197   4.612   5.024  0.9235  1.2287 -0.9591
15190TIP3    H267062   2.116   4.696   4.928  0.9129 -0.3855 -2.4102
15191TIP3   OH267063   5.027   4.077   0.645  0.0994  0.0630  0.1665
15191TIP3    H167064   5.119   4.081   0.618  0.3741 -3.0514  0.2787
15191TIP3    H267065   4.978   4.102   0.566  1.0161  0.9237 -0.1477
15192TIP3   OH267066   1.815   2.833  12.527  0.2892 -0.0973 -0.4311
15192TIP3    H167067   1.734   2.782  12.529 -0.3703  0.9311  0.3335
15192TIP3    H267068   1.878   2.781  12.576 -0.8027  0.4583  1.6888
15193TIP3   OH267069   5.686   0.420   2.712 -0.2418  0.0041  0.4213
15193TIP3    H167070   5.657   0.481   2.780 -0.7474  1.0047 -0.6550
15193TIP3    H267071   5.608   0.368   2.692 -0.1493 -0.1489  0.4606
15194TIP3   OH267072   5.965   4.689  15.243 -0.9856  0.7127 -0.1650
15194TIP3    H167073   5.962   4.744  15.322 -0.2456  0.0668  0.3163
15194TIP3    H267074   5.980   4.601  15.275 -1.2465  0.3544 -1.0011
15195TIP3   OH267075   1.344   2.755  15.172  0.1648 -0.1951  0.1875
15195TIP3    H167076   1.340   2.851  15.173 -0.4240 -0.1694 -1.6398
15195TIP3    H267077   1.252   2.728  15.182  0.3273 -0.5889  0.6807
15196TIP3   OH267078   3.334   3.151  16.796  0.2672 -0.7495 -0.4268
15196TIP3    H167079   3.385   3.231  16.806  1.9693 -1.6540 -1.4481
15196TIP3    H267080   3.280   3.167  16.718  2.6497 -1.5315 -2.3695
15197TIP3   OH267081   4.619   2.460   3.053  0.2947 -0.5880  0.2195
15197TIP3    H167082   4.600   2.367   3.041  0.1619 -0.5609  0.2182
15197TIP3    H267083   4.652   2.490   2.968 -1.7202 -0.1326 -0.4555
15198TIP3   OH267084   6.109   4.579  10.860  0.7424 -0.0819 -0.1746
15198TIP3    H167085   6.083   4.507  10.918 -0.5688 -0.8588 -1.6733
15198TIP3    H267086   6.030   4.630  10.849  1.6087  1.5323  0.6910
15199TIP3   OH267087   0.301   1.016   5.406 -0.0582  0.3687 -0.0870
15199TIP3    H167088   0.353   0.936   5.404  0.4325  0.6489  0.8659
15199TIP3    H267089   0.336   1.066   5.481 -0.7749  1.1812 -0.2759
15200TIP3   OH267090   5.346   6.734   3.760 -0.0186  0.2139  0.3258
15200TIP3    H167091   5.265   6.785   3.756  0.3845  0.8146 -0.3823
15200TIP3    H267092   5.401   6.770   3.690 -0.2366 -2.0846 -1.1274
15201TIP3   OH267093   5.144   2.544  12.687 -0.0598 -0.4422 -0.1318
15201TIP3    H167094   5.077   2.488  12.646 -0.6602  0.4672 -0.4206
15201TIP3    H267095   5.109   2.633  12.678  1.3419  0.0774 -0.5745
15202TIP3   OH267096   4.829   1.444   6.201  0.1088  0.6252  0.1550
15202TIP3    H167097   4.804   1.355   6.178  1.9419 -0.2812  1.4435
15202TIP3    H267098   4.795   1.497   6.129 -0.4943 -1.1826 -0.9635
15203TIP3   OH267099   6.334   4.628  16.141  0.5392  0.0745 -0.0179
15203TIP3    H167100   6.254   4.579  16.159  1.3606 -1.2965  0.0288
15203TIP3    H267101   6.304   4.718  16.124 -1.0017 -0.4258 -0.0864
15204TIP3   OH267102   3.894   0.579   1.589  0.2312  0.2519 -0.7879
15204TIP3    H167103   3.988   0.595   1.586  0.6128 -1.8852 -2.0723
15204TIP3    H267104   3.862   0.605   1.503 -0.1094 -0.2344 -0.8147
15205TIP3   OH267105   2.795   6.557  11.646  0.7020  0.3490 -0.2028
15205TIP3    H167106   2.860   6.550  11.716  1.1331 -0.6779 -0.6773
15205TIP3    H267107   2.799   6.648  11.619  0.4170  0.8045  1.1934
15206TIP3   OH267108   5.910   0.497  13.039 -0.4321 -0.0241 -0.0515
15206TIP3    H167109   5.921   0.587  13.069 -2.1094 -0.5264  2.4359
15206TIP3    H267110   5.857   0.503  12.960  0.4942  1.2030 -0.6059
15207TIP3   OH267111   3.971   2.507   1.664 -0.3539  0.0997  0.2553
15207TIP3    H167112   4.050   2.502   1.610 -0.5511  0.3176 -0.0586
15207TIP3    H267113   3.996   2.561   1.739  0.3094 -1.2894  1.0806
15208TIP3   OH267114   6.224   5.532  11.899 -0.2697 -0.0806  0.2854
15208TIP3    H167115   6.281   5.489  11.835  0.0292 -1.8879  1.6661
15208TIP3    H267116   6.282   5.556  11.971 -0.7517  0.9764  0.3369
15209TIP3   OH267117   3.584   5.810   3.593  0.7446 -0.4446  0.0570
15209TIP3    H167118   3.573   5.873   3.522 -2.4956  0.8351  1.4724
15209TIP3    H267119   3.544   5.730   3.559  1.2884 -0.5499 -0.3496
15210TIP3   OH267120   1.585   4.060  14.589 -0.2099  0.1650  0.0602
15210TIP3    H167121   1.614   4.122  14.522 -0.4966  0.2222 -0.0103
15210TIP3    H267122   1.639   4.081  14.665  0.2198  0.0030 -0.1979
15211TIP3   OH267123   0.940   6.370  16.770 -0.4046  0.7412  0.0073
15211TIP3    H167124   0.961   6.460  16.792  0.0828  0.4251  0.8959
15211TIP3    H267125   0.936   6.325  16.854  2.4108 -0.6987 -0.4915
15212TIP3   OH267126   1.405   3.648  13.243 -0.2527  0.4142 -0.1877
15212TIP3    H167127   1.431   3.563  13.278  0.7172  0.5556 -0.5346
15212TIP3    H267128   1.333   3.677  13.299  0.3044 -0.0292  0.7671
15213TIP3   OH267129   0.616   1.590   0.911 -0.2288 -0.0671  0.1301
15213TIP3    H167130   0.603   1.680   0.940 -0.3842 -0.2281  0.5656
15213TIP3    H267131   0.680   1.554   0.972  0.8313  0.1326 -0.8283
15214TIP3   OH267132   0.571   4.641   5.183  0.6721 -0.3664  0.3798
15214TIP3    H167133   0.637   4.704   5.210  0.7325 -0.1539 -0.2458
15214TIP3    H267134   0.569   4.648   5.087 -1.7152  1.1323  0.4501
15215TIP3   OH267135   5.178   1.260  15.325 -0.2361  0.4426  0.0107
15215TIP3    H167136   5.229   1.238  15.247 -0.0513  0.7299  0.0460
15215TIP3    H267137   5.134   1.342  15.302  0.0902  0.7103  0.3283
15216TIP3   OH267138   2.836   3.538  11.753 -0.1321  0.0024 -0.3447
15216TIP3    H167139   2.747   3.533  11.788 -0.1058 -0.3117 -0.3196
15216TIP3    H267140   2.824   3.545  11.658 -0.1696 -2.7223 -0.6325
15217TIP3   OH267141   3.290   3.096  10.607 -0.9184 -0.1850 -0.2955
15217TIP3    H167142   3.209   3.055  10.640 -0.5782 -0.9912 -0.4234
15217TIP3    H267143   3.288   3.079  10.513 -1.1197  0.7379 -0.4609
15218TIP3   OH267144   0.849   6.326  17.174 -0.1113  0.7294 -0.1296
15218TIP3    H167145   0.829   6.252  17.232  0.9514  0.2212 -0.3806
15218TIP3    H267146   0.934   6.303  17.135  0.9958  2.7373  0.9077
15219TIP3   OH267147   2.912   4.043  14.760  0.3342  0.0963  0.2269
15219TIP3    H167148   2.849   4.015  14.826  0.2938  1.2025  0.6924
15219TIP3    H267149   2.859   4.081  14.690  0.4596  1.5733  0.8851
15220TIP3   OH267150   6.136   5.543  12.632 -0.6211 -0.0678 -0.3440
15220TIP3    H167151   6.123   5.475  12.698  0.4383 -0.4548 -0.5138
15220TIP3    H267152   6.101   5.622  12.672  0.3535 -0.2076  0.8543
15221TIP3   OH267153   4.067   0.796  13.975  0.4631  0.4258 -0.2228
15221TIP3    H167154   4.047   0.707  13.946 -0.1121 -0.1068  1.6694
15221TIP3    H267155   4.086   0.787  14.068  1.2224  2.1792 -0.1767
15222TIP3   OH267156   1.570   2.181   0.623 -0.3469 -0.3485  0.1971
15222TIP3    H167157   1.615   2.233   0.690 -2.6468  0.4641  1.2024
15222TIP3    H267158   1.565   2.240   0.548  1.7714 -1.0779 -0.5860
15223TIP3   OH267159   3.667   3.953  15.582  0.4305  0.8032  0.1997
15223TIP3    H167160   3.576   3.929  15.564  0.6870 -0.6631  0.7114
15223TIP3    H267161   3.662   4.010  15.659  0.0977 -1.4336  1.9213
15224TIP3   OH267162   3.159   3.244   1.627 -0.0948  0.5940  0.0413
15224TIP3    H167163   3.251   3.248   1.652  0.1337 -0.5260 -0.5469
15224TIP3    H267164   3.134   3.153   1.642 -0.0510 -0.0796 -3.2960
15225TIP3   OH267165   6.598   4.329  16.582 -0.2766 -0.2918  0.1903
15225TIP3    H167166   6.520   4.384  16.573 -1.9222 -1.9560  2.7439
15225TIP3    H267167   6.644   4.364  16.659 -0.0416 -0.9951  0.3817
15226TIP3   OH267168   3.840   1.176  13.823 -0.2195 -0.1746  0.2514
15226TIP3    H167169   3.930   1.164  13.793  0.0630  0.4136  0.8414
15226TIP3    H267170   3.833   1.270  13.841  0.5047 -0.7467  4.5711
15227TIP3   OH267171   0.191   4.243  14.273  0.0338 -0.2528 -0.5741
15227TIP3    H167172   0.222   4.176  14.212 -0.9975  1.4196 -3.1174
15227TIP3    H267173   0.112   4.278  14.232 -0.7189  1.0173  1.7662
15228TIP3   OH267174   3.280   0.717  17.113  0.1564  0.1630 -0.0392
15228TIP3    H167175   3.260   0.711  17.206  2.7664 -1.2161  0.5330
15228TIP3    H267176   3.315   0.805  17.102 -1.8726  0.9958 -0.1548
15229TIP3   OH267177   5.587   4.092   2.961  0.0875  0.1419 -0.4507
15229TIP3    H167178   5.526   4.166   2.966  0.8547  0.7667 -0.2200
15229TIP3    H267179   5.555   4.030   3.027 -0.5414  0.2724 -0.6256
15230TIP3   OH267180   3.657   2.784   3.053 -0.3016  0.3385  0.1823
15230TIP3    H167181   3.664   2.780   2.957 -1.9427  0.8258  0.0077
15230TIP3    H267182   3.748   2.777   3.084  0.7260  3.5345 -1.5367
15231TIP3   OH267183   2.167   0.914  13.867 -0.0806 -0.2007 -0.4018
15231TIP3    H167184   2.225   0.983  13.836  1.4972 -0.9270  0.7736
15231TIP3    H267185   2.175   0.844  13.803  1.5846 -0.8901  0.4850
15232TIP3   OH267186   2.199   3.968   5.407  0.0937 -0.8189 -0.3996
15232TIP3    H167187   2.276   3.919   5.434  0.1863 -1.4916 -1.7691
15232TIP3    H267188   2.162   3.917   5.335  0.5365  1.3504 -2.3215
15233TIP3   OH267189   1.007   3.623  11.416  0.2736 -0.4294  0.0259
15233TIP3    H167190   1.019   3.630  11.510 -0.2180  0.0578  0.0633
15233TIP3    H267191   1.087   3.661  11.379 -0.9396  2.6675  0.2643
15234TIP3   OH267192   4.720   3.292   2.161 -0.0462 -0.9124 -0.3146
15234TIP3    H167193   4.711   3.264   2.252 -1.5923  0.6318  0.0536
15234TIP3    H267194   4.808   3.330   2.156 -0.7292  0.9918  1.1604
15235TIP3   OH267195   5.216   4.285   5.776 -0.0204  0.2040  0.7275
15235TIP3    H167196   5.167   4.241   5.706  0.5034  0.4914  0.1742
15235TIP3    H267197   5.169   4.367   5.790  0.3191  0.4997  0.1660
15236TIP3   OH267198   4.261   5.068   5.836  0.5666 -0.3402 -0.4446
15236TIP3    H167199   4.242   5.142   5.894  0.7478 -1.3622  0.9411
15236TIP3    H267200   4.182   5.014   5.839  0.5818 -0.4113 -1.1507
15237TIP3   OH267201   4.114   1.835  15.689  0.4024  0.0948  0.4421
15237TIP3    H167202   4.086   1.826  15.598  0.3687 -0.4281  0.5040
15237TIP3    H267203   4.180   1.905  15.687 -1.3070  1.7937  0.3948
15238TIP3   OH267204   6.362   1.923  12.754  0.0611 -0.2867  0.8804
15238TIP3    H167205   6.290   1.973  12.793  1.3559  0.5282  2.3669
15238TIP3    H267206   6.360   1.839  12.800  0.5492  0.0484  1.5332
15239TIP3   OH267207   1.181   5.120  14.757 -0.3175 -0.4187 -0.1863
15239TIP3    H167208   1.181   5.087  14.667  3.6317 -0.5595 -0.2834
15239TIP3    H267209   1.146   5.209  14.750  0.6320 -0.1394 -2.0364
15240TIP3   OH267210   4.047   3.538   3.233  0.2219  0.1354 -0.1035
15240TIP3    H167211   4.027   3.459   3.283  0.1438  0.4321  0.3402
15240TIP3    H267212   4.125   3.575   3.275  0.0421  0.4898 -0.0748
15241TIP3   OH267213   2.654   1.057   0.644 -0.0358  0.4597 -0.0203
15241TIP3    H167214   2.726   1.115   0.618  0.3845 -0.1856 -0.3025
15241TIP3    H267215   2.685   0.969   0.624  0.2006 -0.0792  2.3863
15242TIP3   OH267216   3.862   2.442  14.135 -0.1192 -0.1473 -0.1890
15242TIP3    H167217   3.919   2.413  14.206 -0.4344  1.1106  0.6052
15242TIP3    H267218   3.909   2.416  14.055  1.2475  0.2526  0.4459
15243TIP3   OH267219   4.029   5.745   3.297 -0.2912  0.4402  0.2160
15243TIP3    H167220   3.954   5.711   3.248 -0.8784 -0.1823  1.4837
15243TIP3    H267221   3.993   5.765   3.383 -0.3214  5.6958 -0.7306
15244TIP3   OH267222   6.004   2.519  13.422 -0.1557 -0.4081 -0.4203
15244TIP3    H167223   5.914   2.549  13.405 -0.2232 -0.4421 -0.1313
15244TIP3    H267224   6.015   2.443  13.365 -1.8510 -3.1947  2.5913
15245TIP3   OH267225   2.797   3.067   3.231 -0.0591  0.3469  0.1429
15245TIP3    H167226   2.846   3.000   3.183 -0.6294  0.6101 -0.8397
15245TIP3    H267227   2.753   3.118   3.163 -0.1207  1.3497  0.9022
15246TIP3   OH267228   5.093   1.331  11.009 -0.1962 -0.2130  0.2293
15246TIP3    H167229   5.109   1.425  11.016 -0.1569  0.1089 -2.7227
15246TIP3    H267230   5.011   1.316  11.056 -1.8350  1.9099 -1.7222
15247TIP3   OH267231   1.298   2.674   5.626 -1.0864 -0.0034  0.5893
15247TIP3    H167232   1.336   2.662   5.713  2.6875 -0.3882 -0.9018
15247TIP3    H267233   1.292   2.769   5.616  3.6005  0.4644 -0.3909
15248TIP3   OH267234   1.664   2.063   1.727 -0.1448  0.2900 -0.4425
15248TIP3    H167235   1.650   2.056   1.821  1.7465  0.8712 -0.0796
15248TIP3    H267236   1.734   2.001   1.708 -0.1285  0.5727 -1.3846
15249TIP3   OH267237   1.852   3.859  15.915  0.3290  0.8957 -0.0439
15249TIP3    H167238   1.764   3.883  15.887  0.1445 -0.0645 -0.3365
15249TIP3    H267239   1.872   3.779  15.866  0.1434 -0.6518  2.2339
15250TIP3   OH267240   0.760   2.802  12.201 -0.2311  0.6329  0.5110
15250TIP3    H167241   0.734   2.749  12.125 -0.4630 -0.5396  1.3752
15250TIP3    H267242   0.803   2.879  12.163  0.4600 -0.3497 -0.8012
15251TIP3   OH267243   1.075   0.522  13.729  0.4629  0.3630  1.3613
15251TIP3    H167244   1.042   0.433  13.733  0.3752  0.1259 -2.1148
15251TIP3    H267245   1.169   0.514  13.749  0.4138 -0.4712  1.2670
15252TIP3   OH267246   3.083   5.795  11.549  0.1893  0.3568 -0.4290
15252TIP3    H167247   3.054   5.864  11.608 -0.3856  1.1247 -1.5523
15252TIP3    H267248   3.028   5.806  11.471 -0.5182 -1.9219 -0.3244
15253TIP3   OH267249   6.020   4.638  12.775  0.4256  0.4491 -0.1502
15253TIP3    H167250   6.003   4.690  12.853 -1.6697  1.2414 -1.0560
15253TIP3    H267251   6.115   4.632  12.770  0.6133  0.7755  2.1759
15254TIP3   OH267252   0.423   5.507   1.678 -0.3413 -0.5267  0.7177
15254TIP3    H167253   0.471   5.431   1.711 -0.7485 -1.6255 -1.1231
15254TIP3    H267254   0.471   5.535   1.601 -1.2318 -0.0817  0.3076
15255TIP3   OH267255   0.684   0.943  11.082  0.2586 -0.2393 -0.3553
15255TIP3    H167256   0.625   1.010  11.048  0.5761  0.4399  0.3864
15255TIP3    H267257   0.639   0.908  11.159  0.1234 -0.8442 -0.7016
15256TIP3   OH267258   2.812   5.222  16.581 -0.5938  0.0484 -0.0965
15256TIP3    H167259   2.852   5.187  16.661 -1.3121  0.7717  0.6060
15256TIP3    H267260   2.730   5.262  16.611 -1.5855 -0.8965 -1.4114
15257TIP3   OH267261   3.366   5.547   1.778 -0.2080  0.4120 -0.3592
15257TIP3    H167262   3.352   5.586   1.865  0.8634  1.2358 -0.5231
15257TIP3    H267263   3.280   5.515   1.752 -0.2654 -1.3782  1.7014
15258TIP3   OH267264   0.219   4.719  11.304 -0.3060 -0.5003 -0.4471
15258TIP3    H167265   0.146   4.677  11.258 -0.3533 -2.1476  1.0168
15258TIP3    H267266   0.293   4.660  11.289  1.1627  1.7962 -3.0060
15259TIP3   OH267267   6.369   0.051   1.870  0.3294 -0.1954  0.1434
15259TIP3    H167268   6.286   0.024   1.910  0.2513 -2.2055 -1.2022
15259TIP3    H267269   6.406  -0.031   1.836  1.9534  0.9472 -0.9574
15260TIP3   OH267270   6.280   0.780   0.820  0.1744 -0.0409  0.7370
15260TIP3    H167271   6.302   0.688   0.807  0.3932  0.0706  0.2853
15260TIP3    H267272   6.189   0.780   0.848  0.1471 -0.3893  0.6482
15261TIP3   OH267273   5.544   1.738  15.149 -0.2763  0.0095  0.1858
15261TIP3    H167274   5.470   1.767  15.202 -1.2477  1.8504 -2.0113
15261TIP3    H267275   5.513   1.744  15.059  1.7596 -1.6016 -0.7132
15262TIP3   OH267276   2.443   5.726   5.512 -0.2305  0.1629  0.1432
15262TIP3    H167277   2.527   5.749   5.474 -1.0899  0.3875 -1.7709
15262TIP3    H267278   2.387   5.802   5.495 -0.9988 -0.2533  0.7195
15263TIP3   OH267279   2.917   6.033   2.807  0.2628  0.8021  0.1964
15263TIP3    H167280   2.960   6.051   2.891  2.5061  0.4613 -0.8011
15263TIP3    H267281   2.891   5.941   2.814 -1.6601  1.3633  1.3146
15264TIP3   OH267282   0.324   3.337   4.487 -0.2319 -0.1092 -0.3307
15264TIP3    H167283   0.235   3.372   4.488  0.0082  0.5154 -0.1514
15264TIP3    H267284   0.338   3.306   4.577 -0.2928 -0.2610 -0.3744
15265TIP3   OH267285   4.477   4.961   1.721  0.5134 -0.0654  0.1147
15265TIP3    H167286   4.546   5.027   1.729 -0.4761  1.2012 -1.2327
15265TIP3    H267287   4.402   4.999   1.766  0.2380 -0.7504  0.2496
15266TIP3   OH267288   2.775   1.570   5.989 -0.3593  0.2958 -0.3117
15266TIP3    H167289   2.828   1.602   5.916 -0.4408 -0.6272 -0.7881
15266TIP3    H267290   2.685   1.590   5.964 -0.3006  1.3118  0.2221
15267TIP3   OH267291   4.532   2.226   0.697 -0.4853 -0.5286 -0.0369
15267TIP3    H167292   4.486   2.299   0.656  0.1853 -0.0045  0.1422
15267TIP3    H267293   4.473   2.197   0.767  0.1789  1.2243  1.2937
15268TIP3   OH267294   3.674   0.598  10.939  0.1380 -0.0887  0.0661
15268TIP3    H167295   3.744   0.536  10.919  0.2076 -0.0414  0.1662
15268TIP3    H267296   3.700   0.678  10.895 -0.3802 -0.3826 -0.8004
15269TIP3   OH267297   3.719   5.998   1.589 -0.2293  0.1315  0.0114
15269TIP3    H167298   3.651   5.943   1.549 -1.3810  1.6903 -0.2960
15269TIP3    H267299   3.747   6.057   1.519  0.5848  0.2879  0.4583
15270TIP3   OH267300   0.009   1.738  13.623  0.0304  0.1114  0.7170
15270TIP3    H167301  -0.033   1.805  13.569  1.6769  1.6747  1.2608
15270TIP3    H267302   0.077   1.786  13.672 -0.3677 -1.4949  3.0230
15271TIP3   OH267303   6.552   1.198   4.524  0.0450  0.7500  0.0373
15271TIP3    H167304   6.482   1.153   4.477 -1.0406  0.7388  1.5813
15271TIP3    H267305   6.534   1.291   4.510 -0.4163  0.7508  0.5989
15272TIP3   OH267306   6.322   2.529  14.379  0.0729 -0.6494 -0.0600
15272TIP3    H167307   6.394   2.590  14.363 -0.4939  0.5627  1.6365
15272TIP3    H267308   6.349   2.448  14.337  1.1998  0.5343 -1.7595
15273TIP3   OH267309   0.808   3.100  13.143  0.9713 -0.2615 -0.0323
15273TIP3    H167310   0.722   3.125  13.108  1.7310 -0.2767 -2.0236
15273TIP3    H267311   0.822   3.160  13.216 -0.1651  0.6207 -0.5031
15274TIP3   OH267312   4.587   1.036   0.379  0.4072 -0.4581  0.0272
15274TIP3    H167313   4.563   1.106   0.319 -1.5868  0.1236  1.3816
15274TIP3    H267314   4.626   0.968   0.324  0.2657  0.7595 -1.6352
15275TIP3   OH267315   2.555   3.424  14.959  0.3826  0.2547 -0.4185
15275TIP3    H167316   2.632   3.468  14.924  0.0653  1.1483 -0.0329
15275TIP3    H267317   2.574   3.411  15.052 -0.9497  2.9895  0.3689
15276TIP3   OH267318   5.740   1.699  13.529  0.2122  0.4697 -0.0330
15276TIP3    H167319   5.746   1.604  13.535 -1.0545  0.3970  0.3188
15276TIP3    H267320   5.647   1.717  13.513 -0.2125  1.7777  3.1200
15277TIP3   OH267321   0.588   2.434   3.852 -0.0351  0.1042  0.1205
15277TIP3    H167322   0.497   2.408   3.843 -0.3586  1.4813 -0.7660
15277TIP3    H267323   0.586   2.511   3.909  0.8814 -1.4678  2.4364
15278TIP3   OH267324   4.698   0.350   3.945  0.3114 -0.6879 -0.0921
15278TIP3    H167325   4.705   0.302   4.028 -0.8969 -1.6850 -0.5329
15278TIP3    H267326   4.640   0.423   3.965  0.6569 -0.4658  0.1205
15279TIP3   OH267327   5.132   1.569   1.435  0.3010  0.2682 -0.1106
15279TIP3    H167328   5.147   1.524   1.518  2.2418 -2.2085 -1.6518
15279TIP3    H267329   5.038   1.561   1.421  0.0518  0.0421  1.4772
15280TIP3   OH267330   3.379   4.269  10.978 -0.2562 -0.0236  0.1377
15280TIP3    H167331   3.384   4.199  11.043 -4.1700  0.8609  1.7278
15280TIP3    H267332   3.451   4.252  10.918 -0.8724 -5.3379  0.4532
15281TIP3   OH267333   5.280   5.786   4.619  0.1659 -0.3310 -0.3849
15281TIP3    H167334   5.365   5.765   4.657 -0.3621 -2.5477 -0.3162
15281TIP3    H267335   5.297   5.864   4.566  2.0523 -0.2376  0.2676
15282TIP3   OH267336   6.511   1.566   0.565  0.5583  0.1654 -0.3111
15282TIP3    H167337   6.477   1.493   0.616  0.5179 -1.3690 -2.3941
15282TIP3    H267338   6.456   1.640   0.591 -2.3321 -1.4877 -1.1555
15283TIP3   OH267339   5.294   1.738  16.634  0.4930 -0.0755 -0.2416
15283TIP3    H167340   5.363   1.675  16.615 -0.2951 -1.0168 -0.0635
15283TIP3    H267341   5.213   1.693  16.610 -0.1766  0.4190  0.9981
15284TIP3   OH267342   4.371   4.586  15.129  0.3473  0.0032  0.1789
15284TIP3    H167343   4.397   4.650  15.063 -1.5808 -0.2886 -0.9322
15284TIP3    H267344   4.351   4.639  15.207 -1.9011  0.9140 -0.9279
15285TIP3   OH267345   6.054   5.756   0.146 -0.0008  0.4511  0.3663
15285TIP3    H167346   5.990   5.701   0.101  0.9960  0.0798 -0.6365
15285TIP3    H267347   6.073   5.826   0.083  2.3482 -0.7529 -0.3900
15286TIP3   OH267348   5.932   5.742   1.609  0.6802  0.1693 -0.0776
15286TIP3    H167349   5.952   5.741   1.515  0.5184 -1.3770 -0.1257
15286TIP3    H267350   5.929   5.649   1.633 -0.7901  0.5049  1.1416
15287TIP3   OH267351   2.275   4.436  11.642 -0.0471  0.3513  0.5503
15287TIP3    H167352   2.255   4.396  11.557 -0.1858 -1.7481  1.4933
15287TIP3    H267353   2.252   4.368  11.705  1.8681  1.1343  2.1699
15288TIP3   OH267354   1.953   4.390  13.881 -0.6447  0.1748 -0.1078
15288TIP3    H167355   1.965   4.303  13.843 -0.1741  0.6215 -1.0340
15288TIP3    H267356   1.872   4.422  13.842 -1.6364 -0.4181  1.3901
15289TIP3   OH267357   1.105   0.760  11.651  0.0838 -0.0739 -0.3974
15289TIP3    H167358   1.019   0.790  11.680  0.9892  1.0780  1.2681
15289TIP3    H267359   1.138   0.707  11.723  0.3978 -1.3097 -1.4255
15290TIP3   OH267360   1.540   6.729   1.398  0.2198  0.4573  0.2265
15290TIP3    H167361   1.630   6.735   1.430  0.9092 -2.6538 -0.7352
15290TIP3    H267362   1.486   6.727   1.477  1.2588 -0.1555  0.9357
15291TIP3   OH267363   3.876   6.537   5.606 -0.4418 -0.2361 -0.2278
15291TIP3    H167364   3.836   6.516   5.691  0.1852  0.2234  0.1888
15291TIP3    H267365   3.938   6.466   5.591 -1.6877 -1.1991 -1.0925
15292TIP3   OH267366   6.307   6.527  15.922  0.3951 -0.6707  0.1715
15292TIP3    H167367   6.375   6.579  15.965  0.1397  0.5619 -0.8466
15292TIP3    H267368   6.230   6.536  15.979 -0.6180  2.8056 -1.5003
15293TIP3   OH267369   4.069   5.065  15.685  0.3111 -0.1229  0.1174
15293TIP3    H167370   4.104   5.089  15.771  3.3176 -1.5279 -0.5875
15293TIP3    H267371   4.145   5.032  15.636 -1.2865  0.5566 -3.0870
15294TIP3   OH267372   0.619   1.765   4.865  0.1108 -0.0389 -0.0547
15294TIP3    H167373   0.703   1.723   4.884 -1.1658 -1.8927  1.9331
15294TIP3    H267374   0.623   1.785   4.771  2.7449 -0.0259 -0.0149
15295TIP3   OH267375   2.638   0.275  10.597  0.3615 -0.1210 -0.2741
15295TIP3    H167376   2.711   0.251  10.539  2.0463  1.1980  1.1917
15295TIP3    H267377   2.657   0.231  10.680  0.4238  1.5686  0.6507
15296TIP3   OH267378   3.578   6.238   2.984  0.3336 -0.6796  0.6830
15296TIP3    H167379   3.512   6.191   3.036  0.0727 -0.0577  0.9190
15296TIP3    H267380   3.660   6.225   3.032  0.5522 -2.1175 -0.0225
15297TIP3   OH267381   6.657   3.541   2.395 -0.3317  0.4933 -0.3028
15297TIP3    H167382   6.676   3.495   2.313 -1.0586  0.6278 -0.5537
15297TIP3    H267383   6.633   3.629   2.367 -0.1960  0.6555  0.0899
15298TIP3   OH267384   5.142   2.073   1.768 -0.8144  0.1808  0.2201
15298TIP3    H167385   5.209   2.005   1.757  1.0479  1.9945 -0.3905
15298TIP3    H267386   5.067   2.042   1.717 -0.4172 -1.8539  0.7863
15299TIP3   OH267387   1.055   0.265  15.530 -0.1750  0.0072 -0.5840
15299TIP3    H167388   1.006   0.222  15.600 -0.4485 -1.9401 -1.8880
15299TIP3    H267389   1.018   0.228  15.449 -1.0691  3.3825 -1.9041
15300TIP3   OH267390   0.117   0.691   5.359 -0.0928  0.0616  0.2036
15300TIP3    H167391   0.126   0.666   5.267  3.2717 -0.1093  0.4320
15300TIP3    H267392   0.199   0.663   5.399 -1.1352  0.8178  3.1254
15301TIP3   OH267393   4.507   1.999   0.213  0.0494  0.0749  0.0312
15301TIP3    H167394   4.477   2.026   0.299 -0.2557  0.7076 -0.2639
15301TIP3    H267395   4.428   1.995   0.159 -0.0843 -2.5831  0.3319
15302TIP3   OH267396   3.933   4.064  14.608  0.0455  0.4239 -0.2435
15302TIP3    H167397   3.876   4.104  14.542  0.1329  2.1074  0.6431
15302TIP3    H267398   3.903   4.101  14.691  1.5282  0.2703  0.3937
15303TIP3   OH267399   2.758   4.753  16.158 -0.1559 -0.2925 -0.0356
15303TIP3    H167400   2.785   4.711  16.076  0.5582 -0.9601  0.5310
15303TIP3    H267401   2.834   4.804  16.186 -0.0865 -0.7763  0.6685
15304TIP3   OH267402   1.654   2.831   1.582  0.1716  0.2301 -0.0628
15304TIP3    H167403   1.652   2.757   1.521  1.0238  0.2675 -0.1422
15304TIP3    H267404   1.563   2.861   1.585 -0.5786 -1.9158  1.3482
15305TIP3   OH267405   6.385   1.183   2.287  0.6181 -0.2433  0.1384
15305TIP3    H167406   6.477   1.161   2.301  0.4342 -0.3688  1.3300
15305TIP3    H267407   6.386   1.276   2.263  1.1493 -0.6372 -1.4882
15306TIP3   OH267408   5.565   2.777  12.506 -0.4870  0.2863 -0.1094
15306TIP3    H167409   5.623   2.704  12.482  1.1188  1.8835 -1.3445
15306TIP3    H267410   5.538   2.815  12.422  0.7256  2.5839  0.4471
15307TIP3   OH267411   5.744   1.219  16.085  0.0110  0.0618 -0.0712
15307TIP3    H167412   5.757   1.135  16.040 -0.2968  0.0251 -0.0891
15307TIP3    H267413   5.664   1.207  16.136  0.2817  0.1470  0.3849
15308TIP3   OH267414   0.454   3.675   3.690  0.8743 -0.0831  0.3579
15308TIP3    H167415   0.364   3.704   3.674  0.5519 -0.3576  1.5752
15308TIP3    H267416   0.477   3.626   3.611 -0.1631 -0.3025  0.1726
15309TIP3   OH267417   1.625   2.023   5.616  0.4580 -0.3943 -0.3077
15309TIP3    H167418   1.554   1.995   5.557 -0.3421  0.0850  0.4056
15309TIP3    H267419   1.678   2.082   5.562 -0.1502 -0.1185 -0.6237
15310TIP3   OH267420   1.796   1.274   2.067 -0.0143  0.3562  0.0907
15310TIP3    H167421   1.786   1.362   2.102  3.5417  1.1831 -0.5730
15310TIP3    H267422   1.826   1.286   1.977 -3.0985 -1.6684 -1.3737
15311TIP3   OH267423   1.734   1.166   4.668  0.1405 -0.0779  0.2906
15311TIP3    H167424   1.684   1.175   4.749 -1.0415  1.4537 -0.5432
15311TIP3    H267425   1.777   1.251   4.657  1.5477 -0.7900  0.0873
15312TIP3   OH267426   6.538   3.042   1.944  0.6022 -0.7442 -0.1314
15312TIP3    H167427   6.608   3.016   1.885 -0.2383 -1.1410 -0.9650
15312TIP3    H267428   6.544   2.980   2.017  2.0945  0.1896  0.5877
15313TIP3   OH267429   2.533   6.647  16.450 -0.1776  0.1125 -0.9064
15313TIP3    H167430   2.467   6.699  16.497 -1.4255 -1.1113 -1.2454
15313TIP3    H267431   2.586   6.608  16.518  0.9415  1.9585 -0.6372
15314TIP3   OH267432   6.162   4.525  16.516 -0.2949  0.0794  0.1114
15314TIP3    H167433   6.228   4.535  16.448 -1.5229 -0.4100 -1.2099
15314TIP3    H267434   6.185   4.444  16.562 -0.0910 -0.1921 -0.4687
15315TIP3   OH267435   4.971   1.619  15.940 -0.4549 -0.3492 -0.2256
15315TIP3    H167436   5.063   1.644  15.930  0.0205 -2.4544 -1.5054
15315TIP3    H267437   4.971   1.556  16.012 -0.4973 -2.0216 -1.6223
15316TIP3   OH267438   6.207   5.010   2.744 -0.1050 -0.2490  0.3889
15316TIP3    H167439   6.112   5.018   2.752 -0.6167 -1.6572 -2.6278
15316TIP3    H267440   6.239   5.100   2.746 -1.7254  0.3953 -0.2293
15317TIP3   OH267441   5.092   3.074  11.549 -0.1481  0.6224 -0.4734
15317TIP3    H167442   5.091   2.994  11.602  0.6700  0.7610 -0.2354
15317TIP3    H267443   5.039   3.136  11.598 -0.7623  0.2378 -0.6441
15318TIP3   OH267444   4.605   2.170  13.407 -0.2526 -0.5628  0.0569
15318TIP3    H167445   4.601   2.259  13.373 -1.1878 -0.5389  0.2089
15318TIP3    H267446   4.604   2.115  13.329  0.4109 -0.4452 -0.0403
15319TIP3   OH267447   1.333   5.538   0.867 -0.1272  0.2121  0.3606
15319TIP3    H167448   1.384   5.466   0.903 -0.2235  0.5973  1.3043
15319TIP3    H267449   1.294   5.580   0.943  0.1847  1.4569 -0.1385
15320TIP3   OH267450   4.351   2.116   2.780 -0.2572  0.6958  0.3213
15320TIP3    H167451   4.443   2.092   2.786 -0.4134  0.1074  0.4534
15320TIP3    H267452   4.304   2.041   2.817 -0.8550  0.3720 -1.0227
15321TIP3   OH267453   5.288   5.962  16.457 -0.2447  0.6550  0.3138
15321TIP3    H167454   5.218   5.898  16.462 -0.4384  0.7240 -1.1335
15321TIP3    H267455   5.249   6.043  16.489 -0.4365  0.3943  0.7426
15322TIP3   OH267456   1.706   2.189   5.397  0.4818  0.3218  0.2490
15322TIP3    H167457   1.776   2.126   5.379  0.4074  0.5213 -0.8002
15322TIP3    H267458   1.751   2.272   5.411  0.4345  0.5990 -1.1333
15323TIP3   OH267459   0.059   0.527   3.242 -0.0449 -0.2808  0.1055
15323TIP3    H167460   0.069   0.473   3.164 -0.3640 -1.0179  0.5551
15323TIP3    H267461   0.095   0.474   3.313 -0.5519  0.0074  0.5938
15324TIP3   OH267462   5.379   4.038   3.710  0.0011 -0.2205 -0.8252
15324TIP3    H167463   5.377   3.990   3.628  1.8451 -1.0122 -0.4560
15324TIP3    H267464   5.353   3.975   3.777 -0.7015  0.1939 -0.6986
15325TIP3   OH267465   0.490   4.637   1.230  0.0037  0.4751 -0.1475
15325TIP3    H167466   0.538   4.565   1.272  1.3946  1.1361 -0.5308
15325TIP3    H267467   0.433   4.672   1.299 -0.0918 -0.4763  0.2629
15326TIP3   OH267468   4.165   5.973  13.293 -0.1527  0.2490  1.0124
15326TIP3    H167469   4.194   6.057  13.330 -0.4106  0.4970  0.6544
15326TIP3    H267470   4.076   5.961  13.327 -0.4076  0.4980  0.4550
15327TIP3   OH267471   5.728   4.112   5.362  0.4590  0.2640  0.4653
15327TIP3    H167472   5.714   4.197   5.403  2.0369  1.4880 -1.3808
15327TIP3    H267473   5.674   4.114   5.283 -2.0341 -1.7998  1.9607
15328TIP3   OH267474   1.281   5.253  13.383 -0.2050  0.4308  0.4693
15328TIP3    H167475   1.250   5.344  13.390 -2.5428 -0.3416  1.0943
15328TIP3    H267476   1.287   5.237  13.289 -0.7721  0.9471  0.3351
15329TIP3   OH267477   2.912   3.608  14.009 -0.0380  0.2102 -0.2711
15329TIP3    H167478   2.835   3.612  13.951 -0.9269 -2.7044  0.5128
15329TIP3    H267479   2.875   3.606  14.097  1.1265  1.3264  0.2627
15330TIP3   OH267480   1.865   1.339   3.335  0.1447 -0.1261 -0.2135
15330TIP3    H167481   1.895   1.319   3.246 -0.6399 -0.3372 -0.4398
15330TIP3    H267482   1.784   1.290   3.344 -1.5091  2.3599 -0.5540
15331TIP3   OH267483   0.609   0.760   0.727  0.1073  0.0901 -0.0673
15331TIP3    H167484   0.685   0.775   0.783 -0.0589  0.1164  0.1547
15331TIP3    H267485   0.543   0.723   0.786  0.9669 -2.9836 -0.8226
15332TIP3   OH267486   6.563   4.800  17.008 -0.6034 -0.3689 -0.3413
15332TIP3    H167487   6.639   4.815  17.065  0.0426 -0.1533 -1.2442
15332TIP3    H267488   6.525   4.718  17.039 -1.6340  0.8654  1.8917
15333TIP3   OH267489   4.756   1.392  12.318 -0.4425 -0.4438  0.1275
15333TIP3    H167490   4.738   1.397  12.224  0.3754  0.1505 -0.0103
15333TIP3    H267491   4.702   1.460  12.357  1.7117  1.6607 -0.3387
15334TIP3   OH267492   0.326   6.189   4.703  1.0310 -0.6286 -0.3614
15334TIP3    H167493   0.308   6.098   4.727  1.6025 -0.3360  1.3281
15334TIP3    H267494   0.242   6.233   4.713  1.0402 -0.7192  0.1726
15335TIP3   OH267495   1.639   4.619  14.380  0.0557 -0.2618 -0.0077
15335TIP3    H167496   1.729   4.646  14.398 -0.2383  0.1253  0.9581
15335TIP3    H267497   1.639   4.525  14.397  0.1483 -0.1628  0.5509
15336TIP3   OH267498   5.865   5.120  16.457  0.5681  0.1334 -0.0553
15336TIP3    H167499   5.857   5.211  16.430 -0.2374 -0.0983 -0.6411
15336TIP3    H267500   5.775   5.088  16.463  0.8414 -1.0386 -1.4035
15337TIP3   OH267501   6.810   5.690   1.349 -0.0364  0.0237 -0.2319
15337TIP3    H167502   6.773   5.677   1.261  0.3112  0.6711 -0.4835
15337TIP3    H267503   6.900   5.656   1.342 -0.9199 -2.7674  0.7397
15338TIP3   OH267504   1.830   1.184  15.387 -0.0754  0.0504 -0.6851
15338TIP3    H167505   1.896   1.140  15.440  0.3552 -0.0394 -1.2911
15338TIP3    H267506   1.757   1.200  15.448  0.1532 -0.6228 -0.2290
15339TIP3   OH267507   6.776   1.270   2.780 -0.1659  0.3495 -0.0385
15339TIP3    H167508   6.720   1.226   2.715  1.1728 -1.2016 -0.2180
15339TIP3    H267509   6.863   1.267   2.741  0.6191 -0.3344  1.6854
15340TIP3   OH267510   1.610   1.690  14.943 -0.0056 -0.0420 -0.0360
15340TIP3    H167511   1.622   1.635  15.021  0.7692 -2.9413 -2.0519
15340TIP3    H267512   1.528   1.660  14.905  1.0012 -0.6615 -1.7978
15341TIP3   OH267513   3.445   4.341   4.747 -0.2232  0.0798 -0.1509
15341TIP3    H167514   3.534   4.327   4.780 -0.3985  0.8653  0.6957
15341TIP3    H267515   3.402   4.256   4.760  0.6393 -0.5751 -1.4046
15342TIP3   OH267516   4.762   6.745  14.533  0.1592 -0.0803  0.0118
15342TIP3    H167517   4.756   6.721  14.440  0.3468 -0.2209  0.0349
15342TIP3    H267518   4.674   6.731  14.567 -0.1039  0.7404 -0.3266
15343TIP3   OH267519   3.098   5.107  12.034 -0.0756 -0.1115 -0.2665
15343TIP3    H167520   3.004   5.093  12.023 -0.1783  0.6118 -0.3451
15343TIP3    H267521   3.136   5.019  12.029 -0.7447 -0.4081 -0.2347
15344TIP3   OH267522   2.953   0.845  12.175 -0.1191  0.0182  0.5809
15344TIP3    H167523   2.955   0.940  12.164 -1.9406 -0.0739 -1.2204
15344TIP3    H267524   3.032   0.815  12.131 -0.6565  0.6049 -0.8536
15345TIP3   OH267525   1.099   2.545  16.745 -0.2870  0.1512 -0.4246
15345TIP3    H167526   1.005   2.555  16.758 -0.1910 -0.2834  0.6374
15345TIP3    H267527   1.107   2.480  16.675 -0.7762  0.8346 -1.1348
15346TIP3   OH267528   0.576   1.620   1.883 -0.1676 -0.0674  0.2046
15346TIP3    H167529   0.487   1.585   1.878 -0.5026  0.9104 -1.3731
15346TIP3    H267530   0.567   1.712   1.860  1.2352  0.0999  0.2278
15347TIP3   OH267531   5.676   1.347  14.142 -0.0487  0.5090  0.4035
15347TIP3    H167532   5.618   1.277  14.171  1.0675 -0.2692  0.8257
15347TIP3    H267533   5.664   1.350  14.047  1.0945 -1.4401  0.1269
15348TIP3   OH267534   3.823   1.372   2.533  0.2183 -0.4021  0.2140
15348TIP3    H167535   3.795   1.284   2.510  0.3363 -0.7171  1.2539
15348TIP3    H267536   3.805   1.380   2.626  1.4048  0.2222  0.4029
15349TIP3   OH267537   6.505   2.310  16.817 -0.4217  0.3746 -0.4820
15349TIP3    H167538   6.478   2.246  16.751  0.7194 -0.3486 -0.2784
15349TIP3    H267539   6.442   2.299  16.888 -1.9056  1.4488 -1.5920
15350TIP3   OH267540   2.235   2.818   3.924  0.7775 -0.4709  0.2590
15350TIP3    H167541   2.189   2.891   3.966 -1.7667 -1.0267 -1.3063
15350TIP3    H267542   2.324   2.849   3.911  0.6934  1.0079  2.7635
15351TIP3   OH267543   3.419   2.300  15.915  0.5640  0.0782 -0.2983
15351TIP3    H167544   3.455   2.388  15.899  1.2799 -0.1496  0.0033
15351TIP3    H267545   3.469   2.243  15.856  0.9630 -0.2994  0.3925
15352TIP3   OH267546   0.579   2.302  11.791  0.0461  0.0649 -0.5755
15352TIP3    H167547   0.586   2.395  11.813 -0.8571  0.2230 -0.9053
15352TIP3    H267548   0.590   2.299  11.696 -2.7746  0.2148 -0.9906
15353TIP3   OH267549   2.863   1.824   6.330  0.3180  0.4190  0.5321
15353TIP3    H167550   2.910   1.744   6.306 -1.0846 -0.0051 -0.9717
15353TIP3    H267551   2.853   1.871   6.247 -1.0941  0.9269  0.9635
15354TIP3   OH267552   5.207   5.115  11.404 -0.3316 -0.3457 -0.6670
15354TIP3    H167553   5.181   5.069  11.324 -1.8775 -1.1067  0.2250
15354TIP3    H267554   5.228   5.045  11.466 -1.5765  0.1378  0.3528
15355TIP3   OH267555   1.452   3.347  12.968 -0.2003 -0.0898 -0.8001
15355TIP3    H167556   1.447   3.263  12.922 -0.6241  0.1824 -1.2596
15355TIP3    H267557   1.374   3.349  13.024  0.5678 -0.6350  0.3177
15356TIP3   OH267558   5.573   1.399  14.560 -0.1595 -0.2422  0.1897
15356TIP3    H167559   5.660   1.397  14.519  0.9888 -0.6462  2.4671
15356TIP3    H267560   5.563   1.313  14.599 -1.5443 -0.1448  0.0746
15357TIP3   OH267561   3.535   0.132  13.105  0.2997  1.0391  0.5670
15357TIP3    H167562   3.459   0.166  13.153 -0.3206  1.1145 -0.4365
15357TIP3    H267563   3.562   0.204  13.049  0.3437  0.6143  0.0285
15358TIP3   OH267564   4.640   3.769  12.474  0.5540  0.3897  0.1481
15358TIP3    H167565   4.730   3.796  12.493  0.7209  0.0458 -0.1525
15358TIP3    H267566   4.638   3.676  12.493  0.2635  0.3904  0.1315
15359TIP3   OH267567   0.652   4.079  16.377 -0.7102 -0.2620 -0.3491
15359TIP3    H167568   0.736   4.033  16.383 -0.8090 -0.4083 -0.0414
15359TIP3    H267569   0.590   4.013  16.349 -1.0666 -0.6026  1.1460
15360TIP3   OH267570   5.917   3.307   2.080  0.2977 -0.3586  0.2196
15360TIP3    H167571   5.833   3.263   2.063  1.0657 -1.8448  0.1276
15360TIP3    H267572   5.946   3.269   2.163  1.0711 -0.1630  0.0412
15361TIP3   OH267573   4.550   5.599  12.785  0.0781  0.1476  0.2302
15361TIP3    H167574   4.607   5.538  12.832  0.9283 -0.1519 -1.1249
15361TIP3    H267575   4.555   5.681  12.835  0.4142 -0.3510  1.0228
15362TIP3   OH267576   0.316   6.223   3.145 -0.3993  0.2014  0.1573
15362TIP3    H167577   0.363   6.140   3.144 -1.7017 -0.5920  1.8153
15362TIP3    H267578   0.328   6.258   3.056  0.4710 -1.5629 -0.4589
15363TIP3   OH267579   1.700   3.718   5.275 -0.4138 -0.1752  0.0859
15363TIP3    H167580   1.632   3.782   5.254 -0.0885  0.6560  1.4583
15363TIP3    H267581   1.652   3.637   5.293 -1.0965  0.4711  1.3114
15364TIP3   OH267582   5.505   4.143  12.828  0.3565 -0.2150  0.0198
15364TIP3    H167583   5.492   4.237  12.823  0.2157 -0.2545 -0.4103
15364TIP3    H267584   5.528   4.117  12.739 -0.3448 -0.6912 -0.0396
15365TIP3   OH267585   1.513   0.054   4.920 -0.5995  0.7193  0.2126
15365TIP3    H167586   1.573   0.098   4.861 -0.3285  0.5823  0.3856
15365TIP3    H267587   1.426   0.079   4.889 -0.4589  0.6933 -0.2101
15366TIP3   OH267588   1.623   3.275  15.340  0.0570  0.3133 -0.5238
15366TIP3    H167589   1.668   3.290  15.423  0.0201 -0.6561 -0.3223
15366TIP3    H267590   1.544   3.329  15.345  0.2147  0.5048 -0.0690
15367TIP3   OH267591   1.326   3.680   0.063 -0.0525 -0.0284 -0.2876
15367TIP3    H167592   1.268   3.670   0.139 -1.3927 -0.5117 -1.3282
15367TIP3    H267593   1.327   3.774   0.046 -1.4608 -0.1045 -0.9213
15368TIP3   OH267594   2.355   5.820   0.940  0.0647  0.1225 -0.0214
15368TIP3    H167595   2.444   5.793   0.960 -0.3027 -2.7252 -1.7036
15368TIP3    H267596   2.364   5.881   0.866  0.6240  0.1763  0.0878
15369TIP3   OH267597   6.060   0.499  12.697 -0.2759 -0.3611 -0.6697
15369TIP3    H167598   5.973   0.517  12.732 -1.1960 -0.1190 -2.9163
15369TIP3    H267599   6.096   0.585  12.676  0.6834 -0.4361  0.5938
15370TIP3   OH267600   4.113   2.896   4.914  0.4799 -0.0461  0.4253
15370TIP3    H167601   4.164   2.859   4.842 -0.8654 -0.9308 -0.1241
15370TIP3    H267602   4.099   2.988   4.889  0.9996 -0.0480  0.1202
15371TIP3   OH267603   4.512   4.844  11.863  0.4948  0.5248 -0.3182
15371TIP3    H167604   4.539   4.819  11.951 -0.9185 -0.5575 -0.1430
15371TIP3    H267605   4.557   4.782  11.805 -1.2471 -1.1148 -0.0452
15372TIP3   OH267606   2.491   2.787  14.716  0.0686  0.2381 -0.2358
15372TIP3    H167607   2.499   2.871  14.670 -0.7981 -0.1217 -1.0907
15372TIP3    H267608   2.483   2.811  14.808  0.2383  1.0814 -0.4282
15373TIP3   OH267609   5.244   4.811   6.183  0.1229 -0.1133 -0.6902
15373TIP3    H167610   5.262   4.856   6.101  1.0341 -0.9939 -0.9839
15373TIP3    H267611   5.267   4.720   6.167 -0.5579 -0.4758  0.2650
15374TIP3   OH267612   2.164   0.564  16.096  0.1919 -0.2580 -0.5111
15374TIP3    H167613   2.123   0.577  16.011  0.8544  0.5271 -0.7179
15374TIP3    H267614   2.097   0.591  16.159 -0.7556 -1.9933 -0.7034
15375TIP3   OH267615   2.590   0.559  13.005 -0.2038 -0.1163 -0.1461
15375TIP3    H167616   2.655   0.600  12.948 -1.9970  0.7217 -1.7240
15375TIP3    H267617   2.559   0.483  12.954 -2.4050  1.0935 -0.7767
15376TIP3   OH267618   1.678   1.141   6.831 -0.0207 -0.1155  0.2411
15376TIP3    H167619   1.714   1.091   6.757 -0.8967 -0.2769 -0.0894
15376TIP3    H267620   1.677   1.079   6.903 -0.8706 -0.5172 -0.1032
15377TIP3   OH267621   4.399   6.736  11.662 -0.4288  0.0192 -0.3404
15377TIP3    H167622   4.447   6.692  11.732 -0.1810 -1.4122 -1.3679
15377TIP3    H267623   4.307   6.723  11.685 -0.3503  0.1484  0.0633
15378TIP3   OH267624   4.933   1.666   3.705  0.2048  0.2947 -0.1596
15378TIP3    H167625   4.955   1.573   3.700 -0.2587 -0.1148  3.1185
15378TIP3    H267626   4.838   1.669   3.708  0.2309  0.6228  1.7782
15379TIP3   OH267627   4.907   0.038  12.838  0.4495  0.0765 -0.2319
15379TIP3    H167628   4.942   0.039  12.927  0.2584 -0.9135 -0.1403
15379TIP3    H267629   4.979   0.007  12.783  0.4502  0.3234 -0.3708
15380TIP3   OH267630   6.483   5.597   5.068 -0.2280  0.0064  0.0220
15380TIP3    H167631   6.494   5.678   5.018  0.9854  1.0063  1.8164
15380TIP3    H267632   6.568   5.554   5.063 -0.4857 -0.5231  0.1727
15381TIP3   OH267633   4.477   2.243   3.889 -0.1961  0.9293  0.3895
15381TIP3    H167634   4.447   2.230   3.979  0.8320  2.3690  0.9678
15381TIP3    H267635   4.560   2.197   3.885 -0.1099  1.0961  0.2558
15382TIP3   OH267636   2.352   3.075   5.685 -0.6258 -0.2092  0.6447
15382TIP3    H167637   2.351   3.157   5.733  0.2326  0.1051  0.1384
15382TIP3    H267638   2.313   3.011   5.745  0.8856  0.0539  1.9642
15383TIP3   OH267639   5.732   0.290  15.748 -0.2094  0.2050 -0.4910
15383TIP3    H167640   5.682   0.371  15.755  0.8826  0.7996  1.0438
15383TIP3    H267641   5.788   0.303  15.671  0.5070  1.2774  0.1709
15384TIP3   OH267642   0.732   2.402  15.761  0.1975  0.0613 -0.1105
15384TIP3    H167643   0.705   2.478  15.710  0.7555  0.6282  0.4205
15384TIP3    H267644   0.805   2.364  15.712 -1.5721 -1.5858 -1.6522
15385TIP3   OH267645   1.655   3.141   2.379 -0.1052  0.2284 -0.0510
15385TIP3    H167646   1.683   3.217   2.328  3.0174 -1.2582 -0.8225
15385TIP3    H267647   1.560   3.149   2.385  0.0862  4.2084  0.0505
15386TIP3   OH267648   3.789   5.284   4.189  0.8364  0.1695 -0.0975
15386TIP3    H167649   3.703   5.244   4.177 -0.7361  1.9164  3.7884
15386TIP3    H267650   3.791   5.357   4.128 -0.3976  0.0382 -0.3183
15387TIP3   OH267651   4.820   6.028   1.820 -0.2741 -0.4137  0.3408
15387TIP3    H167652   4.734   6.010   1.857 -0.2896 -0.8509  0.1011
15387TIP3    H267653   4.802   6.074   1.739 -0.2712 -0.2338  0.4423
15388TIP3   OH267654   5.481   6.217   3.237  0.1596 -0.1878  0.0299
15388TIP3    H167655   5.458   6.216   3.330 -0.6464  0.8855 -0.1380
15388TIP3    H267656   5.490   6.310   3.216  0.9987 -0.4414 -0.8178
15389TIP3   OH267657   3.089   1.982  14.743 -0.7447  0.1258 -0.2407
15389TIP3    H167658   3.133   1.961  14.661 -0.9642 -0.0455 -0.3169
15389TIP3    H267659   3.093   2.077  14.748  0.0829  0.0850  0.0129
15390TIP3   OH267660   4.494   3.166  11.159 -0.4541 -0.1503  0.3691
15390TIP3    H167661   4.414   3.219  11.148 -1.2793 -1.4031  0.1623
15390TIP3    H267662   4.557   3.205  11.099 -1.6800 -0.6088 -1.3106
15391TIP3   OH267663   6.438   5.922   2.726  0.2626  0.3087 -0.0163
15391TIP3    H167664   6.476   5.933   2.813 -2.6831  2.2363  1.2029
15391TIP3    H267665   6.350   5.887   2.743 -1.1259  2.5126 -1.9384
15392TIP3   OH267666   5.896   0.656  16.218 -0.0327  0.8552  0.0197
15392TIP3    H167667   5.919   0.608  16.297 -0.7722 -0.3112 -0.4586
15392TIP3    H267668   5.943   0.611  16.148 -0.0592  1.3556 -0.3286
15393TIP3   OH267669   4.618   5.699  16.994 -0.1282 -0.0336  0.2282
15393TIP3    H167670   4.619   5.604  17.003  1.7393 -0.1647 -0.7885
15393TIP3    H267671   4.557   5.716  16.923 -1.5163 -0.3422  1.3174
15394TIP3   OH267672   5.069   2.055  10.570 -0.1846 -0.0063 -0.6625
15394TIP3    H167673   5.079   1.967  10.533 -0.7525 -0.1445 -0.4980
15394TIP3    H267674   4.976   2.075  10.556 -0.0698  0.5390 -0.6360
15395TIP3   OH267675   5.593   6.198  12.648  0.4652 -0.0438  0.2483
15395TIP3    H167676   5.624   6.275  12.697  0.2372 -1.1688  2.2775
15395TIP3    H267677   5.673   6.152  12.622  0.5811  0.3383 -0.0858
15396TIP3   OH267678   0.393   4.249  15.713 -0.1442  0.1090 -0.1751
15396TIP3    H167679   0.310   4.205  15.730  0.6638 -1.8676 -0.9325
15396TIP3    H267680   0.410   4.231  15.620  1.1021  0.4930 -0.0347
15397TIP3   OH267681   4.857   2.679  15.635 -0.0397 -0.5635  0.4885
15397TIP3    H167682   4.917   2.750  15.611 -0.3340 -0.8068 -1.0182
15397TIP3    H267683   4.864   2.615  15.564  0.4234 -2.2138  1.9422
15398TIP3   OH267684   5.237   1.399   6.729 -0.3991  0.7286  0.3806
15398TIP3    H167685   5.296   1.353   6.669 -0.9363  1.3329 -0.6422
15398TIP3    H267686   5.296   1.449   6.786  0.1091  0.5394  0.0347
15399TIP3   OH267687   0.520   6.360  15.185 -0.1810 -0.6174  0.2821
15399TIP3    H167688   0.430   6.346  15.155  0.2469 -2.0686 -0.4094
15399TIP3    H267689   0.510   6.397  15.273 -1.4364  0.5097 -0.2829
15400TIP3   OH267690   4.590   1.536  13.253 -0.7768 -0.0078  0.4144
15400TIP3    H167691   4.570   1.471  13.320  0.9284  0.7942  1.7869
15400TIP3    H267692   4.584   1.621  13.298 -1.7314  0.7355 -1.0176
15401TIP3   OH267693   2.931   1.961  14.418  0.5672  0.1864 -0.1487
15401TIP3    H167694   2.896   1.947  14.330 -1.2401  0.6222  0.4370
15401TIP3    H267695   3.023   1.935  14.413  0.6970  0.8826 -2.3263
15402TIP3   OH267696   6.696   6.514   3.820  0.0306  0.2551  0.2036
15402TIP3    H167697   6.657   6.595   3.786  0.7130  0.7022  0.4794
15402TIP3    H267698   6.782   6.510   3.779  0.3988  0.1891  0.9726
15403TIP3   OH267699   1.044   6.127   4.015 -0.2770 -0.7178 -0.0824
15403TIP3    H167700   1.068   6.211   3.976 -1.6608  0.5141  1.5604
15403TIP3    H267701   1.113   6.110   4.079  0.4579 -1.3021 -0.9990
15404TIP3   OH267702   2.392   4.757   4.976 -0.1060 -0.6483  0.1197
15404TIP3    H167703   2.480   4.750   4.938 -0.1928  1.2054 -0.5412
15404TIP3    H267704   2.406   4.745   5.070  0.7058 -1.3158 -0.0697
15405TIP3   OH267705   0.352   2.569   5.414 -0.3435  0.0019  0.1791
15405TIP3    H167706   0.388   2.644   5.366  1.5714 -1.3280 -0.6042
15405TIP3    H267707   0.319   2.607   5.495  0.3569  1.7374 -0.2887
15406TIP3   OH267708   0.671   6.471  12.615 -0.1748  0.3998  0.3403
15406TIP3    H167709   0.692   6.414  12.540  1.0961  0.3470  0.7192
15406TIP3    H267710   0.576   6.462  12.625 -0.2950 -0.0219 -0.9145
15407TIP3   OH267711   1.525   3.754   1.440  0.3601  0.1002 -0.7441
15407TIP3    H167712   1.573   3.685   1.394 -0.8201  0.1357 -2.1066
15407TIP3    H267713   1.590   3.793   1.499  2.1987  0.5391 -2.9010
15408TIP3   OH267714   3.267   5.553  13.552 -0.1987  0.2366  0.3393
15408TIP3    H167715   3.350   5.519  13.587  0.1195 -0.3098 -0.8860
15408TIP3    H267716   3.294   5.622  13.491 -0.7481  1.2595  1.2266
15409TIP3   OH267717   2.588   1.141  16.974  0.2375  0.5464  0.3292
15409TIP3    H167718   2.518   1.201  17.000 -0.8035 -1.5941  2.9223
15409TIP3    H267719   2.559   1.105  16.890 -0.3320  1.7640 -0.0166
15410TIP3   OH267720   2.374   0.910  15.909  0.4778  0.1208 -0.3565
15410TIP3    H167721   2.453   0.870  15.943 -0.2041 -0.4848  0.5740
15410TIP3    H267722   2.320   0.926  15.987 -1.0346 -1.0895 -1.1130
15411TIP3   OH267723   0.850   5.193  16.402  0.1610 -0.1404 -0.2152
15411TIP3    H167724   0.808   5.202  16.488 -1.6905  1.2833 -1.1968
15411TIP3    H267725   0.871   5.282  16.376  1.7923 -0.6516 -0.7842
15412TIP3   OH267726   2.666   1.362   4.503 -0.2056  0.7542 -0.0875
15412TIP3    H167727   2.659   1.288   4.443  0.0860  1.3656 -0.8961
15412TIP3    H267728   2.747   1.406   4.477 -0.5099  1.5026  0.2100
15413TIP3   OH267729   1.518   2.295   1.887  0.1030  0.2170 -0.5190
15413TIP3    H167730   1.579   2.245   1.833 -0.4194  0.3116 -1.2128
15413TIP3    H267731   1.527   2.258   1.975  1.5787  0.6074 -0.4739
15414TIP3   OH267732   1.671   2.659   0.215  0.1080  0.2363  0.4092
15414TIP3    H167733   1.614   2.673   0.140  0.6762  1.8934  0.2613
15414TIP3    H267734   1.645   2.725   0.279  1.2702  0.4519  0.6867
15415TIP3   OH267735   6.365   0.197  13.738  0.0024 -0.2912  0.0793
15415TIP3    H167736   6.358   0.163  13.649 -0.6975  1.0222 -0.3875
15415TIP3    H267737   6.302   0.268  13.742 -1.9605 -1.9960  2.4602
15416TIP3   OH267738   4.613   2.224  14.258 -0.8209  0.3399 -0.0240
15416TIP3    H167739   4.642   2.145  14.212 -0.6922 -1.0300  2.2914
15416TIP3    H267740   4.694   2.272  14.275 -0.3370 -1.1660  2.2731
15417TIP3   OH267741   2.334   6.661  11.786 -0.2121  0.1680 -0.3889
15417TIP3    H167742   2.389   6.583  11.779 -0.3299  0.1827 -1.8631
15417TIP3    H267743   2.312   6.682  11.695 -2.3788  0.3666  0.1450
15418TIP3   OH267744   4.561   5.800   2.585  0.4194 -0.4365 -0.5833
15418TIP3    H167745   4.653   5.814   2.565 -0.2727  0.0565 -4.0718
15418TIP3    H267746   4.514   5.860   2.527 -2.1410 -0.4473  1.2908
15419TIP3   OH267747   2.016   1.095  15.592  0.0417 -0.2593  0.3902
15419TIP3    H167748   2.060   1.018  15.629 -0.8754 -0.4546  1.1317
15419TIP3    H267749   1.946   1.115  15.655 -0.7712  0.1890 -0.6192
15420TIP3   OH267750   4.917   5.492   0.544  0.2845  0.2999 -0.4448
15420TIP3    H167751   5.008   5.520   0.540 -0.0934  1.5269 -1.1565
15420TIP3    H267752   4.917   5.403   0.509  1.2902  0.0454  0.1868
15421TIP3   OH267753   2.828   3.774   0.855 -0.4201  0.0209 -0.2225
15421TIP3    H167754   2.788   3.713   0.917  0.9435 -1.2261 -0.5079
15421TIP3    H267755   2.865   3.843   0.909  2.7693 -2.1949  0.7136
15422TIP3   OH267756   0.632   2.209   1.984  0.1554  0.0175  0.4670
15422TIP3    H167757   0.570   2.279   1.964 -0.7326 -0.6770  0.7118
15422TIP3    H267758   0.630   2.152   1.907  0.1350 -0.2564  0.6675
15423TIP3   OH267759   6.220   3.211   5.758  0.7141  0.2150  0.1690
15423TIP3    H167760   6.151   3.172   5.705  1.3687 -0.7008 -0.0288
15423TIP3    H267761   6.183   3.213   5.846 -0.0097  0.8411 -0.1384
15424TIP3   OH267762   6.696   4.374   5.269 -0.4354  0.1394  0.0391
15424TIP3    H167763   6.613   4.413   5.239 -0.9769 -0.8929  0.1825
15424TIP3    H267764   6.670   4.301   5.325  0.5650 -0.5407 -0.3604
15425TIP3   OH267765   4.678   1.208  14.133  0.4657  0.6342  0.3175
15425TIP3    H167766   4.761   1.184  14.091  0.4399  2.1028 -0.6201
15425TIP3    H267767   4.702   1.223  14.224  1.1702  0.7516  0.1181
15426TIP3   OH267768   2.960   6.026   4.721 -0.0760  0.4282 -0.5177
15426TIP3    H167769   3.024   6.076   4.772  0.3200  0.6285 -1.1962
15426TIP3    H267770   3.012   5.985   4.652 -0.0989 -2.2322  0.9085
15427TIP3   OH267771   6.023   2.245   0.176  0.4873  0.5202  0.2150
15427TIP3    H167772   5.939   2.274   0.138  0.5215 -1.9070 -2.0094
15427TIP3    H267773   5.999   2.177   0.239  0.7304 -0.3120 -0.5617
15428TIP3   OH267774   0.489   1.376   2.826 -0.1587  0.4591  0.4486
15428TIP3    H167775   0.416   1.331   2.784 -0.3359  2.2299 -1.3269
15428TIP3    H267776   0.550   1.307   2.850 -1.9048 -0.9758  0.9679
15429TIP3   OH267777   4.846   5.872  11.193  0.5397 -0.0118  0.2853
15429TIP3    H167778   4.770   5.816  11.181  0.0130  0.4550  1.3360
15429TIP3    H267779   4.818   5.959  11.163  1.4848 -0.3357 -1.7476
15430TIP3   OH267780   1.860   6.539   2.073  0.3434 -0.0778 -0.1384
15430TIP3    H167781   1.908   6.501   2.147  0.5771 -0.4681 -0.4795
15430TIP3    H267782   1.772   6.552   2.106  0.3977 -0.4247  0.1586
15431TIP3   OH267783   0.196   6.024  11.996  0.1078  0.3154 -0.5759
15431TIP3    H167784   0.189   6.107  11.948 -0.6474 -0.2072 -1.3965
15431TIP3    H267785   0.209   6.051  12.087  1.8112  1.3182 -1.0794
15432TIP3   OH267786   5.496   1.674   1.552  0.2442 -0.2283  0.0534
15432TIP3    H167787   5.495   1.583   1.521 -0.7105 -1.0841  2.3759
15432TIP3    H267788   5.588   1.690   1.575  0.5420 -0.3371 -0.9894
15433TIP3   OH267789   6.138   1.100  16.727 -0.5983 -0.3034 -0.3251
15433TIP3    H167790   6.233   1.097  16.734 -0.6066  1.4613  1.4750
15433TIP3    H267791   6.107   1.052  16.804 -1.1651 -0.1501 -0.4544
15434TIP3   OH267792   5.089   5.672   3.379 -0.4340 -0.0165 -0.0898
15434TIP3    H167793   5.064   5.759   3.348  0.8495  0.4449  0.1120
15434TIP3    H267794   5.048   5.612   3.316 -0.9043  0.7466 -0.5326
15435TIP3   OH267795   0.138   6.622   5.735  0.0421  0.0414  0.1091
15435TIP3    H167796   0.153   6.635   5.641  1.0082 -0.8640  0.1163
15435TIP3    H267797   0.062   6.565   5.740 -1.6941  2.1851 -0.0151
15436TIP3   OH267798   4.162   1.017  11.472 -0.1592  0.0358 -0.3129
15436TIP3    H167799   4.208   0.942  11.510 -1.2782 -0.7713 -0.4903
15436TIP3    H267800   4.207   1.033  11.389  0.1992 -0.3283 -0.1922
15437TIP3   OH267801   5.323   3.271  13.838 -0.2934 -0.6211  0.4717
15437TIP3    H167802   5.232   3.278  13.811 -1.0264  0.8826  2.9044
15437TIP3    H267803   5.338   3.177  13.849 -1.3805 -0.9232 -0.4100
15438TIP3   OH267804   1.539   3.066  12.616 -0.5594 -0.0109  0.2156
15438TIP3    H167805   1.472   3.051  12.549 -0.7063  0.3309  0.2831
15438TIP3    H267806   1.593   3.136  12.581 -1.0521  0.6490  0.7524
15439TIP3   OH267807   0.880   0.332  13.833  0.0621  0.0653  0.0894
15439TIP3    H167808   0.869   0.376  13.917  4.2665  0.7651  0.4562
15439TIP3    H267809   0.909   0.244  13.856  0.0778 -0.1280 -0.6390
15440TIP3   OH267810   0.731   3.345  11.828  0.3817 -0.2006  0.0100
15440TIP3    H167811   0.797   3.376  11.890  2.0675 -1.6899 -0.9219
15440TIP3    H267812   0.729   3.411  11.759  0.0492  0.3988  0.5755
15441TIP3   OH267813   2.275   0.194   3.030  0.0368 -0.0447  0.6384
15441TIP3    H167814   2.215   0.120   3.030 -0.8950  0.6851  1.3948
15441TIP3    H267815   2.230   0.262   3.079  1.1189  0.8345  0.4694
15442TIP3   OH267816   4.236   3.428   4.011 -0.4132 -0.3927 -0.2863
15442TIP3    H167817   4.310   3.370   3.993 -0.6799 -0.6357 -0.5981
15442TIP3    H267818   4.268   3.486   4.080 -0.9585 -2.5361  1.9137
15443TIP3   OH267819   6.466   6.527  16.712  0.4225  0.7122  0.0353
15443TIP3    H167820   6.507   6.544  16.628  1.7467 -2.2249 -0.0471
15443TIP3    H267821   6.539   6.521  16.774 -0.3414  0.7431  0.9622
15444TIP3   OH267822   2.278   4.504   0.848 -0.5691  0.1501 -0.5421
15444TIP3    H167823   2.247   4.420   0.881  2.3505 -0.1350  1.9584
15444TIP3    H267824   2.252   4.567   0.915 -1.5694  1.0813 -1.7489
15445TIP3   OH267825   6.593   1.840  16.482  0.2331 -0.3880 -0.2357
15445TIP3    H167826   6.581   1.932  16.459  0.3019 -0.3411 -0.0899
15445TIP3    H267827   6.609   1.841  16.577 -0.7260 -0.6362 -0.0570
15446TIP3   OH267828   3.620   0.282   5.936 -0.4633  0.0366  0.8575
15446TIP3    H167829   3.697   0.332   5.963  0.1883 -1.0137  1.0205
15446TIP3    H267830   3.548   0.345   5.936  0.1313  0.7434  2.0549
15447TIP3   OH267831   0.873   1.520  16.848 -0.1486  0.6068  0.6886
15447TIP3    H167832   0.951   1.565  16.883  2.4698 -1.7331 -1.6128
15447TIP3    H267833   0.854   1.452  16.913 -0.5637  1.4323  1.4519
15448TIP3   OH267834   4.706   5.071  11.165  0.0504  0.2639 -0.3112
15448TIP3    H167835   4.715   5.162  11.137 -1.9150  0.4069 -0.5679
15448TIP3    H267836   4.685   5.076  11.258 -0.4803  0.0985 -0.4189
15449TIP3   OH267837   1.853   6.058   1.559  0.3516 -0.1774  0.2148
15449TIP3    H167838   1.804   5.988   1.515  0.2320  0.2758 -0.3951
15449TIP3    H267839   1.786   6.114   1.598  0.3541  0.4764 -0.6719
15450TIP3   OH267840   5.443   1.393  12.406  0.0611 -0.2741  0.3161
15450TIP3    H167841   5.471   1.474  12.364  0.7426 -0.2038  0.8842
15450TIP3    H267842   5.348   1.401  12.414 -0.1174 -0.3639 -1.3420
15451TIP3   OH267843   4.937   3.492  16.029  0.1905 -0.1693  0.7708
15451TIP3    H167844   4.894   3.464  16.110  1.0789 -1.1401  0.9392
15451TIP3    H267845   4.883   3.564  15.996 -0.3535  0.0429  2.0658
15452TIP3   OH267846   0.290   2.931  13.334 -0.4747 -0.7065 -0.2352
15452TIP3    H167847   0.287   3.026  13.317  1.3208 -0.8060 -1.3264
15452TIP3    H267848   0.215   2.915  13.391  0.0470  1.6162  1.2290
15453TIP3   OH267849   4.366   6.725  15.789 -0.5784 -0.2374 -0.1644
15453TIP3    H167850   4.454   6.715  15.753 -0.5200  1.1912 -0.4953
15453TIP3    H267851   4.309   6.676  15.728 -0.4107  1.6680 -1.9741
15454TIP3   OH267852   5.197   1.745   0.921  0.7393 -0.1624  0.2224
15454TIP3    H167853   5.276   1.694   0.934  0.4980 -0.4559  0.5601
15454TIP3    H267854   5.132   1.681   0.891  0.2947 -0.1564  1.1451
15455TIP3   OH267855   5.604   1.379  16.788 -0.2809 -0.1104 -0.2193
15455TIP3    H167856   5.656   1.379  16.708 -0.2771 -1.8934 -0.2558
15455TIP3    H267857   5.592   1.287  16.809 -1.6782  0.2929  0.9378
15456TIP3   OH267858   0.141   4.046   5.437  0.1349 -0.6966  0.1183
15456TIP3    H167859   0.151   4.050   5.532  2.7373 -2.0727 -0.0191
15456TIP3    H267860   0.165   4.133   5.406  0.8878 -0.7263  0.6133
15457TIP3   OH267861   3.277   2.807   2.532  0.4744  0.0920 -0.5500
15457TIP3    H167862   3.346   2.741   2.521 -0.6983 -1.0330 -1.3990
15457TIP3    H267863   3.199   2.767   2.494 -1.0298  0.7314  1.6384
15458TIP3   OH267864   5.260   2.193   0.503 -0.5320  0.6017 -0.4962
15458TIP3    H167865   5.175   2.204   0.459 -1.2317  2.5544  1.1806
15458TIP3    H267866   5.260   2.260   0.572  1.4723 -0.7931  0.9690
15459TIP3   OH267867   6.174   4.441  17.068 -0.2897 -0.1855 -0.5729
15459TIP3    H167868   6.107   4.445  17.000 -0.9847 -1.6685 -0.0011
15459TIP3    H267869   6.168   4.353  17.103 -0.1859  0.6354  1.6633
15460TIP3   OH267870   4.011   0.816  14.758  0.2875 -0.2549  0.2195
15460TIP3    H167871   4.100   0.816  14.791  0.3346 -1.1536  0.1220
15460TIP3    H267872   3.970   0.740  14.799 -0.6837  0.6094  0.8975
15461TIP3   OH267873   1.729   1.241  14.750  0.1790 -0.5416 -0.9098
15461TIP3    H167874   1.688   1.279  14.672  2.1286  0.8554 -1.3330
15461TIP3    H267875   1.819   1.222  14.723  0.0738 -2.9310  0.1415
15462TIP3   OH267876   1.933   3.978  17.108  0.2890 -0.5825 -0.2958
15462TIP3    H167877   1.948   3.912  17.176 -0.5775  0.2433  0.7383
15462TIP3    H267878   1.839   3.991  17.108  0.4077  0.3689 -0.7572
15463TIP3   OH267879   0.098   4.838  13.058 -0.0593  0.0015  0.2063
15463TIP3    H167880   0.057   4.919  13.088 -0.1861  0.1707 -0.4000
15463TIP3    H267881   0.024   4.782  13.032  0.0683  0.3183 -0.9173
15464TIP3   OH267882   5.289   1.327   0.935 -0.0392  0.3311 -0.3817
15464TIP3    H167883   5.333   1.390   0.992 -1.3307 -0.5809  1.7559
15464TIP3    H267884   5.350   1.254   0.929  0.0476  0.3733 -0.0420
15465TIP3   OH267885   0.985   0.037  17.005  0.3072  0.0606  0.1078
15465TIP3    H167886   1.027   0.102  17.061 -0.8830 -0.3821  1.5734
15465TIP3    H267887   0.981  -0.042  17.059 -0.3892 -0.5316 -0.7900
15466TIP3   OH267888   1.559   5.033   3.340  0.3240  0.9617 -0.0735
15466TIP3    H167889   1.476   5.060   3.303 -0.2951 -1.9937 -1.1622
15466TIP3    H267890   1.537   4.993   3.424  0.6710  0.5010 -0.1932
15467TIP3   OH267891   1.700   2.730  13.775  0.5680 -0.1876 -0.1521
15467TIP3    H167892   1.715   2.764  13.864 -0.2511 -0.9998  0.3210
15467TIP3    H267893   1.787   2.719  13.738  0.9661 -0.8022  0.9362
15468TIP3   OH267894   2.249   5.856   4.117 -0.3364  0.5911 -0.0074
15468TIP3    H167895   2.303   5.899   4.184  0.4754 -0.3613 -0.0249
15468TIP3    H267896   2.250   5.917   4.043 -1.4052  1.7423  0.8998
15469TIP3   OH267897   5.677   4.611  13.023 -0.2833 -0.2284  0.0343
15469TIP3    H167898   5.665   4.669  12.948  0.5368  0.5589  0.4891
15469TIP3    H267899   5.684   4.670  13.098  0.3224 -0.9306  0.5429
15470TIP3   OH267900   5.010   4.545   5.170 -0.2543  0.3818  0.2903
15470TIP3    H167901   4.971   4.625   5.134  0.2038  1.2761  1.6762
15470TIP3    H267902   4.941   4.480   5.166 -1.0506  1.2124  0.3003
15471TIP3   OH267903   6.753   1.822  15.956  0.5565  0.3583  0.1694
15471TIP3    H167904   6.771   1.914  15.976 -1.9295  0.9114  0.2166
15471TIP3    H267905   6.683   1.798  16.017 -2.3388 -0.0032 -2.9769
15472TIP3   OH267906   5.343   4.736  13.390 -0.3034  0.0859  0.1756
15472TIP3    H167907   5.250   4.726  13.407 -0.8026  2.0095 -1.1555
15472TIP3    H267908   5.351   4.734  13.295  0.5397  3.0599  0.0947
15473TIP3   OH267909   6.119   2.609   5.436 -0.1187  0.1360 -0.1567
15473TIP3    H167910   6.200   2.602   5.487 -0.3724  2.4985  0.6801
15473TIP3    H267911   6.058   2.550   5.480  0.2938  0.5445  0.9938
15474TIP3   OH267912   2.982   0.831  10.809 -0.2384 -0.4351 -0.8636
15474TIP3    H167913   3.073   0.858  10.819 -0.4449 -0.1210  0.2830
15474TIP3    H267914   2.987   0.751  10.756  0.6985 -0.3936 -0.8587
15475TIP3   OH267915   4.595   0.937  12.489 -0.5083  0.1642 -0.4748
15475TIP3    H167916   4.622   0.858  12.442 -1.4772 -0.1688 -0.4993
15475TIP3    H267917   4.677   0.983  12.509  0.0908 -0.9720 -0.2386
15476TIP3   OH267918   1.126   4.926   5.116  0.2280 -0.2689 -0.4822
15476TIP3    H167919   1.145   4.832   5.116 -0.1052 -0.3379 -0.4213
15476TIP3    H267920   1.104   4.947   5.026  0.3213 -0.2430 -0.4997
15477TIP3   OH267921   0.117   0.581  13.933 -0.9471 -0.1636  0.2283
15477TIP3    H167922   0.187   0.564  13.996  0.5253  1.4404 -0.8937
15477TIP3    H267923   0.044   0.612  13.986 -0.4005 -0.6478  1.3017
15478TIP3   OH267924   5.948   3.128   6.019 -0.2082  0.2712  0.2709
15478TIP3    H167925   5.937   3.146   6.113 -0.8728 -0.1381  0.2824
15478TIP3    H267926   6.016   3.188   5.991 -0.9861  1.4152  0.7307
15479TIP3   OH267927   2.175   2.586   3.797 -0.1013 -0.1897  0.0325
15479TIP3    H167928   2.091   2.559   3.834  0.1341 -0.6219  0.2671
15479TIP3    H267929   2.188   2.675   3.827 -0.3439 -0.2224  0.2325
15480TIP3   OH267930   5.802   5.072   2.564  0.3425 -0.4456  0.5189
15480TIP3    H167931   5.787   5.046   2.655 -0.4564  0.1897  0.5810
15480TIP3    H267932   5.798   5.168   2.566  0.8696 -0.4049 -0.0965
15481TIP3   OH267933   2.829   4.668   5.376 -0.4596  0.2157 -0.0654
15481TIP3    H167934   2.886   4.600   5.339  1.4302  2.3850 -1.3818
15481TIP3    H267935   2.776   4.698   5.302  0.7367  2.0702 -0.2095
15482TIP3   OH267936   6.492   1.431   6.517 -0.5601 -0.0619 -0.1191
15482TIP3    H167937   6.453   1.380   6.587 -0.9170 -0.1719 -0.3984
15482TIP3    H267938   6.581   1.397   6.508  0.0289  0.9881  1.3316
15483TIP3   OH267939   4.714   3.342   2.748  0.2730  0.0336  0.8200
15483TIP3    H167940   4.669   3.427   2.745 -0.3956 -0.3290  0.4284
15483TIP3    H267941   4.709   3.310   2.658  1.1611 -0.0983  0.8103
15484TIP3   OH267942   2.426   0.187   2.609  0.0591  0.5685 -0.1736
15484TIP3    H167943   2.467   0.226   2.687 -0.4815 -2.6822  1.9163
15484TIP3    H267944   2.349   0.242   2.593  1.4152  2.6629  0.0916
15485TIP3   OH267945   4.097   0.979   2.932 -0.6472 -0.2341 -0.5963
15485TIP3    H167946   4.124   1.040   2.863 -0.9609  0.8766  0.2440
15485TIP3    H267947   4.086   1.034   3.009  0.9470 -1.6310  0.6932
15486TIP3   OH267948   5.327   2.470   0.370  0.1976  0.2256 -0.4211
15486TIP3    H167949   5.361   2.385   0.343 -2.0285 -1.3985  1.5607
15486TIP3    H267950   5.384   2.496   0.443  0.1057 -0.2010 -0.1927
15487TIP3   OH267951   6.037   1.392   4.313 -0.0634 -0.1966  0.0783
15487TIP3    H167952   6.024   1.478   4.354  2.4427  1.6182 -2.4730
15487TIP3    H267953   5.980   1.394   4.236 -0.4543 -1.1109  0.3331
15488TIP3   OH267954   5.134   4.120   5.157 -0.1086  0.0860  0.2955
15488TIP3    H167955   5.130   4.204   5.201 -2.8907  0.0885  0.1834
15488TIP3    H267956   5.174   4.139   5.072  2.9183  0.5087  1.6774
15489TIP3   OH267957   1.431   0.646   4.410 -0.2695 -0.5553 -0.6502
15489TIP3    H167958   1.373   0.627   4.484  3.1772 -2.3317  1.8802
15489TIP3    H267959   1.484   0.721   4.440  0.4902 -0.6402 -1.7390
15490TIP3   OH267960   4.477   5.105   6.356 -0.0184 -0.0536  0.4867
15490TIP3    H167961   4.432   5.051   6.421  0.1968 -0.0007  0.6804
15490TIP3    H267962   4.422   5.099   6.278  0.0646 -0.6432  0.4703
15491TIP3   OH267963   6.038   5.029   2.055  0.0939 -0.0733 -0.0156
15491TIP3    H167964   6.006   5.044   2.144 -0.0738  2.2955 -0.4294
15491TIP3    H267965   5.982   5.084   2.000  0.1042 -1.5927 -1.6374
15492TIP3   OH267966   5.753   2.178   1.975 -0.6670 -0.0911  0.4020
15492TIP3    H167967   5.825   2.240   1.964 -0.5192 -0.5235 -1.4567
15492TIP3    H267968   5.681   2.217   1.924 -0.3970 -1.6586 -1.2858
15493TIP3   OH267969   4.420   2.711   1.147 -0.3637 -0.0020  0.5101
15493TIP3    H167970   4.441   2.620   1.127  2.2138  0.5147  0.5013
15493TIP3    H267971   4.417   2.715   1.243 -0.1613 -0.0392  0.5183
15494TIP3   OH267972   1.108   0.438  17.126 -0.2598 -0.2931 -0.4250
15494TIP3    H167973   1.100   0.345  17.145  1.5819 -0.7014 -1.4927
15494TIP3    H267974   1.199   0.459  17.144 -0.5913  1.2589 -0.4287
15495TIP3   OH267975   6.670   2.765  16.031 -0.1349  0.1082 -0.0144
15495TIP3    H167976   6.689   2.678  16.064 -2.1015 -1.1480 -1.8865
15495TIP3    H267977   6.650   2.817  16.108  0.7626 -1.1849  1.1258
15496TIP3   OH267978   2.608   5.993  15.842  0.1187  0.0648 -0.3137
15496TIP3    H167979   2.659   5.919  15.811  0.1169 -0.1933  0.3007
15496TIP3    H267980   2.673   6.057  15.872  0.0901 -0.3315  0.6248
15497TIP3   OH267981   6.009   1.371   5.033  0.1178  0.3471 -0.1090
15497TIP3    H167982   5.923   1.342   5.004  0.2563 -0.7358  0.5018
15497TIP3    H267983   6.043   1.423   4.960 -0.0903 -1.1668 -1.3448
15498TIP3   OH267984   0.471   4.793   5.537 -0.1386 -0.2092  0.4819
15498TIP3    H167985   0.498   4.838   5.458  0.9248 -2.2410 -0.3905
15498TIP3    H267986   0.530   4.718   5.544 -0.5104 -0.3700  2.9522
15499TIP3   OH267987   4.113   2.285   2.440  0.1400 -0.1174 -0.3557
15499TIP3    H167988   4.100   2.282   2.345  0.0365 -1.6638 -0.3187
15499TIP3    H267989   4.028   2.262   2.477  0.7290 -1.8970  0.0327
15500TIP3   OH267990   6.161   1.997  15.018 -0.2124 -0.1641 -0.1047
15500TIP3    H167991   6.236   2.022  14.964 -1.1832 -1.6385 -2.2730
15500TIP3    H267992   6.200   1.958  15.097  1.2428  1.5379  0.0859
15501TIP3   OH267993   0.569   0.983   3.469 -0.1699  0.1858 -0.0429
15501TIP3    H167994   0.576   0.959   3.561  1.6494 -0.1226 -0.2308
15501TIP3    H267995   0.581   0.900   3.422  1.1566  0.6645 -0.5839
15502TIP3   OH267996   3.867   2.872   2.302 -0.5222 -0.0274  0.3363
15502TIP3    H167997   3.787   2.858   2.251  0.4968 -1.0497 -1.0411
15502TIP3    H267998   3.847   2.832   2.387 -1.4654 -0.3152 -0.0058
15503TIP3   OH267999   1.350   0.068  12.950  0.4160 -0.1789 -0.5953
15503TIP3    H168000   1.327   0.158  12.925  0.6416 -0.1590 -0.7289
15503TIP3    H268001   1.385   0.029  12.871 -0.4111 -0.6393 -0.7487
15504TIP3   OH268002   4.765   1.522  12.664  0.6040 -0.2516 -0.3278
15504TIP3    H168003   4.739   1.489  12.750 -0.9193  1.1198 -0.2076
15504TIP3    H268004   4.816   1.600  12.683 -0.8207  0.7969 -0.6343
15505TIP3   OH268005   1.517   3.206   2.939  0.0844  0.5314 -0.3203
15505TIP3    H168006   1.578   3.259   2.887  0.5116  1.2168  0.8377
15505TIP3    H268007   1.561   3.122   2.950  1.2835  1.3181  1.2723
15506TIP3   OH268008   5.478   3.576  11.470 -0.2218 -0.3278 -0.4686
15506TIP3    H168009   5.550   3.628  11.505  0.0779  0.7655 -2.5201
15506TIP3    H268010   5.421   3.640  11.427 -1.4196 -1.3905 -0.5385
15507TIP3   OH268011   1.527   3.411   4.262 -0.3753  0.3599  0.4090
15507TIP3    H168012   1.539   3.481   4.198 -0.3750  0.5000  0.5645
15507TIP3    H268013   1.573   3.440   4.340  1.5161 -0.7748 -0.2188
15508TIP3   OH268014   5.312   6.181   3.803 -0.0723  0.2066 -0.0895
15508TIP3    H168015   5.379   6.239   3.767 -0.4438  0.6182 -0.1270
15508TIP3    H268016   5.359   6.100   3.825  0.1278 -0.1033 -1.6040
15509TIP3   OH268017   2.324   3.067   1.623  0.1645 -0.4887  1.0285
15509TIP3    H168018   2.342   3.085   1.531  0.5572 -1.5492  0.8899
15509TIP3    H268019   2.235   3.032   1.625 -0.1666  0.3343  1.1642
15510TIP3   OH268020   6.112   4.694   6.035 -0.6190 -0.1594 -0.1025
15510TIP3    H168021   6.089   4.751   5.961 -0.7680  0.5650  0.4924
15510TIP3    H268022   6.205   4.714   6.051  0.5122 -2.9095 -2.3567
15511TIP3   OH268023   2.960   5.540   0.165  0.1107  0.0933  0.1272
15511TIP3    H168024   2.994   5.630   0.170 -2.8001  1.2779  0.7224
15511TIP3    H268025   3.031   5.485   0.197  2.2937  2.0659 -1.0360
15512TIP3   OH268026   4.008   2.631   2.911  0.0587 -0.1759 -0.2880
15512TIP3    H168027   4.018   2.654   3.003  0.4445  0.6108 -0.5144
15512TIP3    H268028   3.953   2.700   2.874  0.2560 -0.2480 -0.7340
15513TIP3   OH268029   5.806   5.505  16.398 -0.4574 -0.2722 -0.0424
15513TIP3    H168030   5.875   5.490  16.462 -1.3064  0.6659  1.1349
15513TIP3    H268031   5.747   5.431  16.410 -2.0766  1.2511  2.3132
15514TIP3   OH268032   5.590   6.403   5.418 -0.1838 -0.0260 -0.3267
15514TIP3    H168033   5.608   6.324   5.470  3.0488  0.5205 -0.4531
15514TIP3    H268034   5.632   6.474   5.467  0.6359  0.9252 -2.3030
15515TIP3   OH268035   3.102   1.772   4.701 -0.2325  0.7093 -0.2176
15515TIP3    H168036   3.130   1.824   4.776 -1.6444  1.9659 -0.5292
15515TIP3    H268037   3.168   1.702   4.695  0.6366  1.3411  1.3676
15516TIP3   OH268038   0.745   5.146   0.445 -0.5991  0.3591 -0.1097
15516TIP3    H168039   0.766   5.117   0.356 -1.1101 -0.7960  0.1410
15516TIP3    H268040   0.825   5.191   0.474 -0.5898  1.1839 -1.3092
15517TIP3   OH268041   4.201   6.517   1.835 -0.1014 -0.3114 -0.0406
15517TIP3    H168042   4.177   6.533   1.927  0.6826 -2.4111  0.5907
15517TIP3    H268043   4.285   6.562   1.825 -1.2028  1.8120 -0.4526
15518TIP3   OH268044   3.731   6.755   4.689  0.8039 -0.3144 -0.0266
15518TIP3    H168045   3.810   6.720   4.730  0.6345 -1.3976 -0.5996
15518TIP3    H268046   3.763   6.825   4.631  1.2862 -0.4422  0.0849
15519TIP3   OH268047   4.321   0.692   5.343 -0.1227  0.3945  0.3676
15519TIP3    H168048   4.404   0.709   5.297 -1.2909  1.5695 -1.4514
15519TIP3    H268049   4.289   0.611   5.304 -0.4708  0.6864  0.0287
15520TIP3   OH268050   6.821   0.238   5.953  0.0604 -0.3177  0.1174
15520TIP3    H168051   6.909   0.217   5.982  0.3885  0.9809  0.1146
15520TIP3    H268052   6.828   0.326   5.917 -0.9368 -0.7368 -1.2107
15521TIP3   OH268053   6.539   3.133  16.218 -0.4152 -0.5800  0.0057
15521TIP3    H168054   6.479   3.162  16.148  1.7845  0.8768 -1.3996
15521TIP3    H268055   6.539   3.038  16.211  0.9728 -0.4803 -3.2092
15522TIP3   OH268056   0.635   6.000   4.223  0.0295 -0.0925  0.0505
15522TIP3    H168057   0.571   6.006   4.294  1.2702 -0.1278  1.2242
15522TIP3    H268058   0.708   5.951   4.261  0.0079 -1.6567 -1.8224
15523TIP3   OH268059   5.757   1.660  14.515 -0.2627 -0.4404 -0.4281
15523TIP3    H168060   5.704   1.705  14.581  0.8597  1.1829 -0.5687
15523TIP3    H268061   5.824   1.613  14.564  1.1114  1.4694 -0.3554
15524TIP3   OH268062   5.109   2.176   2.033  0.3301  0.0395  0.2026
15524TIP3    H168063   5.106   2.120   1.955 -0.9778  0.3216  0.0243
15524TIP3    H268064   5.196   2.216   2.031  1.3853 -2.1083  0.4420
15525TIP3   OH268065   6.123   5.439   0.580 -0.7902  0.1697  0.1436
15525TIP3    H168066   6.042   5.445   0.631 -0.8668 -0.3669  0.0941
15525TIP3    H268067   6.099   5.388   0.503 -0.0257 -1.4804  0.9386
15526TIP3   OH268068   6.214   0.770  15.594 -0.4704 -0.1835 -0.2413
15526TIP3    H168069   6.249   0.767  15.505  0.1474  2.7489 -0.2006
15526TIP3    H268070   6.271   0.831  15.640 -2.9392  1.2826  1.1058
15527TIP3   OH268071   5.920   5.665  17.200 -0.0271  0.1547  0.1516
15527TIP3    H168072   5.957   5.696  17.117  0.2271  0.2373  0.2946
15527TIP3    H268073   5.833   5.706  17.204 -0.3637 -0.4753 -0.4441
15528TIP3   OH268074   6.265   0.115   5.691 -0.1394 -0.4698  0.5575
15528TIP3    H168075   6.232   0.200   5.662  0.3169 -0.5289 -0.1442
15528TIP3    H268076   6.287   0.128   5.784  1.4056  0.6347  0.0726
15529TIP3   OH268077   1.587   1.774   5.774  0.9665 -0.3496  0.4032
15529TIP3    H168078   1.667   1.728   5.749  0.6158  0.0762 -1.6935
15529TIP3    H268079   1.607   1.867   5.757  0.8518  0.0648  2.2915
15530TIP3   OH268080   5.346   1.165   4.261  0.1341  0.0398 -0.1806
15530TIP3    H168081   5.313   1.076   4.275  1.2561 -0.4847 -0.6955
15530TIP3    H268082   5.388   1.162   4.175 -1.8661  1.7235 -1.2928
15531TIP3   OH268083   5.350   2.023  15.478  0.1800  0.1130  0.0639
15531TIP3    H168084   5.332   2.106  15.522 -0.5238 -0.6219  1.2128
15531TIP3    H268085   5.370   1.962  15.549 -0.2056 -0.9210 -0.6900
15532TIP3   OH268086   3.716   0.481  12.904 -0.3247 -0.1658 -0.4396
15532TIP3    H168087   3.623   0.460  12.914 -0.6947  2.0166  1.9495
15532TIP3    H268088   3.763   0.404  12.936 -1.3401 -0.7083 -0.2283
15533TIP3   OH268089   2.433   4.629   1.805 -0.5852 -0.1400 -0.2049
15533TIP3    H168090   2.400   4.702   1.856  2.0879  1.6879 -0.8945
15533TIP3    H268091   2.527   4.645   1.796  0.3491 -4.1593  0.3566
15534TIP3   OH268092   6.045   0.156   1.851  0.4279 -0.2134  0.3240
15534TIP3    H168093   5.962   0.124   1.817 -1.1839  2.6458  1.2045
15534TIP3    H268094   6.089   0.195   1.774 -0.0995  0.2599  0.2565
15535TIP3   OH268095   1.023   2.047  16.006 -0.1571 -0.3560  0.1569
15535TIP3    H168096   1.021   1.992  16.085  0.1326  1.4008  1.4731
15535TIP3    H268097   0.971   2.124  16.030  1.6006  1.1599 -0.5852
15536TIP3   OH268098   0.684   3.001   1.913  0.2232 -0.4691  0.3956
15536TIP3    H168099   0.715   2.940   1.847 -0.7477 -0.0605 -0.4531
15536TIP3    H268100   0.622   2.951   1.965 -0.6727 -0.1862 -0.3824
15537TIP3   OH268101   1.065   0.650   6.664  0.1462  0.2304  0.2490
15537TIP3    H168102   1.026   0.737   6.675 -0.0271  0.1851  0.0179
15537TIP3    H268103   0.996   0.599   6.620  0.5445  0.2096 -0.3598
15538TIP3   OH268104   2.372   0.235   0.367  0.0127  0.1836 -0.3783
15538TIP3    H168105   2.432   0.229   0.441  1.4926  0.1979 -1.5239
15538TIP3    H268106   2.358   0.329   0.355 -2.5747  0.1871  1.6047
15539TIP3   OH268107   4.551   3.978  15.597  0.1124  0.0785 -0.0840
15539TIP3    H168108   4.619   3.911  15.598 -1.9974 -2.2021  1.6653
15539TIP3    H268109   4.525   3.984  15.505  0.4588 -1.4017 -0.3005
15540TIP3   OH268110   5.747   4.656  12.155 -0.1371  0.2097  0.2042
15540TIP3    H168111   5.812   4.585  12.159  0.0267  0.3886  0.9060
15540TIP3    H268112   5.783   4.718  12.092  1.3691  1.2431  1.9762
15541TIP3   OH268113   3.091   1.100  16.129  0.0709  0.1104  0.4276
15541TIP3    H168114   3.083   1.073  16.038  0.5490  0.9544  0.1288
15541TIP3    H268115   3.030   1.043  16.176  0.3975 -0.8701 -0.3032
15542TIP3   OH268116   3.424   5.910   0.744 -0.4722 -0.4160 -0.4951
15542TIP3    H168117   3.365   5.974   0.782  0.2982 -0.8992  1.6938
15542TIP3    H268118   3.414   5.833   0.800  1.6298 -0.7666 -0.5221
15543TIP3   OH268119   6.775   2.181  12.241 -0.6637  0.1681  0.4564
15543TIP3    H168120   6.835   2.223  12.179  1.1256 -2.7094  0.0861
15543TIP3    H268121   6.832   2.147  12.310 -1.8667 -2.2833  0.3194
15544TIP3   OH268122   4.938   4.854   3.171 -0.0604 -0.1204  0.4653
15544TIP3    H168123   4.871   4.838   3.238 -0.0853  0.9928  0.7352
15544TIP3    H268124   4.913   4.938   3.132 -0.4198 -1.0483 -1.4308
15545TIP3   OH268125   1.640   2.663   3.617  0.0583  0.4431 -0.2509
15545TIP3    H168126   1.736   2.656   3.614  0.0543  0.3836 -0.2419
15545TIP3    H268127   1.622   2.754   3.594 -0.0442 -0.2222 -3.2215
15546TIP3   OH268128   0.693   3.901   0.160 -0.6108  0.0909  0.3757
15546TIP3    H168129   0.670   3.899   0.253 -1.9134  2.5769  0.1935
15546TIP3    H268130   0.772   3.956   0.155  0.6457 -1.6577  0.1572
15547TIP3   OH268131   1.854   5.667   1.555 -0.0587 -1.0219 -0.1429
15547TIP3    H168132   1.901   5.640   1.477 -0.3017 -0.6071 -0.4423
15547TIP3    H268133   1.800   5.741   1.526 -0.1563 -0.8661  0.4145
15548TIP3   OH268134   6.607   0.981  13.162  0.3450  0.1652 -0.0390
15548TIP3    H168135   6.668   0.909  13.179  0.6433 -0.0378 -1.8213
15548TIP3    H268136   6.652   1.035  13.098 -0.5171  1.1391  0.1574
15549TIP3   OH268137   4.966   3.205  15.180 -0.1952  0.0647  0.4171
15549TIP3    H168138   4.893   3.162  15.224 -0.6080 -0.1299 -0.4390
15549TIP3    H268139   4.968   3.293  15.217 -0.2863 -0.2224  1.1026
15550TIP3   OH268140   4.245   0.589  11.883 -0.3344  0.4326 -0.0302
15550TIP3    H168141   4.176   0.523  11.874 -0.7458  0.7513  0.6388
15550TIP3    H268142   4.310   0.548  11.940  0.8070 -0.4514 -1.8832
15551TIP3   OH268143   4.755   3.153  14.455 -0.1532 -0.8236  0.3570
15551TIP3    H168144   4.842   3.149  14.495 -0.3207  0.4606  0.8954
15551TIP3    H268145   4.760   3.094  14.381  0.6418 -2.1176  1.3970
15552TIP3   OH268146   6.083   3.238   1.496 -0.0646  0.5991 -0.1401
15552TIP3    H168147   6.128   3.265   1.416  0.3061  0.9080  0.1717
15552TIP3    H268148   6.108   3.303   1.562 -3.1224  2.4244 -0.5891
15553TIP3   OH268149   1.198   1.149  11.391 -0.7091  0.5932  0.7230
15553TIP3    H168150   1.163   1.238  11.387 -1.6885  0.1891 -0.1775
15553TIP3    H268151   1.121   1.093  11.383  0.1438 -0.3485 -1.7575
15554TIP3   OH268152   0.003   2.365  15.831 -0.6381 -0.4120 -0.1968
15554TIP3    H168153   0.002   2.461  15.838 -0.4163 -0.3614 -0.8184
15554TIP3    H268154   0.095   2.341  15.847 -0.9552 -0.6402  1.3943
15555TIP3   OH268155   3.698   3.866  11.823 -0.3844 -0.6633 -0.1713
15555TIP3    H168156   3.682   3.861  11.729  1.1318  1.5350 -0.5950
15555TIP3    H268157   3.786   3.901  11.831 -1.2130  1.1289  2.0529
15556TIP3   OH268158   2.162   6.119  16.811 -0.4985 -0.0519 -0.1772
15556TIP3    H168159   2.211   6.185  16.762 -1.2490 -1.1781 -2.5957
15556TIP3    H268160   2.205   6.114  16.896  1.9513  0.8249 -1.3047
15557TIP3   OH268161   2.645   4.017   1.353 -0.0362  0.2449  0.2372
15557TIP3    H168162   2.703   3.966   1.409  0.9905  0.5460 -0.5177
15557TIP3    H268163   2.600   4.077   1.412  0.7992  0.3481  0.7759
15558TIP3   OH268164   1.934   6.709   3.487 -0.4188  0.3170 -0.3364
15558TIP3    H168165   1.928   6.771   3.414  0.7471  0.6219 -0.1959
15558TIP3    H268166   1.849   6.666   3.489 -0.1533 -0.4198 -2.5191
15559TIP3   OH268167   6.821   3.947   1.959  0.0525  0.2704 -0.1385
15559TIP3    H168168   6.807   4.023   1.902 -0.4510  0.2567 -0.0372
15559TIP3    H268169   6.916   3.937   1.963  0.0946  0.2922 -0.9518
15560TIP3   OH268170   1.121   3.851   6.274  0.2357 -0.6947 -0.0918
15560TIP3    H168171   1.033   3.814   6.282 -0.3756  0.3554 -1.5339
15560TIP3    H268172   1.108   3.946   6.279  1.4856 -0.5567  1.1622
15561TIP3   OH268173   5.354   0.952  14.732  0.0313 -0.1682  0.7210
15561TIP3    H168174   5.274   0.981  14.687  2.0812  0.6515 -2.8109
15561TIP3    H268175   5.339   0.859  14.748 -2.5033  0.4287  2.4042
15562TIP3   OH268176   4.025   1.931  15.182  0.1546 -0.2969 -0.5545
15562TIP3    H168177   4.105   1.984  15.187 -0.4202  0.6968 -1.4427
15562TIP3    H268178   3.977   1.966  15.107 -1.9398  0.3086  0.9642
15563TIP3   OH268179   4.436   4.683  15.671 -0.3255 -0.3252  0.2390
15563TIP3    H168180   4.480   4.760  15.706  2.7458 -2.1460  0.7643
15563TIP3    H268181   4.371   4.718  15.610  0.3608  2.6507  1.0534
15564TIP3   OH268182   6.746   5.762  11.636 -0.6684 -0.0454 -0.3909
15564TIP3    H168183   6.661   5.790  11.669  1.2064  2.0316  3.2519
15564TIP3    H268184   6.764   5.680  11.681  0.4024  0.9958  1.1606
15565TIP3   OH268185   3.891   6.230  13.364  0.3201  0.0087 -0.1741
15565TIP3    H168186   3.825   6.273  13.419 -0.8504 -0.8298 -0.8818
15565TIP3    H268187   3.951   6.301  13.340  0.4679  0.5338  1.5836
15566TIP3   OH268188   3.958   4.116  12.055 -0.0975 -0.3930  0.0009
15566TIP3    H168189   3.975   4.058  12.129  0.6419 -0.2126 -0.0230
15566TIP3    H268190   3.965   4.061  11.978 -2.8033 -1.0310  0.1209
15567TIP3   OH268191   0.229   5.837   5.649  0.2328 -0.0177 -0.1445
15567TIP3    H168192   0.211   5.847   5.742  0.7862 -1.0252  0.0837
15567TIP3    H268193   0.155   5.786   5.616  0.4666 -0.3986 -0.0824
15568TIP3   OH268194   6.751   1.053   4.655 -0.0351  0.0480 -0.3382
15568TIP3    H168195   6.688   1.113   4.616 -1.2527 -0.7614  0.3155
15568TIP3    H268196   6.730   0.968   4.616  0.8866 -0.1772 -0.3701
15569TIP3   OH268197   4.176   3.085  17.142  0.0097 -0.0863 -0.5223
15569TIP3    H168198   4.207   3.049  17.059  0.0794  0.3669 -0.6974
15569TIP3    H268199   4.245   3.145  17.170 -1.0350  1.5916 -1.3423
15570TIP3   OH268200   0.918   2.395   1.217 -0.0649  0.0071 -0.0764
15570TIP3    H168201   0.842   2.443   1.252 -0.4284 -1.6206  1.4972
15570TIP3    H268202   0.879   2.324   1.165  0.4177  0.0813 -0.5412
15571TIP3   OH268203   0.063   2.444  10.699  0.2075 -0.4164  0.0086
15571TIP3    H168204   0.116   2.485  10.631  0.8659 -0.2562  0.6138
15571TIP3    H268205  -0.025   2.480  10.686  0.5748  0.4719 -0.0624
15572TIP3   OH268206   6.362   6.364  15.012 -0.2301 -0.6240  0.5417
15572TIP3    H168207   6.440   6.314  15.038  0.2695 -0.0753  0.1159
15572TIP3    H268208   6.394   6.428  14.949 -1.2947 -1.4978 -0.9654
15573TIP3   OH268209   6.774   4.229  14.717  0.2348 -0.0463 -0.2041
15573TIP3    H168210   6.703   4.255  14.775  1.0598 -0.8196  1.1957
15573TIP3    H268211   6.851   4.224  14.773  1.1330 -0.5325 -1.4286
15574TIP3   OH268212   0.084   6.592  13.314  0.2268 -0.0107 -0.2225
15574TIP3    H168213   0.172   6.597  13.350  0.2012 -2.1187  0.2464
15574TIP3    H268214   0.097   6.562  13.224  0.0040  0.2369 -0.3386
15575TIP3   OH268215   3.252   6.057  12.639  0.1504 -0.1463  0.1966
15575TIP3    H168216   3.289   6.036  12.553  2.2171 -0.1005  1.0136
15575TIP3    H268217   3.307   6.009  12.700 -0.4298  0.9063  1.5916
15576TIP3   OH268218   1.275   0.597  15.716  0.0168  0.2930  0.0843
15576TIP3    H168219   1.190   0.638  15.699  0.0112  0.3451  0.2377
15576TIP3    H268220   1.260   0.504  15.701 -0.1587  0.2589  0.4553
15577TIP3   OH268221   6.191   3.981   2.621 -0.3771  0.3865  0.5144
15577TIP3    H168222   6.168   3.969   2.529 -1.8943 -1.9819  1.1087
15577TIP3    H268223   6.287   3.976   2.622 -0.2815  1.3426 -1.0016
15578TIP3   OH268224   2.035   0.176   1.752 -0.2422  0.3433 -0.1894
15578TIP3    H168225   2.003   0.096   1.793  0.2521  0.7510  1.0268
15578TIP3    H268226   1.980   0.186   1.674 -4.2699  1.8082  2.4992
15579TIP3   OH268227   5.510   2.027  14.711 -0.7136 -0.3046  0.0476
15579TIP3    H168228   5.491   2.121  14.708 -0.9494 -0.1709  2.9465
15579TIP3    H268229   5.433   1.988  14.754  0.6106 -1.3613  1.5761
15580TIP3   OH268230   3.570   1.300  11.352 -0.6747 -0.4252  0.2982
15580TIP3    H168231   3.527   1.217  11.332  0.0858 -0.6733 -0.3885
15580TIP3    H268232   3.542   1.359  11.282 -0.0729 -0.5381 -0.0516
15581TIP3   OH268233   0.134   2.909  12.603 -0.1220 -0.1639  0.2275
15581TIP3    H168234   0.120   2.891  12.695 -1.9269  1.1746  0.2550
15581TIP3    H268235   0.168   2.998  12.601 -2.3729  0.7415 -0.4749
15582TIP3   OH268236   2.390   5.569  13.174  0.1421  0.0924  0.2901
15582TIP3    H168237   2.453   5.535  13.110 -1.5362 -0.9428 -0.8687
15582TIP3    H268238   2.307   5.574  13.127 -1.1538 -0.7005  2.3566
15583TIP3   OH268239   0.524   6.698   2.411 -1.0156 -0.2240 -0.0061
15583TIP3    H168240   0.485   6.630   2.467 -0.5075  0.7947  1.6621
15583TIP3    H268241   0.457   6.766   2.405 -1.0349 -0.2906 -0.5849
15584TIP3   OH268242   5.178   1.864  12.060 -0.1466  0.1119 -0.1451
15584TIP3    H168243   5.166   1.839  12.152  2.7710  3.4040  1.3844
15584TIP3    H268244   5.134   1.948  12.052  0.1482  0.1514 -1.5827
15585TIP3   OH268245   2.099   6.577   4.806 -0.3041 -0.4316  0.3854
15585TIP3    H168246   2.193   6.559   4.802 -0.2920 -0.5490  1.0417
15585TIP3    H268247   2.062   6.531   4.730  0.2549  0.2037 -0.2852
15586TIP3   OH268248   4.783   3.479   0.258 -0.1388 -0.9204  0.1047
15586TIP3    H168249   4.809   3.516   0.343  0.8182  1.5968 -1.1950
15586TIP3    H268250   4.862   3.482   0.205 -1.2494 -0.3302 -1.5786
15587TIP3   OH268251   1.561   2.535  10.669 -0.0550 -0.1372  0.0568
15587TIP3    H168252   1.556   2.623  10.632  0.5979 -0.2106 -0.2076
15587TIP3    H268253   1.625   2.489  10.615 -1.2898 -1.1675 -0.5795
15588TIP3   OH268254   3.512   0.064   1.001 -0.5187 -0.0978  0.0863
15588TIP3    H168255   3.569   0.113   0.942 -0.4301 -0.3312 -0.0220
15588TIP3    H268256   3.546  -0.026   0.999 -1.2469 -0.3793 -0.4407
15589TIP3   OH268257   0.236   4.819   5.203 -0.1221 -0.0549  0.0067
15589TIP3    H168258   0.260   4.830   5.111 -0.0579 -3.2036 -0.4595
15589TIP3    H268259   0.296   4.876   5.250  0.6644  0.7117 -1.8051
15590TIP3   OH268260   1.399   6.074   2.140 -0.2066 -0.4153 -0.0168
15590TIP3    H168261   1.336   6.022   2.090 -0.6442 -0.7250  0.8495
15590TIP3    H268262   1.347   6.145   2.177 -0.5094 -1.7800  2.3805
15591TIP3   OH268263   2.802   3.270  11.467  0.4531 -0.5020  0.0054
15591TIP3    H168264   2.737   3.306  11.406 -0.1038 -1.7603 -0.1807
15591TIP3    H268265   2.789   3.175  11.463  1.1101 -0.6784  1.3111
15592TIP3   OH268266   0.142   0.784   4.610  0.3860  0.3054  0.4804
15592TIP3    H168267   0.108   0.857   4.559  0.0366  1.0147  1.6845
15592TIP3    H268268   0.204   0.824   4.672  2.4168 -0.7887 -0.7481
15593TIP3   OH268269   1.928   4.074  14.508 -0.4044  0.5707 -0.2750
15593TIP3    H168270   1.856   4.067  14.570 -0.4463  0.6784 -0.3097
15593TIP3    H268271   1.987   4.003  14.531 -0.1289  0.9666  0.2681
15594TIP3   OH268272   0.517   6.080   2.716 -0.5056  0.4157 -0.7325
15594TIP3    H168273   0.590   6.140   2.732 -1.0412  0.8533  0.1388
15594TIP3    H268274   0.455   6.132   2.665 -1.5069  1.0385  1.0400
15595TIP3   OH268275   0.812   6.552   1.805 -0.4771  0.7923  0.1018
15595TIP3    H168276   0.736   6.596   1.767  0.6697  2.8571  0.0190
15595TIP3    H268277   0.796   6.554   1.900 -0.8327  0.6059  0.0472
15596TIP3   OH268278   2.648   6.746  10.636  0.5968  0.5631  0.7938
15596TIP3    H168279   2.614   6.824  10.681  0.3463  1.1324 -0.3355
15596TIP3    H268280   2.594   6.674  10.669 -1.2085  1.3277 -0.3309
15597TIP3   OH268281   0.707   1.701   1.293  0.3159 -0.0138  0.5845
15597TIP3    H168282   0.733   1.628   1.349  1.3735 -0.1493 -0.0696
15597TIP3    H268283   0.789   1.737   1.260 -0.2595  0.5024 -0.3250
15598TIP3   OH268284   1.674   6.335  16.057 -0.1452  0.0793  0.9294
15598TIP3    H168285   1.683   6.295  15.971 -1.5707  0.0021  0.7928
15598TIP3    H268286   1.692   6.428  16.041  0.1897 -0.0245  0.6736
15599TIP3   OH268287   5.897   6.247  11.224 -0.4650 -0.4439  0.5122
15599TIP3    H168288   5.963   6.270  11.159  0.4902 -0.5968  1.4026
15599TIP3    H268289   5.947   6.217  11.300 -1.5531 -0.3346  1.2999
15600TIP3   OH268290   2.517   4.504   5.235 -0.0736  0.4049  0.1334
15600TIP3    H168291   2.583   4.554   5.187  2.0769 -1.0042  1.4737
15600TIP3    H268292   2.512   4.547   5.320  1.6520 -1.4110  1.2279
15601TIP3   OH268293   4.301   4.198  14.516  0.1388  0.4962 -0.3467
15601TIP3    H168294   4.370   4.265  14.518  1.2472 -0.5261 -1.9768
15601TIP3    H268295   4.319   4.147  14.437 -0.1622 -2.2436  1.2114
15602TIP3   OH268296   0.806   0.399   2.042  0.4418 -0.4467 -0.5307
15602TIP3    H168297   0.839   0.314   2.015  1.5661 -0.0439 -0.4773
15602TIP3    H268298   0.846   0.414   2.128 -0.0857 -0.0488 -0.3461
15603TIP3   OH268299   1.499   2.831  13.604  0.4222 -0.6369  0.3895
15603TIP3    H168300   1.565   2.869  13.546  0.0205  1.4738  1.2160
15603TIP3    H268301   1.548   2.804  13.682  0.9404 -3.3508 -0.7455
15604TIP3   OH268302   1.236   5.403  13.961  0.4491  0.2595 -0.1609
15604TIP3    H168303   1.168   5.471  13.962 -2.0993 -2.0878  0.8782
15604TIP3    H268304   1.195   5.329  14.005  3.9237 -1.2081  0.9067
15605TIP3   OH268305   1.726   3.459  16.566  0.0799  0.3747 -0.5732
15605TIP3    H168306   1.651   3.436  16.511 -0.6664  0.3349  0.4216
15605TIP3    H268307   1.710   3.549  16.593  0.7655  0.6097 -0.9315
15606TIP3   OH268308   3.417   1.556  16.004  0.6346  0.0558  0.9421
15606TIP3    H168309   3.482   1.514  15.948  0.4485 -0.8495  1.3786
15606TIP3    H268310   3.351   1.488  16.017  1.5345 -0.3879  3.7219
15607TIP3   OH268311   0.749   2.287   4.553  0.0115  0.1819 -0.0419
15607TIP3    H168312   0.654   2.281   4.547  0.0987  0.2462 -1.6767
15607TIP3    H268313   0.770   2.377   4.531  0.2688  1.2357  3.7366
15608TIP3   OH268314   5.678   0.201   5.915  0.3669  0.2219 -0.0250
15608TIP3    H168315   5.742   0.131   5.927  0.8932  0.8312  0.7825
15608TIP3    H268316   5.718   0.278   5.954 -0.8596  0.6182  0.5098
15609TIP3   OH268317   5.407   5.897  17.224 -0.5751 -0.0336  0.4675
15609TIP3    H168318   5.358   5.916  17.304 -0.5995  0.3915  0.3535
15609TIP3    H268319   5.348   5.841  17.173 -1.5102  1.5220 -0.2440
15610TIP3   OH268320   0.575   1.394  17.076 -0.3161  0.1421 -0.3354
15610TIP3    H168321   0.527   1.434  17.003  1.4220  1.7706 -0.6582
15610TIP3    H268322   0.575   1.301  17.057 -2.2308  0.2288 -0.9682
15611TIP3   OH268323   6.065   5.828   6.320  0.2323  0.4596 -0.5131
15611TIP3    H168324   6.148   5.868   6.348 -0.4168  0.2425  2.0125
15611TIP3    H268325   6.050   5.759   6.384 -1.3608 -0.2458 -1.5993
15612TIP3   OH268326   2.981   5.512  11.472  0.0436 -0.4012  0.4627
15612TIP3    H168327   2.983   5.465  11.555  0.4569  0.0807  0.7344
15612TIP3    H268328   2.931   5.591  11.490 -1.8056 -1.3369 -0.3373
15613TIP3   OH268329   4.390   6.308   0.664  0.2125  0.3255  0.3166
15613TIP3    H168330   4.408   6.228   0.615  2.4990 -0.0243  1.6022
15613TIP3    H268331   4.344   6.365   0.601 -0.0796 -1.3816 -1.0929
15614TIP3   OH268332   1.225   2.634   0.731  0.2403 -0.1242 -0.3000
15614TIP3    H168333   1.208   2.722   0.698 -1.1226 -0.6880 -1.1570
15614TIP3    H268334   1.141   2.605   0.768  0.7809 -0.9058  0.3615
15615TIP3   OH268335   1.488   4.873  16.361 -0.2522  0.3075  0.0017
15615TIP3    H168336   1.504   4.874  16.456 -0.1831  1.6679 -0.0119
15615TIP3    H268337   1.571   4.844  16.323 -0.4637 -0.8365  0.3705
15616TIP3   OH268338   1.058   2.594   4.465 -0.0367 -0.2201 -0.3230
15616TIP3    H168339   1.118   2.660   4.431 -1.5636  0.9559 -0.8096
15616TIP3    H268340   1.109   2.513   4.465  1.3466  0.6198 -1.2964
15617TIP3   OH268341   5.020   2.947  15.365 -0.4212 -0.0803 -0.5973
15617TIP3    H168342   4.938   2.997  15.363 -1.8789 -2.2516  0.1880
15617TIP3    H268343   5.036   2.933  15.458 -0.0808 -1.0606 -0.7970
15618TIP3   OH268344   6.420   1.010  11.771 -0.3880  0.0612  0.5959
15618TIP3    H168345   6.508   1.048  11.778 -0.6316  0.4349  1.7196
15618TIP3    H268346   6.431   0.921  11.804 -0.0591 -0.5141 -0.9822
15619TIP3   OH268347   5.024   0.330   5.656  0.7956  0.7114 -0.0325
15619TIP3    H168348   4.978   0.246   5.661 -1.4813  1.9742  1.6928
15619TIP3    H268349   5.093   0.323   5.721  1.1869 -0.1004 -0.5103
15620TIP3   OH268350   2.680   0.009  15.381 -0.4718 -0.7013  0.0588
15620TIP3    H168351   2.596  -0.035  15.396 -0.6866 -0.3618 -0.1465
15620TIP3    H268352   2.657   0.100  15.365  0.0416 -0.3061  1.4515
15621TIP3   OH268353   6.604   1.279   1.973 -0.5392  0.1861  0.2939
15621TIP3    H168354   6.663   1.205   1.958 -0.9428  0.3465 -2.6583
15621TIP3    H268355   6.661   1.349   2.003  1.1471  0.6694 -3.4992
15622TIP3   OH268356   3.614   5.052  11.634 -0.7959  0.5771  0.1115
15622TIP3    H168357   3.530   5.009  11.650 -0.9113  1.7897  3.9287
15622TIP3    H268358   3.611   5.131  11.689  2.5806  1.0079 -0.1223
15623TIP3   OH268359   1.226   4.871   3.088 -0.2990 -0.3368 -0.1018
15623TIP3    H168360   1.262   4.928   3.155  1.4011  0.1846 -1.4058
15623TIP3    H268361   1.131   4.880   3.098 -0.1252 -0.4839  2.3602
15624TIP3   OH268362   3.338   1.348  12.652  0.5560  0.4071  0.1607
15624TIP3    H168363   3.367   1.383  12.568  0.2452 -0.2385 -0.2177
15624TIP3    H268364   3.259   1.298  12.632  1.1475 -0.7649  0.6281
15625TIP3   OH268365   2.388   3.172  14.108  0.4550  0.2129 -0.1734
15625TIP3    H168366   2.402   3.132  14.194 -0.1465  1.5919  0.6089
15625TIP3    H268367   2.302   3.141  14.081 -0.0600  1.0209  0.4820
15626TIP3   OH268368   6.740   6.477   2.184 -0.3756 -0.6346 -0.3852
15626TIP3    H168369   6.740   6.557   2.237 -2.3424 -1.2772  0.6849
15626TIP3    H268370   6.782   6.412   2.240 -1.5208 -1.0591  0.0182
15627TIP3   OH268371   4.184   6.115   6.413  0.0049 -0.2757 -0.1640
15627TIP3    H168372   4.113   6.050   6.410  0.5900 -1.0911  1.7320
15627TIP3    H268373   4.163   6.170   6.489 -0.1371  1.3965 -1.3645
15628TIP3   OH268374   2.366   4.783   2.506 -0.1542  0.3822  0.2241
15628TIP3    H168375   2.340   4.874   2.519 -0.2120  0.2193  1.4440
15628TIP3    H268376   2.353   4.743   2.592  0.1711 -0.7015 -0.2187
15629TIP3   OH268377   5.075   3.816   0.527  0.0441 -0.7142 -0.3493
15629TIP3    H168378   5.097   3.841   0.437  0.1960 -0.8511 -0.3495
15629TIP3    H268379   5.011   3.882   0.554  2.0693  1.0358  0.4142
15630TIP3   OH268380   1.072   2.274   2.396 -0.0750  0.4018  0.6437
15630TIP3    H168381   1.117   2.271   2.480  0.5514 -1.3219  0.2817
15630TIP3    H268382   0.981   2.253   2.417  0.1107 -0.1795  0.8743
15631TIP3   OH268383   3.388   5.365   2.912  0.1479 -0.3053  0.3229
15631TIP3    H168384   3.332   5.443   2.904  0.3987 -0.2206 -0.8814
15631TIP3    H268385   3.387   5.344   3.005 -0.8651  0.4504  0.5046
15632TIP3   OH268386   2.036   6.744  13.542 -0.1112 -0.3888 -0.3484
15632TIP3    H168387   2.054   6.815  13.479 -0.4600  0.7058  0.7432
15632TIP3    H268388   2.116   6.692  13.542  0.8115  0.9624  0.0199
15633TIP3   OH268389   2.148   4.782  17.032 -0.0019  0.3638 -0.1858
15633TIP3    H168390   2.200   4.847  17.079  0.4992 -0.2498  0.1269
15633TIP3    H268391   2.084   4.833  16.983  0.2402  1.0768  0.2287
15634TIP3   OH268392   4.372   0.813  13.718 -0.0519 -0.2021 -0.1756
15634TIP3    H168393   4.319   0.751  13.769  0.0182  0.7067  1.0576
15634TIP3    H268394   4.371   0.778  13.629 -0.9587 -1.3481  0.2556
15635TIP3   OH268395   1.147   5.326   5.308  0.0090  0.0184 -0.1087
15635TIP3    H168396   1.120   5.276   5.231  2.3573  0.7471 -1.4893
15635TIP3    H268397   1.128   5.417   5.285 -0.8322  0.1126  0.8916
15636TIP3   OH268398   2.716   0.791  10.880  0.2298  0.4341 -0.0209
15636TIP3    H168399   2.676   0.851  10.817  0.7484  1.0208  0.2022
15636TIP3    H268400   2.810   0.797  10.862  0.4754  1.3166  1.4127
15637TIP3   OH268401   5.674   5.111   0.393  0.2630 -0.0395  0.5276
15637TIP3    H168402   5.663   5.200   0.359  1.1097  0.0338  0.4306
15637TIP3    H268403   5.584   5.078   0.403 -0.0404 -0.1889 -2.0661
15638TIP3   OH268404   4.006   3.551  13.068  0.6071  0.1937  0.0251
15638TIP3    H168405   3.949   3.496  13.121  0.2553 -1.1672 -1.6747
15638TIP3    H268406   4.081   3.570  13.125 -0.3057 -0.1856  1.3914
15639TIP3   OH268407   5.148   4.433  15.716 -0.5310 -0.6477 -0.2797
15639TIP3    H168408   5.127   4.341  15.733 -0.1829 -0.3732  1.8403
15639TIP3    H268409   5.237   4.431  15.681 -0.4933 -1.0977 -0.1646
15640TIP3   OH268410   5.354   2.346  10.846 -0.0733 -0.4506  0.5002
15640TIP3    H168411   5.378   2.256  10.822  0.1755  0.0142 -1.1138
15640TIP3    H268412   5.412   2.401  10.794  0.9847  0.6829  2.7406
15641TIP3   OH268413   5.914   6.423   5.041  0.5068  0.1473  0.0317
15641TIP3    H168414   5.975   6.495   5.056  0.6022  0.2361 -0.7491
15641TIP3    H268415   5.917   6.371   5.122  2.9711 -0.8657 -0.6043
15642TIP3   OH268416   1.131   4.828  14.960  0.0371 -0.6600  0.3246
15642TIP3    H168417   1.072   4.834  14.885  0.2324 -1.4541  0.0923
15642TIP3    H268418   1.186   4.752  14.940 -0.0442 -1.0061  1.3722
15643TIP3   OH268419   2.453   2.815   0.175  0.3185  0.2109 -0.1165
15643TIP3    H168420   2.501   2.775   0.248  1.6099  1.1859 -0.3987
15643TIP3    H268421   2.396   2.745   0.143 -0.5200 -0.1563  1.9917
15644TIP3   OH268422   4.773   4.962  13.996 -0.5576 -0.0131  0.0983
15644TIP3    H168423   4.686   4.996  13.972 -0.6132  0.7992  1.3945
15644TIP3    H268424   4.759   4.913  14.077  0.1806  0.0147  0.2518
15645TIP3   OH268425   4.638   0.157  13.978  0.0557 -0.0626  0.2558
15645TIP3    H168426   4.624   0.239  14.025 -1.3961 -0.2467  0.2107
15645TIP3    H268427   4.704   0.111  14.029  1.9727  1.7062 -0.4971
15646TIP3   OH268428   3.177   4.649   0.510  0.2789 -0.2108 -0.1635
15646TIP3    H168429   3.118   4.614   0.443  0.0280  0.5047 -0.3207
15646TIP3    H268430   3.260   4.604   0.493  0.8398  1.4749 -2.3425
15647TIP3   OH268431   4.541   1.508  16.996 -0.2182 -0.0846  0.0567
15647TIP3    H168432   4.510   1.585  17.043 -0.0293  0.6337 -0.9800
15647TIP3    H268433   4.636   1.513  17.003 -0.2263 -1.1231  1.3775
15648TIP3   OH268434   6.732   3.118   2.263  0.6459 -0.4572  0.3279
15648TIP3    H168435   6.718   3.094   2.172  0.3664  0.6149  0.0844
15648TIP3    H268436   6.802   3.059   2.293  1.8253  0.1979 -1.0148
15649TIP3   OH268437   1.401   1.094   3.899  0.2733 -0.5373 -0.2268
15649TIP3    H168438   1.334   1.142   3.850 -0.8070 -2.2582 -0.5188
15649TIP3    H268439   1.403   1.137   3.984 -0.8088 -0.0977 -0.4031
15650TIP3   OH268440   6.605   2.879   4.805 -0.2175  0.3447 -0.3574
15650TIP3    H168441   6.679   2.823   4.782  0.0361  1.2825 -1.9360
15650TIP3    H268442   6.618   2.898   4.898  1.0778 -0.1434 -0.4164
15651TIP3   OH268443   1.898   0.777  14.854 -0.2910 -0.1541  0.1912
15651TIP3    H168444   1.847   0.797  14.775 -0.4089 -0.1446  0.2694
15651TIP3    H268445   1.981   0.744  14.821  0.2913  1.3988  0.0506
15652TIP3   OH268446   5.090   3.938   2.152  0.3603  0.3860 -0.0428
15652TIP3    H168447   5.159   3.907   2.093  1.2177  3.2640 -0.7384
15652TIP3    H268448   5.135   3.955   2.235 -0.2321 -0.8010  0.5457
15653TIP3   OH268449   3.241   0.790   3.904  0.3481 -0.0228  0.3299
15653TIP3    H168450   3.151   0.762   3.921  0.0362  0.0515 -1.0228
15653TIP3    H268451   3.291   0.709   3.903  0.2485 -0.0910  0.8300
15654TIP3   OH268452   0.252   6.782  12.771  0.5257  0.4991  0.0932
15654TIP3    H168453   0.224   6.792  12.680  2.6326  0.4693 -0.6167
15654TIP3    H268454   0.217   6.859  12.816  1.9270  2.1368 -1.4469
15655TIP3   OH268455   2.285   6.758   6.112  0.3696 -0.3513 -0.3279
15655TIP3    H168456   2.234   6.754   6.031 -0.8309 -1.6067  0.4372
15655TIP3    H268457   2.227   6.802   6.174  0.7417 -0.5779  0.1882
15656TIP3   OH268458   4.547   0.889  15.920  0.3533  0.2466 -0.0071
15656TIP3    H168459   4.555   0.817  15.982 -0.3880 -0.0081 -0.1902
15656TIP3    H268460   4.490   0.952  15.964 -1.3592 -0.5575 -0.9322
15657TIP3   OH268461   1.275   4.388  12.289  0.1082 -0.1523  0.1822
15657TIP3    H168462   1.195   4.440  12.301 -0.7876 -1.4745  0.1750
15657TIP3    H268463   1.250   4.300  12.317  2.3889 -0.0538  2.9515
15658TIP3   OH268464   5.263   0.809   0.030  0.1113 -0.0512 -0.7317
15658TIP3    H168465   5.235   0.900   0.025 -0.8040 -0.2661  0.1546
15658TIP3    H268466   5.247   0.774  -0.058 -1.2226  0.1785 -0.5991
15659TIP3   OH268467   3.886   5.142  10.781  0.3695 -0.4597  0.5851
15659TIP3    H168468   3.816   5.174  10.723  1.0830 -1.8387 -1.1059
15659TIP3    H268469   3.964   5.189  10.753  0.5075 -0.2861  1.2351
15660TIP3   OH268470   2.817   5.883  15.088 -0.1382  0.0189 -0.2472
15660TIP3    H168471   2.805   5.968  15.130 -1.9390  0.0314 -0.7140
15660TIP3    H268472   2.765   5.823  15.141  1.1167 -0.8332  0.0789
15661TIP3   OH268473   3.701   0.575  16.830  0.4260 -0.1153  0.5089
15661TIP3    H168474   3.606   0.582  16.838  0.4736  0.6372  0.4330
15661TIP3    H268475   3.735   0.652  16.876  1.0998 -1.5335  2.5313
15662TIP3   OH268476   5.260   4.521  15.032  0.4773 -0.2311  0.3038
15662TIP3    H168477   5.238   4.509  15.124 -1.3475  0.6362  0.0265
15662TIP3    H268478   5.349   4.486  15.024  0.4253 -0.9416  2.2331
15663TIP3   OH268479   5.222   6.669   0.754  0.4106 -0.4527 -0.3331
15663TIP3    H168480   5.209   6.749   0.806 -0.3873 -0.5560 -0.3536
15663TIP3    H268481   5.229   6.700   0.664  0.7617 -0.3568 -0.2750
15664TIP3   OH268482   6.434   5.154   6.081  0.0103  0.1447 -0.1150
15664TIP3    H168483   6.504   5.194   6.132  1.1401  0.5411 -1.8690
15664TIP3    H268484   6.480   5.095   6.020 -1.1982  0.1387 -1.0594
15665TIP3   OH268485   6.178   3.858   6.414 -0.4417 -0.7109  0.4092
15665TIP3    H168486   6.215   3.916   6.348  0.5396 -1.7712 -0.0129
15665TIP3    H268487   6.186   3.907   6.496  1.9424 -0.8546  0.3396
15666TIP3   OH268488   0.834   3.350  14.348 -0.3637 -0.2110  0.0766
15666TIP3    H168489   0.790   3.425  14.309 -0.5339  0.9086  2.2897
15666TIP3    H268490   0.770   3.313  14.408  0.7306 -0.2598  1.2557
15667TIP3   OH268491   2.130   4.161  13.627 -0.1243 -0.3669  0.1453
15667TIP3    H168492   2.063   4.199  13.570  0.4449  0.5039  0.0457
15667TIP3    H268493   2.177   4.236  13.662  1.3828 -0.9810 -0.4833
15668TIP3   OH268494   5.632   2.306   2.874  0.5094  0.6952 -0.2140
15668TIP3    H168495   5.637   2.401   2.864 -0.4736  0.6513 -1.4595
15668TIP3    H268496   5.627   2.273   2.784 -1.5047 -0.3532  0.2139
15669TIP3   OH268497   6.414   0.311  15.837 -0.5373 -0.3238  0.3806
15669TIP3    H168498   6.411   0.321  15.933 -2.1813 -1.7660  0.5344
15669TIP3    H268499   6.322   0.302  15.812 -0.1823  0.7210 -1.4496
15670TIP3   OH268500   6.555   3.597  13.541  0.9793  0.0783  1.0296
15670TIP3    H168501   6.614   3.673  13.535  0.2551  0.6380  0.8402
15670TIP3    H268502   6.575   3.546  13.463  1.4373  0.0931  1.1293
15671TIP3   OH268503   5.157   5.039   5.177  0.7327  0.0055  0.0474
15671TIP3    H168504   5.145   4.995   5.093 -1.0726 -0.1254  0.3415
15671TIP3    H268505   5.140   5.131   5.159  1.3791  0.1395  0.0798
15672TIP3   OH268506   4.842   1.849  13.646 -0.1215 -0.0248 -0.1070
15672TIP3    H168507   4.805   1.771  13.603 -0.2243  0.6124 -1.2053
15672TIP3    H268508   4.870   1.905  13.574  1.9576  0.0281  0.6906
15673TIP3   OH268509   2.073   3.659   0.700 -0.0685  0.4823  0.1424
15673TIP3    H168510   2.164   3.686   0.711 -0.5550  1.5516  2.0362
15673TIP3    H268511   2.042   3.643   0.789 -2.4982  2.9082 -0.1141
15674TIP3   OH268512   3.696   2.754  11.250 -0.1992  0.3699 -0.4733
15674TIP3    H168513   3.603   2.746  11.232  0.2504 -1.6907 -2.2657
15674TIP3    H268514   3.734   2.671  11.221  2.1093  0.8424  0.8849
15675TIP3   OH268515   0.607   1.798   0.227 -0.0891 -0.5951  0.1553
15675TIP3    H168516   0.576   1.733   0.164  0.0662  0.0152 -0.5641
15675TIP3    H268517   0.703   1.796   0.219 -0.0413 -0.8845  0.7521
15676TIP3   OH268518   1.986   1.154  14.735  0.3502 -0.2097 -0.0533
15676TIP3    H168519   2.003   1.076  14.682 -0.2990  0.8550 -1.9237
15676TIP3    H268520   2.064   1.208  14.724 -0.5309  0.8577 -1.5935
15677TIP3   OH268521   6.227   5.508   1.037  0.0369  0.2402 -0.5706
15677TIP3    H168522   6.211   5.601   1.019  1.5336  0.7525  0.5006
15677TIP3    H268523   6.170   5.488   1.112  0.8780  0.7788  0.2477
15678TIP3   OH268524   1.842   2.339   0.126 -0.1128  0.2874  0.4206
15678TIP3    H168525   1.936   2.327   0.114  0.0982  0.8314  1.3853
15678TIP3    H268526   1.802   2.273   0.070  0.8720 -0.8200  0.9833
15679TIP3   OH268527   6.031   6.311  16.795  0.4615  0.0705 -0.0304
15679TIP3    H168528   6.071   6.336  16.878  0.1734  1.9083 -0.3911
15679TIP3    H268529   5.936   6.316  16.811  0.3971 -0.1687 -0.3109
15680TIP3   OH268530   1.466   3.543   5.321  0.6214  0.0716  0.3794
15680TIP3    H168531   1.443   3.559   5.413 -1.3305 -1.7889  0.2930
15680TIP3    H268532   1.512   3.459   5.323  1.6568  0.6115 -0.2378
15681TIP3   OH268533   6.333   4.011  13.459 -0.1575 -0.1084  0.0727
15681TIP3    H168534   6.337   4.050  13.547 -0.6858  1.6304 -0.6343
15681TIP3    H268535   6.425   3.998  13.435  0.0717  1.3536  0.0842
15682TIP3   OH268536   5.886   4.505  13.416 -0.2356 -0.0680  0.5523
15682TIP3    H168537   5.957   4.540  13.363 -0.3858 -0.1295  0.3057
15682TIP3    H268538   5.862   4.423  13.372 -0.0915 -0.3218  0.9475
15683TIP3   OH268539   3.030   1.118  12.201  0.1482  0.1666  0.0652
15683TIP3    H168540   3.041   1.142  12.293  1.0272 -2.0157  0.5930
15683TIP3    H268541   2.953   1.167  12.173  0.0286  1.1121  1.8596
15684TIP3   OH268542   4.940   5.955  11.893 -0.5497 -0.4381 -0.1877
15684TIP3    H168543   4.943   5.988  11.982  0.8185 -1.3571  0.1447
15684TIP3    H268544   5.019   5.990  11.852 -1.2070  0.0478 -1.0851
15685TIP3   OH268545   6.108   3.947  14.526  0.0825  0.1361  0.2585
15685TIP3    H168546   6.036   3.931  14.587 -0.2446 -0.4425 -0.2714
15685TIP3    H268547   6.077   4.017  14.469 -0.6313 -1.0260 -0.8428
15686TIP3   OH268548   4.524   3.129  15.154 -0.5911  0.3257 -0.3599
15686TIP3    H168549   4.521   3.146  15.248 -1.5488 -1.5019 -0.0117
15686TIP3    H268550   4.433   3.138  15.125  0.0869  4.4241 -1.9058
15687TIP3   OH268551   4.997   1.098  16.101 -0.0664  0.2421  0.8406
15687TIP3    H168552   4.964   1.014  16.133  2.6711 -1.0979  0.4353
15687TIP3    H268553   5.002   1.154  16.179 -0.5657 -0.4493  1.3784
15688TIP3   OH268554   0.395   3.920  16.434  0.7973 -1.0065 -0.2626
15688TIP3    H168555   0.425   3.871  16.510 -0.7975 -0.5928  0.6749
15688TIP3    H268556   0.302   3.934  16.450  0.8704  0.9320 -1.2755
15689TIP3   OH268557   1.703   3.732  11.480  0.5286  0.3952 -0.7142
15689TIP3    H168558   1.715   3.637  11.480  0.0835  0.2957  1.2162
15689TIP3    H268559   1.756   3.763  11.406  0.0395 -1.3946 -1.8925
15690TIP3   OH268560   4.305   4.876  16.644  0.0565  0.1914 -0.5340
15690TIP3    H168561   4.400   4.869  16.659  0.2896  0.6362 -1.6473
15690TIP3    H268562   4.284   4.965  16.671 -0.2964 -0.3068  0.8868
15691TIP3   OH268563   2.058   4.894   3.407 -0.2061  0.0764 -0.0621
15691TIP3    H168564   1.974   4.856   3.380  1.2445 -3.7991  0.2425
15691TIP3    H268565   2.108   4.900   3.326  0.3113 -0.8282  0.1760
15692TIP3   OH268566   3.674   2.712  16.475  0.2576  0.7316  0.0520
15692TIP3    H168567   3.756   2.700  16.427 -0.1049  0.4568 -0.5057
15692TIP3    H268568   3.633   2.626  16.473  0.4721  0.5783  1.3180
15693TIP3   OH268569   2.104   2.505   1.189 -0.0421  0.0837 -0.1173
15693TIP3    H168570   2.083   2.576   1.129 -0.0545 -1.0268 -1.4708
15693TIP3    H268571   2.023   2.491   1.239 -0.1954  0.6639 -0.1920
15694TIP3   OH268572   4.580   2.823  15.401  0.1235 -0.2747 -0.1237
15694TIP3    H168573   4.484   2.830  15.406  0.2031  1.4427 -0.5188
15694TIP3    H268574   4.611   2.865  15.481  0.5982  2.0153 -1.4444
15695TIP3   OH268575   4.715   6.731   0.442  0.0765  0.0617  0.3380
15695TIP3    H168576   4.662   6.707   0.518 -0.2938  1.9205  0.6982
15695TIP3    H268577   4.652   6.767   0.380  0.7360  1.2041  0.3048
15696TIP3   OH268578   6.333   5.101  17.184 -0.0119  0.0765 -0.0144
15696TIP3    H168579   6.316   5.181  17.234 -0.8330 -0.5281  0.7075
15696TIP3    H268580   6.378   5.043  17.246 -1.5830 -0.9078  0.2750
15697TIP3   OH268581   4.164   3.744   2.385 -0.6246  0.0175  0.1721
15697TIP3    H168582   4.193   3.656   2.361 -2.9362 -0.8254  0.2353
15697TIP3    H268583   4.122   3.778   2.307 -2.7214 -0.3050  1.1086
15698TIP3   OH268584   4.034   6.302  12.289 -0.1887 -0.5561 -0.3405
15698TIP3    H168585   4.057   6.305  12.382  1.6895  0.3084 -0.7936
15698TIP3    H268586   3.940   6.324  12.288  0.2002  1.5993  1.2314
15699TIP3   OH268587   4.013   5.548  13.428  0.0436 -0.6606 -0.5632
15699TIP3    H168588   4.009   5.459  13.394 -0.3503 -0.8209 -0.1014
15699TIP3    H268589   4.028   5.603  13.350  1.7231 -1.2428 -0.6864
15700TIP3   OH268590   2.317   4.983  15.216 -0.2505 -0.1383 -0.3914
15700TIP3    H168591   2.291   5.068  15.250  0.2876 -0.3932  0.7087
15700TIP3    H268592   2.247   4.923  15.243  0.9425 -0.6586  1.8210
15701TIP3   OH268593   5.077   2.588  14.148 -0.3602 -0.2934 -0.0715
15701TIP3    H168594   5.094   2.494  14.161  0.6870  0.0438  1.2737
15701TIP3    H268595   5.013   2.591  14.076 -0.2927 -2.0199 -0.2576
15702TIP3   OH268596   6.789   3.318  17.106 -0.1813 -0.6373 -0.2813
15702TIP3    H168597   6.695   3.299  17.097  0.0264 -2.1173  0.3459
15702TIP3    H268598   6.806   3.312  17.200  0.8162 -1.9137 -0.5226
15703TIP3   OH268599   1.967   0.665  15.101  0.1793 -0.1969 -0.0756
15703TIP3    H168600   1.953   0.703  15.015  0.4984  1.0201  0.3918
15703TIP3    H268601   1.982   0.740  15.159  2.5120 -1.0917  0.5857
15704TIP3   OH268602   5.886   2.722   1.878 -0.6589  0.0358 -0.3403
15704TIP3    H168603   5.841   2.639   1.888 -0.7667 -0.1543 -2.0892
15704TIP3    H268604   5.971   2.709   1.922 -0.5139 -1.1372 -0.9294
15705TIP3   OH268605   0.309   4.916   6.245  0.1377  0.1527 -0.2561
15705TIP3    H168606   0.293   5.009   6.257  0.2872  0.2161 -0.5441
15705TIP3    H268607   0.226   4.881   6.212  0.6193  0.5047 -1.8796
15706TIP3   OH268608   4.001   3.262   4.100  0.1657  0.4453  0.2053
15706TIP3    H168609   4.061   3.288   4.030  0.6195  0.6021  0.6465
15706TIP3    H268610   4.054   3.263   4.179 -1.1006  3.9209  1.2283
15707TIP3   OH268611   6.637   6.285  15.051  0.0254 -0.3046  0.1097
15707TIP3    H168612   6.724   6.258  15.020 -0.1932  0.6379 -1.4238
15707TIP3    H268613   6.608   6.213  15.107  2.4200  0.0264  1.9460
15708TIP3   OH268614   1.960   2.234   0.762  0.0608  0.4220 -0.8885
15708TIP3    H168615   1.994   2.318   0.792  1.0029 -0.3270  0.2296
15708TIP3    H268616   1.873   2.228   0.801  1.8341 -1.2680  3.5264
15709TIP3   OH268617   6.375   2.929  12.444  0.2305  0.5169 -0.2689
15709TIP3    H168618   6.373   2.836  12.420  0.6369  0.5208 -0.3270
15709TIP3    H268619   6.360   2.975  12.361  0.7552  0.5151 -0.3658
15710TIP3   OH268620   1.935   6.818  12.063 -0.3237 -0.7566  0.7131
15710TIP3    H168621   1.964   6.786  12.148  0.1707  1.4043  1.4062
15710TIP3    H268622   1.970   6.907  12.057 -2.4362  0.0653 -0.6609
15711TIP3   OH268623   1.795   5.063  13.339 -0.1488 -0.2254 -0.4581
15711TIP3    H168624   1.826   5.114  13.414  1.0385 -2.4351  0.6377
15711TIP3    H268625   1.853   5.088  13.267  0.5525 -0.1721  0.1130
15712TIP3   OH268626   0.719   0.582  14.297 -0.0637 -0.2593 -0.1274
15712TIP3    H168627   0.643   0.555  14.349 -0.1658 -0.1254 -0.2075
15712TIP3    H268628   0.771   0.635  14.357 -1.4743  2.1384 -0.8789
15713TIP3   OH268629   2.286   4.629   6.055 -0.1349 -0.3270  0.1374
15713TIP3    H168630   2.366   4.587   6.086  1.4771  0.8856 -2.0581
15713TIP3    H268631   2.217   4.595   6.112  1.7689 -2.1841  1.4914
15714TIP3   OH268632   0.354   3.495  15.318  0.0719  0.2106 -0.6632
15714TIP3    H168633   0.274   3.508  15.369 -0.0786  1.0856 -1.0977
15714TIP3    H268634   0.327   3.506  15.227  0.1985 -2.0306 -1.0204
15715TIP3   OH268635   0.390   3.051  15.594 -0.2999  0.0356 -0.8609
15715TIP3    H168636   0.319   2.987  15.601  0.7818 -1.1702 -0.4910
15715TIP3    H268637   0.353   3.132  15.629 -0.4488 -1.4481  2.8534
15716TIP3   OH268638   0.122   5.001  14.287 -1.1350  0.4483 -1.0302
15716TIP3    H168639   0.217   5.013  14.290 -1.1711  1.1809  2.7070
15716TIP3    H268640   0.110   4.912  14.256  0.8409  0.0506 -0.7887
15717TIP3   OH268641   3.796   3.908   4.995 -0.0614  0.1439  0.3607
15717TIP3    H168642   3.734   3.912   4.923  1.4194 -0.8521 -1.0335
15717TIP3    H268643   3.859   3.977   4.977  0.4762 -0.2946  0.5181
15718TIP3   OH268644   0.507   0.272  14.586 -0.5682 -0.6938  0.0770
15718TIP3    H168645   0.556   0.194  14.611 -1.8833 -1.2062  1.2312
15718TIP3    H268646   0.451   0.290  14.662 -0.3824  1.3159 -0.2124
15719TIP3   OH268647   3.774   2.801   2.568 -0.3131 -0.1633 -0.0010
15719TIP3    H168648   3.787   2.817   2.661 -0.8247 -0.8289  0.1929
15719TIP3    H268649   3.681   2.784   2.559 -0.2085 -0.4621 -0.5807
15720TIP3   OH268650   3.319   2.732  13.002 -0.4644 -0.8933 -0.3111
15720TIP3    H168651   3.344   2.652  12.956  1.3192 -0.5331 -0.0469
15720TIP3    H268652   3.368   2.728  13.084  0.4482  0.9302 -0.7166
15721TIP3   OH268653   0.948   0.851   0.037 -0.0439 -0.1082  0.1349
15721TIP3    H168654   0.859   0.816   0.035 -0.3099  0.2531  2.3888
15721TIP3    H268655   0.943   0.925   0.097  1.7263  0.1037  0.0783
15722TIP3   OH268656   1.909   3.644   0.490 -0.1362  0.5911  0.6938
15722TIP3    H168657   1.914   3.739   0.477 -0.1836  0.6547  1.1313
15722TIP3    H268658   1.961   3.628   0.569 -1.2594  0.4256  1.4224
15723TIP3   OH268659   4.868   6.217  10.797  0.5162  0.0226 -0.1128
15723TIP3    H168660   4.830   6.301  10.774  0.1154 -0.4944 -1.4273
15723TIP3    H268661   4.793   6.161  10.816  0.6811 -0.4914 -0.9063
15724TIP3   OH268662   0.866   2.087  11.190  0.7317 -0.5221  0.3943
15724TIP3    H168663   0.851   2.128  11.105  0.6387  0.6638  0.9560
15724TIP3    H268664   0.914   2.007  11.170  2.9570  0.9538 -0.6320
15725TIP3   OH268665   5.968   3.699   5.290 -0.1825 -0.2452 -0.3168
15725TIP3    H168666   6.004   3.618   5.254  1.6238  0.5696 -0.5012
15725TIP3    H268667   6.045   3.745   5.327 -1.4538  0.4542  1.6327
15726TIP3   OH268668   1.159   5.383  11.803  0.3538  0.0127  0.0103
15726TIP3    H168669   1.072   5.421  11.818  0.0158 -0.7619  0.0502
15726TIP3    H268670   1.199   5.441  11.738  0.3713  1.2073  1.0367
15727TIP3   OH268671   2.170   3.657   1.714  0.5573 -0.0846  0.2476
15727TIP3    H168672   2.184   3.679   1.622  1.7840 -0.8093  0.2381
15727TIP3    H268673   2.218   3.725   1.762 -0.1864  0.3669  0.3723
15728TIP3   OH268674   1.958   1.087  13.050 -0.6592  0.0124 -0.6869
15728TIP3    H168675   1.950   1.064  13.143 -0.3607  0.5630 -0.5266
15728TIP3    H268676   1.903   1.022  13.005 -2.3715  0.9148  0.0290
15729TIP3   OH268677   5.539   4.991   3.511  1.3837 -0.1190  0.2679
15729TIP3    H168678   5.543   5.072   3.459 -1.0739  0.4742  0.8839
15729TIP3    H268679   5.509   4.925   3.448  2.0877 -0.2523  0.0707
15730TIP3   OH268680   5.863   0.700   5.341  0.0497 -0.3171 -0.1210
15730TIP3    H168681   5.867   0.635   5.411 -0.0659 -1.2813 -0.9872
15730TIP3    H268682   5.933   0.762   5.361  1.5328 -1.8531 -0.3729
15731TIP3   OH268683   0.748   6.272   0.562  0.0755  0.1671  0.2993
15731TIP3    H168684   0.688   6.308   0.627  0.7792  0.4823  0.7927
15731TIP3    H268685   0.706   6.193   0.531  0.5007 -0.9761  2.4312
15732TIP3   OH268686   5.120   0.787   1.663  0.4303 -0.2552  0.0586
15732TIP3    H168687   5.188   0.735   1.619 -0.1330  1.3921 -3.1395
15732TIP3    H268688   5.165   0.828   1.737  2.2486 -1.1838 -0.4771
15733TIP3   OH268689   0.824   1.230  12.559 -0.1638 -0.3402 -0.0084
15733TIP3    H168690   0.867   1.146  12.577 -0.5562 -0.7153 -0.7569
15733TIP3    H268691   0.769   1.212  12.483 -0.2231  0.6102 -0.1964
15734TIP3   OH268692   5.133   0.132  12.074  0.1243  0.0408  0.2831
15734TIP3    H168693   5.055   0.080  12.093  1.3163 -2.6647 -1.6949
15734TIP3    H268694   5.206   0.074  12.091  1.6122  1.4921 -0.8316
15735TIP3   OH268695   0.545   6.379  14.769  0.3957  0.4300  0.2933
15735TIP3    H168696   0.538   6.304  14.829  0.3831 -0.0601 -0.3177
15735TIP3    H268697   0.492   6.355  14.694  1.0104  0.7240 -0.2430
15736TIP3   OH268698   3.246   1.403  14.683 -0.6707 -0.4400 -0.4187
15736TIP3    H168699   3.268   1.315  14.652  1.9437  0.6706 -2.0706
15736TIP3    H268700   3.200   1.388  14.765 -3.0184 -3.4235 -2.0375
15737TIP3   OH268701   4.458   5.263   3.299  0.8698  0.0041  0.0623
15737TIP3    H168702   4.427   5.345   3.338  0.5124 -0.0483 -0.1160
15737TIP3    H268703   4.441   5.197   3.366  1.4763  0.1282  0.3456
15738TIP3   OH268704   3.256   0.565   2.123  0.2658 -0.4808  0.0585
15738TIP3    H168705   3.301   0.599   2.046 -1.0281  1.1643 -0.0488
15738TIP3    H268706   3.250   0.640   2.182 -2.5721 -0.4672 -0.0995
15739TIP3   OH268707   5.928   2.626   1.206 -0.2832  0.2321 -0.6400
15739TIP3    H168708   5.850   2.680   1.222 -0.7893 -1.0118  1.4718
15739TIP3    H268709   5.982   2.638   1.284  1.0872  0.0717 -1.5170
15740TIP3   OH268710   1.960   5.208  13.516  0.0279 -0.0773  0.2506
15740TIP3    H168711   1.892   5.257  13.562 -0.6363 -1.6608  1.0501
15740TIP3    H268712   2.036   5.267  13.515 -0.4703  0.6490  1.9245
15741TIP3   OH268713   4.067   0.703   0.162  0.1019 -0.3069 -0.2555
15741TIP3    H168714   3.991   0.729   0.214 -0.1847  1.5409 -1.5127
15741TIP3    H268715   4.044   0.616   0.129 -0.8105 -0.4093  0.5837
15742TIP3   OH268716   5.216   4.175   0.247 -0.3282  0.7987  0.5532
15742TIP3    H168717   5.264   4.229   0.184 -0.3453  0.1439 -0.0363
15742TIP3    H268718   5.277   4.103   0.267 -0.5992  0.6210  0.7422
15743TIP3   OH268719   1.366   1.000  16.959  0.0762  0.3247  0.7265
15743TIP3    H168720   1.282   1.040  16.983  0.9645  1.7192  1.7566
15743TIP3    H268721   1.343   0.918  16.916 -1.7905 -0.6192  3.2644
15744TIP3   OH268722   6.777   5.995   4.682  0.2005  0.9768 -0.0843
15744TIP3    H168723   6.844   6.007   4.749 -0.4490  0.0690  0.7664
15744TIP3    H268724   6.704   6.050   4.711 -0.0611  0.6283 -0.0631
15745TIP3   OH268725   5.971   3.220   2.522 -0.7288 -0.1693 -0.2456
15745TIP3    H168726   5.971   3.202   2.428 -2.5764 -0.6582 -0.1856
15745TIP3    H268727   5.893   3.176   2.555  0.3674 -0.7402  1.6848
15746TIP3   OH268728   6.262   2.155   1.344 -0.5689 -0.4498  0.3498
15746TIP3    H168729   6.350   2.192   1.356  0.7265 -2.9934 -0.5587
15746TIP3    H268730   6.255   2.142   1.250 -0.7098 -2.8361  0.6222
15747TIP3   OH268731   4.999   5.450   3.207 -0.4458  0.0311 -0.1401
15747TIP3    H168732   4.968   5.443   3.117 -0.5095  0.2838 -0.1373
15747TIP3    H268733   5.032   5.362   3.228 -1.2972 -0.2817 -0.0888
15748TIP3   OH268734   3.736   6.048   0.557 -0.3906  0.1315  0.2364
15748TIP3    H168735   3.647   6.040   0.593 -0.6907  1.9688 -0.0180
15748TIP3    H268736   3.782   6.104   0.620 -0.0280  0.8959 -0.6983
15749TIP3   OH268737   5.017   0.973   0.076  0.0761 -0.6351 -0.2598
15749TIP3    H168738   4.965   1.040   0.032 -0.5820 -1.0535 -0.1300
15749TIP3    H268739   5.096   1.019   0.104 -0.1190 -0.0424 -0.6560
15750TIP3   OH268740   2.673   0.701  11.833  0.0133  0.0596 -0.2379
15750TIP3    H168741   2.660   0.785  11.789 -1.5277 -0.2028 -0.3390
15750TIP3    H268742   2.658   0.720  11.926  0.1964  0.0038 -0.1971
15751TIP3   OH268743   4.717   3.171   5.792  0.0235 -0.5629 -0.0880
15751TIP3    H168744   4.655   3.127   5.849 -1.9583  0.5481 -1.2548
15751TIP3    H268745   4.694   3.141   5.704  0.1083  1.0090 -0.6801
15752TIP3   OH268746   4.079   0.897  16.401  0.2540  0.0245 -0.1563
15752TIP3    H168747   3.998   0.847  16.392 -0.6193  1.5978 -1.7919
15752TIP3    H268748   4.051   0.981  16.438  1.2046  0.4331 -0.3305
15753TIP3   OH268749   0.541   0.715   3.397  0.0390  0.0673  0.3291
15753TIP3    H168750   0.561   0.710   3.490 -0.0463 -2.2726  0.2865
15753TIP3    H268751   0.487   0.638   3.379 -1.4391  1.4033 -1.3326
15754TIP3   OH268752   6.249   5.932  16.701 -0.2663  0.1406 -0.1706
15754TIP3    H168753   6.209   5.976  16.626 -0.5388 -0.8517 -0.6216
15754TIP3    H268754   6.331   5.896  16.668 -0.8285 -1.1224 -0.2793
15755TIP3   OH268755   1.566   1.289  14.482 -0.2668  0.4921  0.2698
15755TIP3    H168756   1.571   1.208  14.432 -1.1215  0.9026 -0.5022
15755TIP3    H268757   1.638   1.342  14.450  1.4118 -0.6031  2.0174
15756TIP3   OH268758   2.682   1.507   0.448  0.1329 -0.3459 -0.1358
15756TIP3    H168759   2.621   1.581   0.446  0.0794 -0.3839  0.0356
15756TIP3    H268760   2.715   1.506   0.538  0.3807 -0.3307 -0.2257
15757TIP3   OH268761   0.477   3.319   3.694 -1.1982 -0.0151  0.1418
15757TIP3    H168762   0.411   3.366   3.746 -0.3403  1.3176  0.0935
15757TIP3    H268763   0.451   3.227   3.699 -3.5813  0.5348 -0.6373
15758TIP3   OH268764   6.525   4.296  12.673 -0.1316  0.1373 -0.0232
15758TIP3    H168765   6.466   4.324  12.603  0.9577  1.4246 -0.4806
15758TIP3    H268766   6.522   4.200  12.670 -3.9102  0.0294  1.5090
15759TIP3   OH268767   4.373   2.362   1.830 -0.3435  0.2410  0.4219
15759TIP3    H168768   4.355   2.456   1.833  0.2798  0.3658  0.2717
15759TIP3    H268769   4.450   2.353   1.775 -1.7533 -0.5622 -1.5308
15760TIP3   OH268770   3.567   0.752  16.565  0.2838 -0.0701  0.1746
15760TIP3    H168771   3.609   0.693  16.502  0.6691 -0.2576  0.5967
15760TIP3    H268772   3.541   0.694  16.637 -2.0431 -0.2246 -0.6877
15761TIP3   OH268773   2.968   5.632   3.327  0.7340 -0.3191 -0.1969
15761TIP3    H168774   2.987   5.618   3.419 -0.2653  0.5627  0.1657
15761TIP3    H268775   3.005   5.718   3.307  0.3461 -0.2041 -0.4383
15762TIP3   OH268776   0.173   6.076  11.276  0.0231  0.0434  0.1023
15762TIP3    H168777   0.094   6.033  11.308  1.2545 -1.0763  1.8129
15762TIP3    H268778   0.232   6.003  11.254  0.2413  0.8324 -2.1815
15763TIP3   OH268779   6.262   1.523  15.491 -0.1840 -0.5898  0.2367
15763TIP3    H168780   6.355   1.506  15.511 -0.3027 -0.4491  0.9128
15763TIP3    H268781   6.218   1.440  15.511 -0.1145 -0.8794 -0.7418
15764TIP3   OH268782   2.847   1.496  15.585 -0.1600 -0.3013  0.7969
15764TIP3    H168783   2.762   1.539  15.594 -0.3263 -0.1439 -1.0082
15764TIP3    H268784   2.910   1.558  15.622 -0.7775 -0.2738  1.8337
15765TIP3   OH268785   6.097   2.169  12.568 -0.1319  0.2351  0.1294
15765TIP3    H168786   6.079   2.097  12.629 -0.5160  1.2653  1.2612
15765TIP3    H268787   6.010   2.202  12.544 -0.1061 -1.1713 -2.3108
15766TIP3   OH268788   2.136   2.483  14.368 -0.7957  0.1841 -0.0948
15766TIP3    H168789   2.178   2.533  14.298  0.7544  0.6154  1.0869
15766TIP3    H268790   2.117   2.398  14.328  0.3386  0.3145 -0.9793
15767TIP3   OH268791   4.152   4.738  11.897  0.1778 -0.3710  0.1008
15767TIP3    H168792   4.095   4.768  11.826  0.4060 -1.3600 -0.5213
15767TIP3    H268793   4.132   4.796  11.970  0.6066  1.2639 -1.0465
15768TIP3   OH268794   2.661   3.865  16.780  0.1371  0.3125 -0.3186
15768TIP3    H168795   2.698   3.834  16.697  0.2907  0.3956 -0.2840
15768TIP3    H268796   2.651   3.960  16.767  1.1119  0.4883  0.1085
15769TIP3   OH268797   6.816   0.470   2.979  0.0651 -0.5327  0.3783
15769TIP3    H168798   6.754   0.526   2.932  0.1001  1.0649  2.0943
15769TIP3    H268799   6.901   0.511   2.966  0.5048 -1.6373 -0.3866
15770TIP3   OH268800   1.148   3.135  16.003  0.3605 -0.2932 -0.3048
15770TIP3    H168801   1.199   3.138  15.922 -0.5202  0.4203 -0.8543
15770TIP3    H268802   1.058   3.151  15.975  0.2897  2.0157  1.0250
15771TIP3   OH268803   0.818   5.685  12.436 -0.2185  0.8962 -0.0031
15771TIP3    H168804   0.757   5.702  12.507 -0.7778  0.1599 -0.3023
15771TIP3    H268805   0.764   5.650  12.365  0.8427 -2.0078  0.5131
15772TIP3   OH268806   6.696   3.744   6.131  0.3569  0.6221 -0.2708
15772TIP3    H168807   6.710   3.808   6.201 -0.3970  1.6144 -0.9822
15772TIP3    H268808   6.782   3.732   6.092  0.9436 -0.5464  1.2932
15773TIP3   OH268809   6.017   1.312   1.159 -0.3199  0.0503  0.7890
15773TIP3    H168810   6.086   1.253   1.189  0.0402 -0.3888 -0.8062
15773TIP3    H268811   5.937   1.277   1.198  0.2185 -0.0661  1.8012
15774TIP3   OH268812   5.917   0.306   4.311 -0.0096 -0.5712  0.2891
15774TIP3    H168813   5.925   0.354   4.229 -2.8250 -0.5633 -0.0584
15774TIP3    H268814   5.846   0.244   4.296 -0.7860 -0.4006  2.7924
15775TIP3   OH268815   2.652   4.803  13.558 -0.4972 -0.1225 -0.2296
15775TIP3    H168816   2.605   4.794  13.475  2.1811 -0.5626 -1.8079
15775TIP3    H268817   2.639   4.718  13.601 -1.5355 -0.0531 -0.3700
15776TIP3   OH268818   0.936   4.334   2.933  0.2280 -0.6564 -0.2691
15776TIP3    H168819   0.843   4.335   2.956  0.3294 -1.0474  0.1595
15776TIP3    H268820   0.972   4.412   2.975  0.2519 -0.9344  0.2276
15777TIP3   OH268821   2.622   5.146  14.910  0.1370 -0.5118  0.4450
15777TIP3    H168822   2.592   5.084  14.844 -0.8025 -0.6428  0.9800
15777TIP3    H268823   2.553   5.212  14.915  0.8334  0.2449  0.3331
15778TIP3   OH268824   5.419   6.570   4.900 -0.3626  0.0950  0.3727
15778TIP3    H168825   5.447   6.600   4.813 -0.1392 -0.4537  0.2529
15778TIP3    H268826   5.455   6.634   4.960 -0.5663  0.5117  0.0579
15779TIP3   OH268827   5.392   6.750  14.352 -0.0811 -0.5486  0.6813
15779TIP3    H168828   5.401   6.730  14.259  2.3741 -1.8553  1.1142
15779TIP3    H268829   5.435   6.677  14.397  2.1015  1.7794  2.6980
15780TIP3   OH268830   0.901   2.934  11.973  0.2841  0.3447 -0.0152
15780TIP3    H168831   0.939   3.016  11.943 -0.5772  0.2584 -1.4574
15780TIP3    H268832   0.811   2.935  11.940 -0.2312 -0.5020  1.2675
15781TIP3   OH268833   3.766   2.942  16.679 -0.1341 -0.1602 -0.6012
15781TIP3    H168834   3.775   3.001  16.604 -1.5355 -0.3564 -0.9560
15781TIP3    H268835   3.732   2.998  16.749 -0.0204 -0.2382 -0.4842
15782TIP3   OH268836   5.925   2.384  16.904 -0.0574 -0.1573  0.9407
15782TIP3    H168837   5.974   2.380  16.986  0.2327  0.4063  0.7950
15782TIP3    H268838   5.913   2.477  16.887  1.0826 -0.2047 -0.3594
15783TIP3   OH268839   0.433   0.922   6.222  0.4629 -0.1391 -0.3471
15783TIP3    H168840   0.378   0.947   6.297 -1.8316 -1.2518 -1.5245
15783TIP3    H268841   0.399   0.974   6.149  0.1900 -1.6063 -1.3366
15784TIP3   OH268842   6.400   0.060  13.964  0.0227  0.2832  0.7897
15784TIP3    H168843   6.376   0.097  13.879  0.4241 -2.0218 -0.4095
15784TIP3    H268844   6.356   0.116  14.028 -0.6272  1.8449 -0.9386
15785TIP3   OH268845   1.951   5.153   2.741  0.5338  0.1449  0.0162
15785TIP3    H168846   1.951   5.078   2.800 -0.0044 -1.5090 -1.9612
15785TIP3    H268847   1.905   5.221   2.789 -1.1952 -1.5955  0.9955
15786TIP3   OH268848   6.599   5.269  15.876  0.5507  0.4837  0.1738
15786TIP3    H168849   6.537   5.244  15.944  0.2577 -0.1361 -0.3097
15786TIP3    H268850   6.639   5.350  15.909  0.9164 -0.1652  1.3917
15787TIP3   OH268851   0.275   5.602  11.922 -0.1235 -0.4394 -0.2421
15787TIP3    H168852   0.322   5.685  11.914  0.1928 -0.4975  0.7961
15787TIP3    H268853   0.185   5.627  11.943 -0.5323 -0.3337 -1.9797
15788TIP3   OH268854   6.813   2.084   4.688 -0.1889 -0.4641 -0.1195
15788TIP3    H168855   6.862   2.046   4.614  0.4886 -1.0197  0.6026
15788TIP3    H268856   6.804   2.012   4.750 -1.7111 -0.2913 -0.1191
15789TIP3   OH268857   3.538   4.534   3.760 -0.2233 -0.3658 -0.0569
15789TIP3    H168858   3.492   4.451   3.763 -0.2457 -0.3268  0.9575
15789TIP3    H268859   3.609   4.520   3.698  0.1691 -1.3605  0.5924
15790TIP3   OH268860   4.033   1.719  14.685 -0.8019  0.6925  0.6996
15790TIP3    H168861   3.976   1.669  14.744  1.8635 -1.3968  1.6790
15790TIP3    H268862   4.097   1.760  14.742 -1.0481  2.7359 -0.4031
15791TIP3   OH268863   4.446   6.091  17.184  0.7026  0.1230  0.7360
15791TIP3    H168864   4.358   6.104  17.218  1.0122  0.5744  1.3955
15791TIP3    H268865   4.434   6.053  17.097 -0.2110  2.2337 -0.1389
15792TIP3   OH268866   4.945   3.245  11.713  0.0781 -0.6409 -0.2269
15792TIP3    H168867   4.905   3.331  11.705 -2.9187 -1.9678 -1.0854
15792TIP3    H268868   4.982   3.244  11.802 -0.8644  1.1099  0.2286
15793TIP3   OH268869   1.963   6.264  15.190  0.8174  0.3343 -0.6129
15793TIP3    H168870   1.975   6.233  15.100 -2.4515  0.0945 -1.1198
15793TIP3    H268871   1.936   6.356  15.180 -1.0993 -0.1184 -0.0812
15794TIP3   OH268872   4.982   0.330   0.670 -0.0201 -0.1449 -0.5550
15794TIP3    H168873   5.001   0.420   0.644  0.3955 -0.5624 -1.8169
15794TIP3    H268874   4.969   0.284   0.587  1.7503 -1.6576 -0.0818
15795TIP3   OH268875   6.602   6.397  13.872 -0.3295 -0.3482 -0.2644
15795TIP3    H168876   6.598   6.488  13.903  0.7371 -0.4638  0.2816
15795TIP3    H268877   6.692   6.388  13.839 -0.6867 -0.9665 -1.0775
15796TIP3   OH268878   6.370   5.441   3.141  0.6280 -0.2155  0.2169
15796TIP3    H168879   6.346   5.352   3.117 -3.4476  0.3782  1.2951
15796TIP3    H268880   6.379   5.486   3.057  0.3008 -1.1108 -0.3146
15797TIP3   OH268881   5.971   1.901   3.594  0.3219 -0.7857  0.5079
15797TIP3    H168882   5.940   1.986   3.564 -2.9652 -2.4601 -1.4865
15797TIP3    H268883   5.914   1.879   3.667  0.8831 -1.4438  0.7571
15798TIP3   OH268884   4.045   0.928  13.267 -0.6758  0.6170 -0.2369
15798TIP3    H168885   3.954   0.954  13.249 -1.1504 -0.3118  0.6730
15798TIP3    H268886   4.038   0.869  13.342  0.7379  0.8503  0.1028
15799TIP3   OH268887   0.388   3.632  11.423  0.0017  0.4077 -0.0442
15799TIP3    H168888   0.428   3.649  11.508 -2.2445  1.0106  0.9813
15799TIP3    H268889   0.340   3.550  11.435 -2.8706  2.0127  0.3560
15800TIP3   OH268890   6.436   3.321   5.623 -0.0688  0.3791 -0.1764
15800TIP3    H168891   6.423   3.258   5.552  0.3651  0.9049 -0.7296
15800TIP3    H268892   6.372   3.295   5.690  1.2059 -1.6506  0.3214
15801TIP3   OH268893   6.144   0.414  12.931  0.3281  0.7034  0.5033
15801TIP3    H168894   6.073   0.431  12.992 -0.3271  0.7346 -0.2483
15801TIP3    H268895   6.105   0.428  12.844  1.4732  1.6205  0.0974
15802TIP3   OH268896   4.695   6.733   5.290  0.1513 -0.6795 -0.1396
15802TIP3    H168897   4.751   6.764   5.361 -0.5407  1.7872 -0.5414
15802TIP3    H268898   4.741   6.659   5.253  2.6699  0.6255  0.1738
15803TIP3   OH268899   4.164   1.633  13.718 -0.0572  0.0373 -0.3700
15803TIP3    H168900   4.166   1.648  13.813  0.1907 -1.9089 -0.0411
15803TIP3    H268901   4.079   1.668  13.690  0.1635  1.2799  0.4316
15804TIP3   OH268902   4.393   5.956  16.932 -0.3933 -0.4299  0.3707
15804TIP3    H168903   4.417   5.875  16.887  2.3181  0.0654  0.7737
15804TIP3    H268904   4.367   6.015  16.861  2.6682 -0.0423 -0.5940
15805TIP3   OH268905   2.038   0.307   0.643  0.5457 -0.2770 -0.3957
15805TIP3    H168906   2.112   0.298   0.583  1.8597  0.4209  1.0346
15805TIP3    H268907   2.077   0.294   0.730 -1.3764 -1.8334  0.3055
15806TIP3   OH268908   6.739   2.740   3.338  0.2399  0.1919 -0.0071
15806TIP3    H168909   6.691   2.719   3.258  1.4279  0.2842 -0.7654
15806TIP3    H268910   6.698   2.685   3.406 -2.4227  1.8730 -0.0938
15807TIP3   OH268911   0.251   5.771   3.366  0.1418 -0.3108 -0.3893
15807TIP3    H168912   0.197   5.692   3.361  0.7199 -0.7535  0.1791
15807TIP3    H268913   0.261   5.787   3.460 -1.3180  1.3975 -0.4795
15808TIP3   OH268914   6.311   5.380   2.530  0.3617  0.1562  0.6886
15808TIP3    H168915   6.377   5.419   2.473  1.3213 -0.6573  1.2235
15808TIP3    H268916   6.314   5.287   2.510  0.0059 -0.0056  1.3582
15809TIP3   OH268917   3.506   5.439  13.607  0.1882  0.0968  0.5579
15809TIP3    H168918   3.546   5.430  13.521 -0.4723 -0.4890  0.3050
15809TIP3    H268919   3.576   5.474  13.663  0.2004  1.9691 -0.5403
15810TIP3   OH268920   3.401   0.807   2.057  0.2011  0.3276 -0.0269
15810TIP3    H168921   3.487   0.776   2.087 -0.0526 -0.2418  0.1322
15810TIP3    H268922   3.416   0.834   1.967 -0.2685 -3.7454 -1.5422
15811TIP3   OH268923   6.637   6.347  14.775  0.4294  0.3594 -0.0301
15811TIP3    H168924   6.644   6.302  14.859 -0.5764 -0.6373 -0.4600
15811TIP3    H268925   6.724   6.340  14.736  0.4274 -0.7786  0.1381
15812TIP3   OH268926   2.287   6.071  17.226 -0.2125 -0.0541 -0.1957
15812TIP3    H168927   2.201   6.073  17.183 -0.5468  3.3639  0.3034
15812TIP3    H268928   2.271   6.107  17.313  1.5116 -0.6357  0.3988
15813TIP3   OH268929   1.738   6.378   3.778  0.4454  0.2703 -0.0277
15813TIP3    H168930   1.775   6.306   3.727  0.9382 -0.0472  0.7695
15813TIP3    H268931   1.812   6.435   3.798  0.6479 -0.6281  2.0069
15814TIP3   OH268932   0.674   2.382  16.839  0.0235 -0.0126 -0.2365
15814TIP3    H168933   0.625   2.339  16.910 -0.2115  0.8474  0.1354
15814TIP3    H268934   0.753   2.329  16.829 -0.4349 -0.7556 -0.0536
15815TIP3   OH268935   1.048   0.735   4.818  0.3177  0.1637  0.1574
15815TIP3    H168936   1.009   0.760   4.901  0.1451 -0.3267  0.2322
15815TIP3    H268937   0.975   0.699   4.767  0.7366 -1.2325  0.4872
15816TIP3   OH268938   0.755   0.701  12.087 -0.1522 -0.0449 -0.5670
15816TIP3    H168939   0.786   0.789  12.109  0.8616 -1.0958  2.9000
15816TIP3    H268940   0.660   0.709  12.080 -0.9305  0.6406  5.4444
15817TIP3   OH268941   3.477   4.138   5.548  0.1430 -1.3181 -0.1472
15817TIP3    H168942   3.471   4.072   5.478 -1.2666  0.6770 -2.0382
15817TIP3    H268943   3.570   4.156   5.557  0.3923 -2.1159 -1.0020
15818TIP3   OH268944   0.957   3.586  15.197  0.3419 -0.5937 -0.2278
15818TIP3    H168945   0.999   3.658  15.243 -0.0886  0.9912 -2.1800
15818TIP3    H268946   0.945   3.519  15.264  2.3840  0.4112  1.2537
15819TIP3   OH268947   1.242   6.585   2.809 -0.0267  0.0950 -0.8381
15819TIP3    H168948   1.291   6.664   2.832  0.1154  0.0859 -1.1113
15819TIP3    H268949   1.306   6.527   2.769  0.6743 -1.5546  2.3593
15820TIP3   OH268950   6.028   1.156   5.442 -0.0047  0.0574  0.8041
15820TIP3    H168951   5.934   1.140   5.438 -0.2061  1.0737 -3.1476
15820TIP3    H268952   6.036   1.249   5.465  0.0659 -0.0357  1.1699
15821TIP3   OH268953   5.436   3.934   5.221  0.2166  0.3495 -0.1237
15821TIP3    H168954   5.340   3.926   5.225  0.2373 -2.1717 -1.7388
15821TIP3    H268955   5.452   3.996   5.150 -0.1977  1.3588  0.6515
15822TIP3   OH268956   0.576   1.454   4.551 -0.0405 -0.2255 -0.5239
15822TIP3    H168957   0.516   1.413   4.614  0.1969  1.1798  0.6726
15822TIP3    H268958   0.644   1.388   4.537  0.6197 -0.1265  1.7702
15823TIP3   OH268959   4.008   6.257  13.795 -0.6446  0.1999 -0.4712
15823TIP3    H168960   4.032   6.207  13.873  1.3167  0.6051 -0.7710
15823TIP3    H268961   3.951   6.198  13.745 -2.6181  0.2260  1.5803
15824TIP3   OH268962   1.525   1.976  11.022  0.1486 -0.0053  0.4020
15824TIP3    H168963   1.545   2.011  10.935 -1.0826 -0.3778 -0.0507
15824TIP3    H268964   1.494   1.887  11.006  2.8840 -1.2591  1.5059
15825TIP3   OH268965   2.381   5.536   5.710  0.0355 -0.1958 -0.6342
15825TIP3    H168966   2.401   5.579   5.794 -0.0691 -1.5231  0.0938
15825TIP3    H268967   2.394   5.605   5.645 -0.4437  1.0420  0.5122
15826TIP3   OH268968   4.869   1.051   5.808  0.4291 -0.4165  0.0427
15826TIP3    H168969   4.921   1.059   5.728 -0.6015  0.5985 -0.5616
15826TIP3    H268970   4.934   1.046   5.879  1.4011  1.8561 -0.5897
15827TIP3   OH268971   4.572   5.358  13.750  0.2430  1.0575 -0.2026
15827TIP3    H168972   4.481   5.385  13.744  0.1402  0.8735  0.4127
15827TIP3    H268973   4.621   5.438  13.767  0.1506  1.1131 -0.2010
15828TIP3   OH268974   2.931   2.699   5.218 -0.3899 -0.2624  0.3812
15828TIP3    H168975   2.971   2.691   5.131  1.5488 -1.2449  1.2943
15828TIP3    H268976   2.874   2.776   5.211 -1.9927 -1.5399 -2.3387
15829TIP3   OH268977   6.479   2.322   2.600  0.5677  0.0625 -0.3934
15829TIP3    H168978   6.514   2.386   2.662  0.0035  0.3466 -0.3642
15829TIP3    H268979   6.477   2.240   2.648  3.1632 -0.4601 -1.0205
15830TIP3   OH268980   1.391   5.982  11.281  0.0787 -0.1031 -0.0372
15830TIP3    H168981   1.406   6.057  11.339  0.1679 -2.3701  3.0911
15830TIP3    H268982   1.301   5.994  11.251  0.0240  1.1400  0.5474
15831TIP3   OH268983   5.965   1.841   1.228  0.0003  0.8491  0.1351
15831TIP3    H168984   6.050   1.853   1.185  0.9369  0.3754  1.7867
15831TIP3    H268985   5.951   1.923   1.275  0.3793  0.3082  1.2280
15832TIP3   OH268986   4.954   0.861   0.381 -0.1407  0.0697 -0.6445
15832TIP3    H168987   5.045   0.882   0.357 -0.5489  0.6442 -1.7662
15832TIP3    H268988   4.935   0.920   0.454 -0.3783  1.7378 -1.9854
15833TIP3   OH268989   6.770   4.903   4.947  0.0503  0.0789  0.1524
15833TIP3    H168990   6.731   4.857   5.021  0.3186 -0.1351  0.1639
15833TIP3    H268991   6.723   4.986   4.942  0.3111  0.2704  0.8134
15834TIP3   OH268992   4.023   4.232  13.030 -0.3901  0.2413 -0.2736
15834TIP3    H168993   3.971   4.266  12.957  0.7170 -0.4229 -1.4125
15834TIP3    H268994   4.058   4.310  13.073 -1.6484  0.6636  0.0216
15835TIP3   OH268995   6.090   3.585  14.510 -0.0983  0.2105  0.1465
15835TIP3    H168996   6.138   3.512  14.549 -2.3361 -1.0568  0.7387
15835TIP3    H268997   6.044   3.625  14.583 -1.7854 -0.1421 -0.6675
15836TIP3   OH268998   3.960   3.758   1.686  0.0038  0.2431  0.1299
15836TIP3    H168999   3.885   3.759   1.627  0.9415 -0.7083 -1.1448
15836TIP3    H269000   4.036   3.750   1.628  0.9959 -0.2087  1.4385
15837TIP3   OH269001   1.298   6.346  13.958  0.0358  0.5016  0.0595
15837TIP3    H169002   1.324   6.276  13.899  2.5161  0.0142  1.5481
15837TIP3    H269003   1.208   6.326  13.983  0.7496 -2.3983  0.6665
15838TIP3   OH269004   6.594   3.978  15.823  0.0156  0.1475 -0.6666
15838TIP3    H169005   6.645   4.036  15.767 -0.3774  0.1719 -1.0078
15838TIP3    H269006   6.594   4.021  15.909 -1.5444  1.4818 -1.2677
15839TIP3   OH269007   6.591   1.839  14.210 -0.7077 -0.0728  0.1725
15839TIP3    H169008   6.529   1.862  14.140 -0.8253 -0.5345  0.1204
15839TIP3    H269009   6.551   1.875  14.289 -0.1077  1.2937 -0.1173
15840TIP3   OH269010   6.313   3.629   0.823 -0.2040 -0.1534  0.0886
15840TIP3    H169011   6.279   3.547   0.789  0.2342 -0.3314  0.0774
15840TIP3    H269012   6.407   3.613   0.837 -0.2669  0.0851  0.8520
15841TIP3   OH269013   2.794   6.182  16.973 -0.1293  1.0010 -0.4240
15841TIP3    H169014   2.739   6.249  17.014  0.4038  0.4095  1.3425
15841TIP3    H269015   2.843   6.144  17.046 -0.8159 -1.6924 -1.2823
15842TIP3   OH269016   2.434   5.039   3.958 -0.2134  0.1834  0.7083
15842TIP3    H169017   2.364   5.101   3.936 -0.3086 -0.1023  0.1781
15842TIP3    H269018   2.455   4.997   3.875  0.8357  0.5080  0.7953
15843TIP3   OH269019   5.111   6.770   3.491 -0.0172  0.5222 -0.0096
15843TIP3    H169020   5.093   6.831   3.563  3.3541  0.9247  0.6812
15843TIP3    H269021   5.097   6.822   3.412 -1.7419  0.7049  0.3688
15844TIP3   OH269022   0.630   2.472  13.572  0.2435  0.2925  0.0275
15844TIP3    H169023   0.610   2.487  13.480 -0.4067 -0.6633  0.0057
15844TIP3    H269024   0.560   2.516  13.620 -1.2730 -1.9489 -0.0235
15845TIP3   OH269025   3.600   5.335  14.552 -0.5762  0.4425  0.1220
15845TIP3    H169026   3.569   5.321  14.463 -0.5213  0.8138  0.0414
15845TIP3    H269027   3.695   5.344  14.543 -0.6393  1.1907  0.1214
15846TIP3   OH269028   0.065   6.317  14.912 -0.2066  0.1816 -0.1587
15846TIP3    H169029   0.059   6.225  14.888 -0.2215  0.4891 -1.3906
15846TIP3    H269030   0.120   6.356  14.843 -0.4086  1.1386  0.2084
15847TIP3   OH269031   3.719   1.242   0.349  0.1089  0.0244  0.3340
15847TIP3    H169032   3.760   1.162   0.318  0.2829 -0.6747  2.2350
15847TIP3    H269033   3.645   1.256   0.289 -0.5006 -2.0867  0.5280
15848TIP3   OH269034   3.524   0.851   5.767 -0.2804 -0.0833 -0.2640
15848TIP3    H169035   3.442   0.868   5.814 -0.4373 -0.7867 -0.2759
15848TIP3    H269036   3.586   0.913   5.806 -0.9129  0.7376 -0.5390
15849TIP3   OH269037   2.875   0.355   1.786  0.4032 -0.3752 -0.0980
15849TIP3    H169038   2.915   0.323   1.866  0.2852  2.2022  1.0870
15849TIP3    H269039   2.826   0.433   1.813  3.3975  2.9049 -3.1714
15850TIP3   OH269040   5.913   1.356   0.548 -0.4621  0.2544  0.2011
15850TIP3    H169041   5.828   1.386   0.514 -0.3970  0.4567  0.2124
15850TIP3    H269042   5.892   1.314   0.631 -0.3972  1.6592  0.9701
15851TIP3   OH269043   3.419   6.073  14.161 -0.3855 -0.1774  0.4099
15851TIP3    H169044   3.346   6.134  14.175 -0.1709  0.2820 -0.4216
15851TIP3    H269045   3.476   6.088  14.237 -0.3708  0.6214  0.2552
15852TIP3   OH269046   4.071   5.198  12.846  0.1889  0.0646  0.6282
15852TIP3    H169047   4.045   5.276  12.796  1.1439  0.1866  0.3176
15852TIP3    H269048   4.125   5.148  12.786  1.5771  0.3355  1.5940
15853TIP3   OH269049   6.446   4.357   1.800  0.4201 -0.3486 -0.2061
15853TIP3    H169050   6.471   4.397   1.717 -1.2638 -0.1700 -0.6418
15853TIP3    H269051   6.443   4.263   1.782  1.3342 -0.4353  0.0188
15854TIP3   OH269052   1.348   1.934  15.150  0.2321  0.4053  0.6528
15854TIP3    H169053   1.327   1.845  15.123 -1.0189  1.3611 -1.9517
15854TIP3    H269054   1.431   1.927  15.195  1.1198 -1.8755 -1.1316
15855TIP3   OH269055   4.198   1.468  15.858 -0.2270 -0.3753 -0.1322
15855TIP3    H169056   4.284   1.460  15.816 -0.4682  0.5337 -0.8498
15855TIP3    H269057   4.183   1.383  15.898 -0.1999 -1.5253 -2.3692
15856TIP3   OH269058   0.686   1.672  13.269  0.2915 -0.2456  0.0238
15856TIP3    H169059   0.618   1.692  13.204  0.0886 -1.2062 -0.0825
15856TIP3    H269060   0.717   1.757  13.298  0.6816  0.2223 -1.6388
15857TIP3   OH269061   0.801   3.120  10.863  0.3742  0.2425 -0.8442
15857TIP3    H169062   0.853   3.194  10.831  2.5390 -1.2169 -0.9318
15857TIP3    H269063   0.859   3.076  10.926 -0.3461 -2.0501 -1.6924
15858TIP3   OH269064   6.088   5.243  13.890 -0.0661  1.2377 -0.1317
15858TIP3    H169065   6.018   5.300  13.858 -1.0515  1.9170  2.8375
15858TIP3    H269066   6.049   5.200  13.967  2.4171  0.7804  0.9639
15859TIP3   OH269067   3.020   5.400  16.892  0.2514 -0.2874 -0.4025
15859TIP3    H169068   2.977   5.362  16.815  0.7702 -1.0378 -0.3352
15859TIP3    H269069   2.948   5.423  16.951 -0.0782 -1.3747 -0.3581
15860TIP3   OH269070   3.939   4.797   4.366  0.0805  0.4369 -0.3144
15860TIP3    H169071   3.984   4.864   4.314  2.0759 -1.5741 -1.3785
15860TIP3    H269072   4.002   4.772   4.433 -0.9866  0.2581  0.6549
15861TIP3   OH269073   3.591   1.786   4.324  0.2869  0.0738 -1.0450
15861TIP3    H169074   3.684   1.802   4.307  0.1597  0.3238 -1.5354
15861TIP3    H269075   3.573   1.835   4.404  0.8534 -0.9542 -0.2622
15862TIP3   OH269076   4.756   1.596  14.420  0.4548 -0.1715 -0.2524
15862TIP3    H169077   4.786   1.550  14.341  0.0368  0.2634 -0.6738
15862TIP3    H269078   4.743   1.527  14.485 -1.9400 -0.9510 -1.4145
15863TIP3   OH269079   2.556   4.468  13.202 -0.4215 -0.1935 -0.0116
15863TIP3    H169080   2.554   4.396  13.139  0.8933 -0.6808  0.4730
15863TIP3    H269081   2.649   4.480  13.222 -0.8208 -0.8287  2.6828
15864TIP3   OH269082   0.149   3.745   4.260 -0.2845  0.3280 -0.5171
15864TIP3    H169083   0.121   3.699   4.339 -0.4081 -0.2618 -0.9037
15864TIP3    H269084   0.161   3.677   4.194 -1.5363  0.9174 -1.4136
15865TIP3   OH269085   1.282   5.483   4.927  0.3907 -0.0941 -0.0881
15865TIP3    H169086   1.315   5.398   4.957  1.7142  0.4161 -0.0303
15865TIP3    H269087   1.355   5.543   4.941 -0.7912  1.2240  0.6297
15866TIP3   OH269088   1.006   1.090   6.757 -0.5718 -0.5917 -0.2431
15866TIP3    H169089   1.100   1.077   6.744 -0.8487 -2.8805 -0.3294
15866TIP3    H269090   0.989   1.058   6.846 -1.4138 -1.1507 -0.5932
15867TIP3   OH269091   6.128   2.983   2.688 -0.6544 -0.1588 -0.3066
15867TIP3    H169092   6.110   3.045   2.617 -1.2696  1.1660  0.9426
15867TIP3    H269093   6.223   2.976   2.690 -0.6353 -0.3823 -1.3894
15868TIP3   OH269094   5.618   4.794   6.128  0.3087  0.1603 -0.6857
15868TIP3    H169095   5.710   4.785   6.155 -0.4367 -2.8000  1.3288
15868TIP3    H269096   5.616   4.762   6.038  0.9689 -1.8984 -0.0100
15869TIP3   OH269097   4.908   4.311   4.808 -0.5738 -0.2826 -0.1298
15869TIP3    H169098   4.834   4.269   4.765 -0.5988 -0.5875  0.2049
15869TIP3    H269099   4.962   4.344   4.736 -0.3682 -1.2124 -0.4209
15870TIP3   OH269100   1.416   4.653   4.303 -0.1165  0.2845  0.3344
15870TIP3    H169101   1.372   4.734   4.328 -1.0260  0.6077 -2.0111
15870TIP3    H269102   1.360   4.584   4.337 -0.1648  0.6367  0.9957
15871TIP3   OH269103   3.610   2.016  12.363 -0.2457 -0.5469  0.0177
15871TIP3    H169104   3.693   2.033  12.407 -0.8013  1.1973  0.5006
15871TIP3    H269105   3.546   2.007  12.433 -0.5106 -1.7367 -0.3532
15872TIP3   OH269106   6.006   0.431   0.809 -0.4252 -0.4333 -0.4589
15872TIP3    H169107   6.098   0.458   0.802 -0.3029 -0.5682  0.4784
15872TIP3    H269108   6.010   0.347   0.854 -1.0380 -0.1916  0.0522
15873TIP3   OH269109   5.447   6.327  16.358 -0.0671  0.2102 -0.3558
15873TIP3    H169110   5.392   6.405  16.352 -0.4129 -0.0552 -0.7042
15873TIP3    H269111   5.447   6.304  16.452  2.4704  2.3338  0.2811
15874TIP3   OH269112   1.106   4.429   4.838  0.0062 -0.2427  0.7228
15874TIP3    H169113   1.097   4.460   4.928 -0.5025  1.8308  0.0069
15874TIP3    H269114   1.105   4.509   4.785  1.4956 -1.3305 -1.0496
15875TIP3   OH269115   4.441   5.906  14.700 -0.0705  0.3145 -0.5578
15875TIP3    H169116   4.439   5.949  14.614  1.2110  1.4869 -0.0436
15875TIP3    H269117   4.470   5.975  14.760  2.0268 -1.2489  0.3224
15876TIP3   OH269118   3.785   2.045   3.677  0.4338  0.2513 -0.5660
15876TIP3    H169119   3.786   1.997   3.760  0.0991 -0.3013 -0.8789
15876TIP3    H269120   3.829   1.986   3.615  1.6510  1.0955 -0.5548
15877TIP3   OH269121   1.992   4.508  15.866 -0.5673  0.1844 -0.3700
15877TIP3    H169122   1.976   4.451  15.791 -0.2290 -1.2434  0.5966
15877TIP3    H269123   2.014   4.448  15.938 -0.7923  1.4975  0.8555
15878TIP3   OH269124   3.933   2.330  16.320  0.2673  0.4168  0.2082
15878TIP3    H169125   3.882   2.320  16.239 -2.2348  1.9845  1.4698
15878TIP3    H269126   3.879   2.287  16.387  2.1697 -0.6345  1.1337
15879TIP3   OH269127   5.761   6.397   4.542  0.3373  0.1321 -0.1234
15879TIP3    H169128   5.829   6.426   4.480  0.5402 -2.5679 -1.2880
15879TIP3    H269129   5.806   6.396   4.627  1.2196  0.1259 -0.5733
15880TIP3   OH269130   0.845   4.214   1.642 -0.0635 -0.3178 -0.1323
15880TIP3    H169131   0.898   4.274   1.696  1.8311 -1.2997 -0.7934
15880TIP3    H269132   0.764   4.261   1.627  0.7968  1.4991  0.5507
15881TIP3   OH269133   2.015   3.172   3.126  0.0312 -0.0403  0.2518
15881TIP3    H169134   1.990   3.080   3.122  0.4519 -0.1589  0.2929
15881TIP3    H269135   1.932   3.219   3.135 -0.0894 -0.5016  1.7669
15882TIP3   OH269136   2.951   1.253  15.705  0.0799 -0.0334 -0.2348
15882TIP3    H169137   2.917   1.338  15.677  0.0793 -0.0300 -0.2238
15882TIP3    H269138   2.876   1.194  15.696  0.3305 -0.2315 -1.1495
15883TIP3   OH269139   1.436   2.294   4.759 -0.1715 -0.1669 -0.1610
15883TIP3    H169140   1.476   2.295   4.846 -1.4668  0.9316  0.4581
15883TIP3    H269141   1.342   2.307   4.776 -0.1950  2.5494 -1.8209
15884TIP3   OH269142   3.723   5.544   1.394 -0.5257  0.0307 -0.1040
15884TIP3    H169143   3.727   5.627   1.442 -0.2524 -0.0707  0.0502
15884TIP3    H269144   3.806   5.541   1.347 -0.7774  0.1164 -0.5657
15885TIP3   OH269145   6.682   0.445   0.910  0.0131 -0.3467 -0.0270
15885TIP3    H169146   6.610   0.505   0.928  0.1163 -0.8474  2.2989
15885TIP3    H269147   6.752   0.473   0.968  1.3907 -0.4782 -1.5531
15886TIP3   OH269148   5.422   5.600  10.342 -0.4083 -0.0677  0.5304
15886TIP3    H169149   5.465   5.517  10.363  0.2603  0.3565  0.8428
15886TIP3    H269150   5.478   5.640  10.275  0.2987  0.9942  1.7208
15887TIP3   OH269151   5.323   3.852  12.909 -0.5188 -0.4030 -0.0727
15887TIP3    H169152   5.320   3.758  12.927 -0.2377 -0.5914 -0.9465
15887TIP3    H269153   5.281   3.892  12.985  0.6712 -1.1319  1.0159
15888TIP3   OH269154   1.461   6.018   3.405 -0.1126 -0.3590 -0.5946
15888TIP3    H169155   1.381   6.035   3.355 -1.2477 -0.0984  1.2195
15888TIP3    H269156   1.447   6.062   3.488  3.0547  2.0200 -1.1110
15889TIP3   OH269157   5.139   4.666   4.116  0.3953 -0.0878 -0.4640
15889TIP3    H169158   5.182   4.588   4.081  1.4029  0.4807 -0.5248
15889TIP3    H269159   5.053   4.634   4.146 -0.0524 -0.7995 -2.3932
15890TIP3   OH269160   4.185   6.410  12.489  0.7586 -0.1837  0.1225
15890TIP3    H169161   4.116   6.391  12.553  0.3564  0.3509 -0.1502
15890TIP3    H269162   4.219   6.495  12.516  0.8734 -0.1504 -0.1254
15891TIP3   OH269163   1.069   0.533   4.491  0.3392 -0.3369 -0.2753
15891TIP3    H169164   0.990   0.539   4.544  0.6929  2.1738  0.1044
15891TIP3    H269165   1.141   0.535   4.555  0.7279 -0.0474 -0.7126
15892TIP3   OH269166   1.916   3.293  12.082 -0.6801  0.2302 -0.2168
15892TIP3    H169167   2.009   3.289  12.105 -0.5209 -0.1328 -0.9087
15892TIP3    H269168   1.911   3.251  11.996 -1.4868  0.2293 -0.1715
15893TIP3   OH269169   4.203   6.003   5.982  0.8169 -0.1141 -0.3575
15893TIP3    H169170   4.151   6.010   5.902  0.2050 -0.1518  0.0303
15893TIP3    H269171   4.172   5.923   6.024  3.2082 -1.7951 -1.5200
15894TIP3   OH269172   6.729   1.432  14.909  0.0863 -0.3207  0.0279
15894TIP3    H169173   6.667   1.498  14.940  3.1126  2.8016  0.0485
15894TIP3    H269174   6.760   1.389  14.989 -1.0248 -1.0018  0.1165
15895TIP3   OH269175   0.656   4.824  14.535 -0.2350  0.6533 -0.1878
15895TIP3    H169176   0.674   4.761  14.605 -4.0686  1.4963  1.8259
15895TIP3    H269177   0.638   4.906  14.580 -3.3353  1.1205 -1.9729
15896TIP3   OH269178   3.937   1.757  12.468  0.0672  0.2343 -0.0657
15896TIP3    H169179   3.933   1.703  12.389 -0.6430  0.0820  0.0667
15896TIP3    H269180   4.008   1.718  12.520 -0.8716 -1.0325  0.3418
15897TIP3   OH269181   0.985   6.565   0.835  0.0220  0.1818  0.0488
15897TIP3    H169182   1.024   6.652   0.822 -1.6638  1.0666  0.5218
15897TIP3    H269183   0.916   6.560   0.769  0.0534 -0.7753  0.0794
15898TIP3   OH269184   3.075   3.736   5.370  0.8269 -0.0159  0.0133
15898TIP3    H169185   3.009   3.769   5.431  0.7167 -1.2821  0.6124
15898TIP3    H269186   3.033   3.742   5.284 -0.5307 -1.8228  0.5002
15899TIP3   OH269187   5.381   6.551  12.729 -0.0499 -0.5935  0.3402
15899TIP3    H169188   5.348   6.634  12.762 -0.4968  0.1508 -1.8089
15899TIP3    H269189   5.397   6.498  12.807  0.5399  1.6051  1.7695
15900TIP3   OH269190   1.410   1.437  12.296  0.5013 -0.1792 -0.0438
15900TIP3    H169191   1.320   1.467  12.311  0.1791 -0.6443 -0.9842
15900TIP3    H269192   1.400   1.351  12.256  1.3857 -0.6110  0.6529
15901TIP3   OH269193   2.159   0.539  14.267  0.3012  0.0848  0.4190
15901TIP3    H169194   2.098   0.468  14.287 -0.3929  0.7232  0.6147
15901TIP3    H269195   2.222   0.500  14.207 -0.6977 -0.4104 -0.3337
15902TIP3   OH269196   3.346   5.858  16.342  0.0398 -0.7966  0.3727
15902TIP3    H169197   3.316   5.877  16.431 -0.3487 -1.1098  0.3136
15902TIP3    H269198   3.265   5.855  16.290  0.3591  0.9019 -0.2975
15903TIP3   OH269199   5.625   1.281  12.178 -0.6285 -0.0873  0.0755
15903TIP3    H169200   5.590   1.219  12.114 -1.3299  0.1569  0.2113
15903TIP3    H269201   5.552   1.340  12.197 -0.3496  0.0054  0.9051
15904TIP3   OH269202   5.296   3.420  13.259  0.4663 -1.0067  0.1199
15904TIP3    H169203   5.307   3.351  13.324  0.6914  0.6237  1.9027
15904TIP3    H269204   5.202   3.439  13.258  0.3798 -1.4320 -0.4947
15905TIP3   OH269205   2.865   5.692  11.664 -0.4849 -0.0214 -0.0894
15905TIP3    H169206   2.825   5.740  11.737 -2.3986 -1.1993 -0.2772
15905TIP3    H269207   2.941   5.744  11.640 -0.8764  1.4032  1.5120
15906TIP3   OH269208   4.387   5.042   2.818 -0.4931 -0.2949  0.5200
15906TIP3    H169209   4.436   5.105   2.870  0.0979 -0.7748  0.5576
15906TIP3    H269210   4.439   5.031   2.739 -0.9183 -0.2602  0.2313
15907TIP3   OH269211   5.175   0.667  10.572 -0.0505  0.5258  0.1333
15907TIP3    H169212   5.218   0.752  10.582  0.2650  0.5358 -1.0931
15907TIP3    H269213   5.244   0.603  10.591  0.1063  0.5492 -0.3356
15908TIP3   OH269214   5.526   3.984   6.366  0.0549  0.2623  0.2683
15908TIP3    H169215   5.463   3.966   6.437  0.6909 -0.1377  0.7430
15908TIP3    H269216   5.504   4.072   6.337  0.4939  0.8937  1.7272
15909TIP3   OH269217   5.154   5.794   6.636 -0.1684  0.8533 -0.0829
15909TIP3    H169218   5.145   5.705   6.670 -0.8362  1.6674  2.0214
15909TIP3    H269219   5.111   5.792   6.551  0.7113 -1.0652 -0.5282
15910TIP3   OH269220   6.056   2.234   3.112  0.1484  0.0139 -0.7467
15910TIP3    H169221   5.973   2.212   3.070  0.2366 -0.4105 -0.7010
15910TIP3    H269222   6.111   2.158   3.099  0.6199  0.3927 -0.9883
15911TIP3   OH269223   6.265   5.591  10.997  0.0489  0.3777  0.1542
15911TIP3    H169224   6.196   5.654  10.973 -0.8682 -0.7572 -0.2645
15911TIP3    H269225   6.302   5.562  10.914  0.9294  0.8489  0.3737
15912TIP3   OH269226   2.293   5.660   1.385  0.3686 -0.1757  0.2594
15912TIP3    H169227   2.292   5.749   1.419 -3.1214 -0.1902  0.5361
15912TIP3    H269228   2.258   5.607   1.456  0.4542 -1.4401 -0.6067
15913TIP3   OH269229   4.166   4.679   3.294  0.1831  0.3103 -0.3460
15913TIP3    H169230   4.152   4.597   3.247 -0.4766  1.0898 -1.5346
15913TIP3    H269231   4.186   4.743   3.226  0.4545  1.1961  0.5436
15914TIP3   OH269232   6.410   3.588  15.875 -0.3740 -0.2444 -0.2408
15914TIP3    H169233   6.475   3.528  15.911  0.5156  1.2608  0.7707
15914TIP3    H269234   6.328   3.563  15.917  0.2937  0.2671  1.4475
15915TIP3   OH269235   6.600   4.091  13.608  0.0499 -0.2943  0.1522
15915TIP3    H169236   6.519   4.132  13.637 -1.2032 -3.2234  1.1605
15915TIP3    H269237   6.669   4.145  13.646 -1.4079  1.7484  0.0327
15916TIP3   OH269238   6.588   5.151  14.775 -0.0570 -0.0505 -0.4384
15916TIP3    H169239   6.590   5.186  14.864 -0.0762 -1.9735  0.3514
15916TIP3    H269240   6.640   5.214  14.724  2.5416 -0.4099  1.5326
15917TIP3   OH269241   1.201   4.185  12.911  0.3459 -0.0543 -0.3834
15917TIP3    H169242   1.208   4.241  12.833  0.5050  2.1951  1.1622
15917TIP3    H269243   1.110   4.158  12.913  0.2197  0.2951 -1.0812
15918TIP3   OH269244   6.747   1.538  15.589  0.0888 -0.0778  0.6091
15918TIP3    H169245   6.828   1.583  15.563 -1.0818  1.4219 -0.6315
15918TIP3    H269246   6.747   1.542  15.685  0.1857  2.4023  0.5733
15919TIP3   OH269247   1.372   4.444   0.886 -0.2393  0.5320  0.2497
15919TIP3    H169248   1.450   4.439   0.830  0.2162  0.2771  0.8891
15919TIP3    H269249   1.312   4.501   0.839  0.1717  0.3974 -0.4545
15920TIP3   OH269250   5.514   6.007  12.289 -0.3864 -0.1821 -0.1449
15920TIP3    H169251   5.578   5.957  12.341  1.9388  0.7930 -1.8756
15920TIP3    H269252   5.478   5.943  12.228 -3.1590 -1.3461  2.4309
15921TIP3   OH269253   3.899   3.164   6.273 -0.2226 -1.0804  0.4653
15921TIP3    H169254   3.932   3.075   6.288  1.6680 -0.1985  2.1788
15921TIP3    H269255   3.850   3.185   6.353 -0.1814 -0.4143  0.3211
15922TIP3   OH269256   4.052   4.850   5.860 -0.3123 -0.5959  0.3122
15922TIP3    H169257   4.058   4.877   5.952  0.0479  0.4809 -0.0047
15922TIP3    H269258   3.998   4.918   5.819 -1.7091 -1.8481  0.0037
15923TIP3   OH269259   2.489   1.032  16.742 -0.2823 -0.0474 -0.3853
15923TIP3    H169260   2.469   0.978  16.665  0.7594 -0.8273 -0.1327
15923TIP3    H269261   2.529   1.111  16.707  0.5234 -0.5593 -0.6435
15924TIP3   OH269262   3.249   0.190  12.184 -0.0591  0.3106  0.1506
15924TIP3    H169263   3.335   0.148  12.187 -0.2897 -0.1500  0.3633
15924TIP3    H269264   3.220   0.177  12.094 -0.8772 -1.5244  0.6402
15925TIP3   OH269265   6.641   3.851  13.743  0.2279  0.0600  0.0093
15925TIP3    H169266   6.545   3.845  13.748  0.0409 -0.4634 -2.5988
15925TIP3    H269267   6.656   3.927  13.687  1.1595 -1.8292 -2.4556
15926TIP3   OH269268   6.619   6.153  13.499 -0.2682  0.0222 -0.5334
15926TIP3    H169269   6.621   6.087  13.569 -1.3406  1.2918  0.7714
15926TIP3    H269270   6.710   6.181  13.490 -0.3114  1.1599  1.7523
15927TIP3   OH269271   6.588   1.362  17.099  0.0546  0.2691 -0.2300
15927TIP3    H169272   6.608   1.456  17.105 -1.4219  0.6517 -0.7330
15927TIP3    H269273   6.572   1.335  17.190 -0.0619  0.6470 -0.1348
15928TIP3   OH269274   0.987   3.599  14.283  0.2392  0.4027  0.3133
15928TIP3    H169275   1.056   3.648  14.238 -1.2898  1.3420 -1.1391
15928TIP3    H269276   0.992   3.628  14.374 -0.8639  3.7402 -0.5460
15929TIP3   OH269277   0.835   6.096   3.844 -0.3534 -0.1900 -0.0843
15929TIP3    H169278   0.758   6.072   3.794 -0.4255 -0.1146 -0.0108
15929TIP3    H269279   0.801   6.149   3.916 -0.2262 -0.1003 -0.0893
15930TIP3   OH269280   3.465   4.254   1.804 -0.3671 -0.0271  0.3364
15930TIP3    H169281   3.419   4.218   1.728  0.0324 -1.0403  0.5542
15930TIP3    H269282   3.545   4.291   1.768 -0.9860  1.0769  0.0519
15931TIP3   OH269283   0.319   3.942   4.101 -0.3789  0.6290 -0.6907
15931TIP3    H169284   0.390   3.909   4.155 -0.3860 -0.4141 -1.2776
15931TIP3    H269285   0.240   3.904   4.140 -0.4787  0.7038 -0.8184
15932TIP3   OH269286   2.177   5.749  11.326  0.6360  0.6499  0.9839
15932TIP3    H169287   2.229   5.688  11.274 -0.8922 -0.0410  0.1753
15932TIP3    H269288   2.231   5.768  11.402  2.2399  0.3648 -0.0367
15933TIP3   OH269289   2.945   4.763   5.894 -0.1082 -0.2688  0.1410
15933TIP3    H169290   3.000   4.750   5.817  0.2303 -2.2461  0.6562
15933TIP3    H269291   3.005   4.789   5.963 -0.3183  0.8116 -0.0577
15934TIP3   OH269292   0.952   3.527   4.472  0.3054 -0.1166  0.0302
15934TIP3    H169293   0.966   3.622   4.472  0.2781 -0.1135  0.3591
15934TIP3    H269294   0.921   3.507   4.383  0.3571  0.1740 -0.0529
15935TIP3   OH269295   3.035   0.981   1.867 -0.0864  0.6630  0.0423
15935TIP3    H169296   3.049   0.920   1.939  0.5244  0.8840  0.1199
15935TIP3    H269297   3.116   0.978   1.817  0.1766  1.8200  0.3629
15936TIP3   OH269298   6.214   5.291  14.382 -0.2089 -0.1515 -0.2994
15936TIP3    H169299   6.128   5.326  14.362 -0.7257 -1.0089  0.3481
15936TIP3    H269300   6.261   5.293  14.298 -1.3968 -1.1509 -1.0219
15937TIP3   OH269301   2.585   3.991   2.397 -0.0202  0.5822  0.2235
15937TIP3    H169302   2.508   3.939   2.420 -1.4044  1.8149 -1.3471
15937TIP3    H269303   2.615   4.027   2.480 -0.9230 -0.2255  0.9236
15938TIP3   OH269304   6.713   3.150   5.545  0.0378  0.0314  0.4402
15938TIP3    H169305   6.766   3.095   5.603 -0.6935 -0.8362  0.3167
15938TIP3    H269306   6.754   3.140   5.459 -0.0772 -0.2995  0.4237
15939TIP3   OH269307   0.004   6.344   0.791  0.0720  0.5320  0.3242
15939TIP3    H169308  -0.038   6.423   0.825 -0.9235  1.4275 -2.6721
15939TIP3    H269309  -0.033   6.332   0.704  3.0398 -1.0238 -0.8865
15940TIP3   OH269310   0.205   5.782   2.127  0.5217  0.6225  0.2049
15940TIP3    H169311   0.184   5.798   2.035  0.0303  0.4485  0.2779
15940TIP3    H269312   0.120   5.760   2.167  0.7246  0.7263  0.7039
15941TIP3   OH269313   0.333   4.581   5.333 -0.3763 -0.6650 -1.2389
15941TIP3    H169314   0.278   4.653   5.301  1.2144  0.3894 -1.7532
15941TIP3    H269315   0.422   4.606   5.307  0.5649 -1.5147  0.9585
15942TIP3   OH269316   2.933   5.945   5.259 -0.1501 -0.1916 -0.1882
15942TIP3    H169317   3.022   5.982   5.259  0.6073 -1.8864  0.5226
15942TIP3    H269318   2.903   5.956   5.169 -0.2839  2.7376  0.1377
15943TIP3   OH269319   1.042   0.467  16.190 -0.2722 -0.4993 -0.3535
15943TIP3    H169320   0.995   0.542  16.154  1.6264  0.9501  0.0001
15943TIP3    H269321   1.099   0.438  16.118 -0.3594 -1.0417 -0.2077
15944TIP3   OH269322   4.306   0.354  14.456  0.3319 -0.3137 -0.9812
15944TIP3    H169323   4.266   0.322  14.537 -1.9875  1.2522 -1.3901
15944TIP3    H269324   4.381   0.297  14.442 -0.0679 -1.5872  1.4587
15945TIP3   OH269325   3.724   0.058  16.141  0.3176  0.4717  0.0108
15945TIP3    H169326   3.692  -0.026  16.106 -1.7141  1.3169 -0.3068
15945TIP3    H269327   3.716   0.049  16.236  0.7080  0.0877  0.0104
15946TIP3   OH269328   5.459   6.087  13.995  0.3638 -0.1875 -0.1614
15946TIP3    H169329   5.550   6.060  13.981  0.5456  1.2452 -2.0941
15946TIP3    H269330   5.465   6.173  14.036 -0.1613 -0.4563  0.5134
15947TIP3   OH269331   1.266   3.250  12.119  0.0318  0.6270 -0.4007
15947TIP3    H169332   1.256   3.299  12.038  0.6462  2.3947  0.5515
15947TIP3    H269333   1.179   3.214  12.136 -0.4112  1.3093 -1.1635
15948TIP3   OH269334   4.519   3.701  11.611 -0.3123 -0.5858 -0.5938
15948TIP3    H169335   4.548   3.629  11.666 -2.6937 -1.0838  0.1508
15948TIP3    H269336   4.509   3.663  11.524  1.6286 -0.2712 -0.9923
15949TIP3   OH269337   5.091   6.151  13.054 -0.2687 -0.2680  0.5260
15949TIP3    H169338   5.113   6.195  12.972 -0.7806 -0.5057  0.2509
15949TIP3    H269339   5.008   6.107  13.035  0.5800 -1.9724  0.5405
15950TIP3   OH269340   4.840   6.379   2.488 -0.1720 -0.1679 -0.0818
15950TIP3    H169341   4.920   6.333   2.513 -0.1773 -0.8745 -1.2680
15950TIP3    H269342   4.870   6.466   2.460 -0.0588  0.2563  1.3113
15951TIP3   OH269343   5.521   3.035   3.562  0.0749 -1.1718  0.4739
15951TIP3    H169344   5.481   2.951   3.586 -0.3716 -0.7972  1.0642
15951TIP3    H269345   5.594   3.011   3.506  0.0172 -1.9675  0.7250
15952TIP3   OH269346   5.540   1.214  12.585  0.5610  0.2165  0.6542
15952TIP3    H169347   5.631   1.187  12.574  0.5750 -0.7232  2.5962
15952TIP3    H269348   5.519   1.261  12.505  2.5295 -0.1627 -0.1452
15953TIP3   OH269349   5.311   4.276  17.095 -0.1060  1.0593 -0.0275
15953TIP3    H169350   5.402   4.303  17.080  0.3648 -0.3003  0.2297
15953TIP3    H269351   5.285   4.233  17.014  0.2822 -0.5918  0.6780
15954TIP3   OH269352   4.475   1.142  15.049  0.4812 -0.6440 -0.3686
15954TIP3    H169353   4.438   1.229  15.035  0.6858 -0.8206 -2.3305
15954TIP3    H269354   4.428   1.107  15.124 -0.5567  0.6331 -0.3960
15955TIP3   OH269355   3.108   1.245   4.141 -0.2755 -0.4343  0.5938
15955TIP3    H169356   3.095   1.231   4.047 -0.1726 -2.3309  0.8261
15955TIP3    H269357   3.023   1.274   4.173 -1.0179 -2.1578  0.2914
15956TIP3   OH269358   2.555   2.081   3.157 -0.3571  0.2187  1.0869
15956TIP3    H169359   2.581   2.056   3.069 -1.0764 -0.5911  1.0966
15956TIP3    H269360   2.597   2.166   3.171 -1.0664  0.8531 -0.4157
15957TIP3   OH269361   5.929   4.465  12.151  0.0872 -0.5097 -0.1867
15957TIP3    H169362   6.016   4.425  12.152  0.1088 -0.5871 -2.0985
15957TIP3    H269363   5.896   4.449  12.063 -1.3505  0.6321  0.1102
15958TIP3   OH269364   1.240   2.769   1.809  0.3098  0.3209 -0.7413
15958TIP3    H169365   1.155   2.791   1.771  0.0684 -1.0279 -1.0254
15958TIP3    H269366   1.223   2.692   1.863  1.1746  0.6202 -0.0145
15959TIP3   OH269367   6.021   2.852   3.615  0.4359  0.2204  0.4126
15959TIP3    H169368   6.041   2.760   3.633 -0.3765  0.1229  0.8669
15959TIP3    H269369   5.990   2.887   3.699 -0.2960  0.6210 -0.0162
15960TIP3   OH269370   4.082   4.546   0.604  0.4567 -0.7087  0.7179
15960TIP3    H169371   4.066   4.596   0.524  0.2341  0.3241  1.3923
15960TIP3    H269372   4.163   4.584   0.640  0.2404 -0.7632  1.2774
15961TIP3   OH269373   3.909   0.604  15.617  0.1623 -0.1939  0.1902
15961TIP3    H169374   3.882   0.695  15.602 -1.3215 -0.9960 -2.8018
15961TIP3    H269375   3.988   0.593  15.565 -1.1862 -1.2516 -1.7530
15962TIP3   OH269376   2.411   0.525  15.002  0.8150 -0.5115 -0.0266
15962TIP3    H169377   2.353   0.454  15.030 -1.1454  0.1533 -2.0438
15962TIP3    H269378   2.459   0.489  14.928 -1.4579  0.6163 -2.2146
15963TIP3   OH269379   4.954   6.557   0.454 -0.0633  0.0983 -0.5519
15963TIP3    H169380   5.019   6.592   0.393 -1.1602  0.9718 -1.2820
15963TIP3    H269381   4.891   6.629   0.464 -0.8738 -0.6956  0.1765
15964TIP3   OH269382   6.759   4.822  11.991  0.2282 -0.0456 -0.2278
15964TIP3    H169383   6.845   4.834  12.029 -0.3998 -0.1202  1.3038
15964TIP3    H269384   6.724   4.911  11.979  1.0024  0.0546 -2.1397
15965TIP3   OH269385   2.136   1.105   1.370 -0.2302 -0.0318 -0.0271
15965TIP3    H169386   2.209   1.094   1.431  1.1221 -2.0880 -1.8867
15965TIP3    H269387   2.071   1.041   1.398 -0.3398  0.1997  0.2518
15966TIP3   OH269388   2.529   1.745   4.963  0.7394 -0.4840 -0.4267
15966TIP3    H169389   2.504   1.835   4.985  1.2356 -0.5961  0.6299
15966TIP3    H269390   2.614   1.732   5.004  0.3312 -1.6864  0.1055
15967TIP3   OH269391   5.659   3.374   1.786  0.1079  0.5393  0.1106
15967TIP3    H169392   5.630   3.402   1.872 -1.6915 -1.3864  0.2109
15967TIP3    H269393   5.595   3.411   1.725  0.5317  0.6724 -0.2656
15968TIP3   OH269394   4.571   6.398   5.701 -0.0282 -0.0649 -0.1276
15968TIP3    H169395   4.601   6.378   5.790 -1.2720 -2.0771 -0.0855
15968TIP3    H269396   4.476   6.405   5.709 -0.2418 -1.0811 -1.3930
15969TIP3   OH269397   1.834   1.720   5.692 -0.1862  0.2783  0.0482
15969TIP3    H169398   1.869   1.807   5.712 -0.1900  0.2977 -0.0265
15969TIP3    H269399   1.911   1.667   5.672 -0.2994  1.1353 -3.3571
15970TIP3   OH269400   3.865   0.867  15.644 -0.0447 -0.4637  0.2074
15970TIP3    H169401   3.902   0.939  15.593 -1.9737  1.2490  1.1012
15970TIP3    H269402   3.915   0.868  15.726  1.0330 -1.2638 -0.4118
15971TIP3   OH269403   1.676   4.633   2.012 -0.2321 -0.0693  0.0323
15971TIP3    H169404   1.746   4.594   1.959 -0.4666  0.4234 -0.6524
15971TIP3    H269405   1.678   4.726   1.990 -0.4344  0.1215  0.7880
15972TIP3   OH269406   2.332   3.877   0.192 -0.4296  0.2882 -0.3054
15972TIP3    H169407   2.266   3.819   0.230  0.8590  0.1179  1.8271
15972TIP3    H269408   2.345   3.844   0.103 -0.7019 -1.8799  0.3975
15973TIP3   OH269409   4.542   2.828  13.163 -0.3365  0.0392  0.7110
15973TIP3    H169410   4.492   2.796  13.087 -0.6822  0.6793  0.6604
15973TIP3    H269411   4.633   2.809  13.141 -0.5388 -1.0465  0.7567
15974TIP3   OH269412   5.597   0.794  15.060 -0.2409 -0.0789  0.1534
15974TIP3    H169413   5.688   0.772  15.040 -0.2076 -0.4364  0.6824
15974TIP3    H269414   5.584   0.880  15.020  0.5755  0.3405  0.7641
15975TIP3   OH269415   2.052   5.739   3.424 -0.1129  0.3998 -0.6729
15975TIP3    H169416   2.121   5.672   3.424 -0.8027 -0.3278 -1.0664
15975TIP3    H269417   2.007   5.727   3.341 -2.0527 -0.5714  0.4402
15976TIP3   OH269418   3.580   4.972   6.484 -0.4926 -0.3916 -0.0698
15976TIP3    H169419   3.541   5.054   6.513 -2.3857 -1.0455 -0.6151
15976TIP3    H269420   3.643   4.950   6.552 -0.7976  0.9213  0.6715
15977TIP3   OH269421   4.484   1.437   5.582 -0.0020  0.5204 -0.3420
15977TIP3    H169422   4.433   1.372   5.533  0.2426  0.5818 -0.6829
15977TIP3    H269423   4.556   1.460   5.523  1.2655 -0.6245  0.6741
15978TIP3   OH269424   5.011   1.491   3.455 -0.2074  0.0293 -0.0398
15978TIP3    H169425   5.005   1.519   3.364  1.5634  0.1915 -0.1434
15978TIP3    H269426   4.933   1.438   3.470 -0.6492  0.2284 -1.5740
15979TIP3   OH269427   6.086   6.626   1.831  0.0435  0.5224 -0.0557
15979TIP3    H169428   6.001   6.631   1.786 -1.5519 -0.4049  2.6196
15979TIP3    H269429   6.072   6.672   1.913  3.0032  2.6113 -0.5513
15980TIP3   OH269430   3.406   0.954  13.594 -0.3495 -0.1902  0.3053
15980TIP3    H169431   3.423   0.870  13.550 -0.8550  0.3063 -0.8924
15980TIP3    H269432   3.492   0.996  13.600 -0.2780 -0.2265 -0.3252
15981TIP3   OH269433   2.830   5.777   5.530 -0.7845 -0.0992  0.2617
15981TIP3    H169434   2.793   5.696   5.566  0.0181 -0.6035  0.0005
15981TIP3    H269435   2.924   5.761   5.528 -0.6286  0.7989  0.0761
15982TIP3   OH269436   5.336   2.453  11.657 -0.6636  0.0048 -0.5240
15982TIP3    H169437   5.355   2.480  11.747 -1.0377 -0.6111 -0.2587
15982TIP3    H269438   5.252   2.493  11.637 -0.2363  0.7576 -0.8684
15983TIP3   OH269439   2.947   2.900   0.380 -0.1096  0.2182 -0.3378
15983TIP3    H169440   2.864   2.941   0.356  0.3589 -0.2706 -3.0120
15983TIP3    H269441   3.013   2.967   0.360  0.2268  0.5079  1.5234
15984TIP3   OH269442   0.573   5.095  11.350 -0.2763 -0.2366  0.0759
15984TIP3    H169443   0.505   5.039  11.313  0.5754  0.0791 -2.1447
15984TIP3    H269444   0.638   5.104  11.280  2.5988 -1.3075  2.3736
15985TIP3   OH269445   1.341   1.351   0.022 -0.4248 -0.3045  0.1608
15985TIP3    H169446   1.320   1.444   0.027  1.3032  0.0505  3.0455
15985TIP3    H269447   1.260   1.306   0.048 -0.8339  0.4593  0.2161
15986TIP3   OH269448   2.158   1.098   5.199  0.5231  0.9784 -0.3862
15986TIP3    H169449   2.167   1.134   5.111  1.7707 -1.5449 -1.4054
15986TIP3    H269450   2.244   1.063   5.220 -0.0050  0.6734  1.4429
15987TIP3   OH269451   5.175   3.560   0.395  0.1273 -0.5166  0.4036
15987TIP3    H169452   5.222   3.636   0.429  0.3962 -0.1126 -0.8003
15987TIP3    H269453   5.083   3.586   0.394  0.3562  0.4486 -1.4751
15988TIP3   OH269454   4.507   2.808  14.220 -0.3462 -0.1056  0.9841
15988TIP3    H169455   4.436   2.751  14.191 -0.9864 -0.0290  2.3195
15988TIP3    H269456   4.584   2.751  14.225 -0.2174 -0.1292 -0.7484
15989TIP3   OH269457   2.551   1.229  16.097 -0.8161 -0.5104 -0.3727
15989TIP3    H169458   2.484   1.174  16.138 -0.7516 -1.5683 -1.6327
15989TIP3    H269459   2.562   1.192  16.010  1.3153 -0.2807 -0.2481
15990TIP3   OH269460   1.893   3.487   2.283  0.1275 -0.7726 -0.1748
15990TIP3    H169461   1.987   3.501   2.281  0.0839 -0.4892 -0.3821
15990TIP3    H269462   1.856   3.575   2.293 -0.0435 -1.0955  3.0500
15991TIP3   OH269463   5.751   4.819   3.456 -0.0986  0.1667  0.4783
15991TIP3    H169464   5.667   4.843   3.496 -0.1790  0.0364  0.3895
15991TIP3    H269465   5.766   4.886   3.390 -0.0623  0.2716  0.5919
15992TIP3   OH269466   2.543   5.140   0.791  0.3403 -0.1930  0.0598
15992TIP3    H169467   2.463   5.112   0.746 -0.9511  1.0153  1.4999
15992TIP3    H269468   2.579   5.210   0.736 -1.2402  1.2929  0.8155
15993TIP3   OH269469   5.891   3.564  11.282  0.4205 -0.2486 -0.1084
15993TIP3    H169470   5.943   3.575  11.362 -0.6480 -2.3143  0.9573
15993TIP3    H269471   5.887   3.470  11.269 -1.7023 -0.0836 -1.0452
15994TIP3   OH269472   1.399   0.448  17.132 -0.4856 -0.2588  0.4987
15994TIP3    H169473   1.421   0.503  17.057 -0.4081  1.9557  2.0411
15994TIP3    H269474   1.463   0.377  17.129  1.1109  1.1292 -0.1621
15995TIP3   OH269475   2.362   1.063  13.665  0.3005  0.0808  0.5899
15995TIP3    H169476   2.386   1.153  13.644  1.3107 -0.4033 -0.4474
15995TIP3    H269477   2.341   1.024  13.580  0.3611 -0.7992  0.9690
15996TIP3   OH269478   5.072   0.333  12.828  0.2216  0.3287 -0.4249
15996TIP3    H169479   4.996   0.391  12.830  0.1141  0.3209 -2.5488
15996TIP3    H269480   5.045   0.259  12.773  0.7739 -1.1923  1.2313
15997TIP3   OH269481   5.882   5.976  16.860 -0.5746  0.0318 -0.1125
15997TIP3    H169482   5.840   6.021  16.786 -1.7654 -1.6137 -0.5094
15997TIP3    H269483   5.893   5.886  16.829  0.6933 -0.2289  1.0459
15998TIP3   OH269484   4.117   2.867  10.819 -0.0123 -0.1225 -0.1156
15998TIP3    H169485   4.128   2.960  10.842 -0.8794  0.2174 -1.0161
15998TIP3    H269486   4.050   2.835  10.880 -0.4972  0.1293 -0.5114
15999TIP3   OH269487   1.759   0.785   0.141 -0.8265 -0.5419  0.2000
15999TIP3    H169488   1.792   0.786   0.230 -0.9927 -1.9973  0.2995
15999TIP3    H269489   1.720   0.872   0.129  2.1987  0.9436  0.3507
16000TIP3   OH269490   6.328   1.329  11.063  0.3962  0.6105 -0.7340
16000TIP3    H169491   6.239   1.303  11.088  0.8833 -0.5459 -0.1443
16000TIP3    H269492   6.322   1.345  10.968 -0.3009 -0.1130 -0.8261
16001TIP3   OH269493   1.638   2.090   2.444 -0.2716  0.6953 -0.2589
16001TIP3    H169494   1.675   2.011   2.483 -0.6941  1.7484  2.5282
16001TIP3    H269495   1.547   2.068   2.426 -0.4011  0.5206  0.5508
16002TIP3   OH269496   0.542   6.451   5.427  0.2767 -0.1099  0.3139
16002TIP3    H169497   0.504   6.499   5.354  1.9523  0.9437  0.0847
16002TIP3    H269498   0.500   6.365   5.423 -1.9923  0.9448  0.0826
16003TIP3   OH269499   2.975   1.337   2.703  0.3031 -0.9324  0.0906
16003TIP3    H169500   2.937   1.298   2.624 -1.7401 -1.4102  1.2183
16003TIP3    H269501   2.968   1.267   2.769 -0.2333  0.1990  1.2765
16004TIP3   OH269502   4.692   0.869   4.486 -0.2802  0.0163 -0.2906
16004TIP3    H169503   4.740   0.791   4.457  0.1380  0.5550 -1.0909
16004TIP3    H269504   4.669   0.914   4.405 -1.1126  0.3843  0.1423
16005TIP3   OH269505   6.587   3.530   6.023  0.4069  0.1793  0.1761
16005TIP3    H169506   6.634   3.611   6.042  3.5166 -1.4562  0.0285
16005TIP3    H269507   6.612   3.507   5.933 -1.5004 -0.2915 -0.2838
16006TIP3   OH269508   2.510   0.902  13.096  0.4822 -0.3885  0.2056
16006TIP3    H169509   2.484   0.994  13.088  2.6642  0.2580 -0.3251
16006TIP3    H269510   2.559   0.898  13.178  0.9363 -0.9098 -0.0787
16007TIP3   OH269511   0.591   4.490  12.386  0.3566 -0.2923  0.3998
16007TIP3    H169512   0.496   4.487  12.372  0.3882 -0.3061  0.1844
16007TIP3    H269513   0.608   4.580  12.415  0.4321  0.0775 -0.7362
16008TIP3   OH269514   1.364   3.694  15.361  0.0942 -0.3372 -0.6777
16008TIP3    H169515   1.369   3.746  15.281 -0.7959  1.0381  0.1337
16008TIP3    H269516   1.422   3.739  15.422  1.0514 -1.5860 -0.6222
16009TIP3   OH269517   2.778   1.434   5.194 -0.4444  0.5390 -0.7346
16009TIP3    H169518   2.730   1.446   5.111 -3.3166  0.5141  0.7853
16009TIP3    H269519   2.833   1.512   5.201  1.0508 -0.1613 -3.3130
16010TIP3   OH269520   4.786   4.009   3.877 -0.3890  0.0177  0.3339
16010TIP3    H169521   4.831   4.070   3.935 -0.9261 -0.0048  0.7787
16010TIP3    H269522   4.729   3.958   3.934 -1.2567  0.2944 -0.2584
16011TIP3   OH269523   1.097   2.799   0.130 -0.2503 -0.2706  0.7575
16011TIP3    H169524   1.044   2.768   0.204 -1.6051 -2.6721 -1.0616
16011TIP3    H269525   1.050   2.875   0.097 -2.0346 -1.6594 -0.0886
16012TIP3   OH269526   3.377   3.908   2.481 -0.5076  0.1924  0.4012
16012TIP3    H169527   3.348   3.996   2.459 -0.0222  0.8409  2.1679
16012TIP3    H269528   3.428   3.919   2.561  1.1043 -1.4665 -0.3265
16013TIP3   OH269529   2.318   3.519   0.887  0.2502  0.0582  0.0324
16013TIP3    H169530   2.262   3.453   0.928  0.1355 -0.3452 -0.7517
16013TIP3    H269531   2.313   3.500   0.793  0.5663  0.9092 -0.1704
16014TIP3   OH269532   4.327   5.485  16.645 -0.0309  0.0120 -0.6125
16014TIP3    H169533   4.418   5.470  16.619 -0.3537 -1.6653 -0.9026
16014TIP3    H269534   4.301   5.564  16.598  1.8400  1.7038  0.9939
16015TIP3   OH269535   3.251   6.421  11.669 -0.1476 -0.2376  0.0643
16015TIP3    H169536   3.274   6.329  11.672  0.5481 -0.1290 -1.3820
16015TIP3    H269537   3.227   6.437  11.578  1.3122  1.3678 -0.0932
16016TIP3   OH269538   4.597   4.463  11.962  0.4495 -0.7206  0.4247
16016TIP3    H169539   4.517   4.414  11.941  0.6389 -1.7194  1.8947
16016TIP3    H269540   4.663   4.396  11.976  1.3079  0.0658  0.2606
16017TIP3   OH269541   4.571   2.691  16.929  0.6087 -0.0285  0.3565
16017TIP3    H169542   4.666   2.684  16.925  0.6811  0.9627 -2.7001
16017TIP3    H269543   4.540   2.601  16.918  1.2941 -0.0905 -1.5773
16018TIP3   OH269544   2.865   6.412   5.349 -0.4756  0.5634  0.2232
16018TIP3    H169545   2.902   6.490   5.307 -0.1473  1.0376  1.3425
16018TIP3    H269546   2.941   6.358   5.370 -0.7153 -0.1754 -0.7282
16019TIP3   OH269547   2.753   0.805  13.726  0.3847  0.9519  0.8594
16019TIP3    H169548   2.667   0.784  13.690  0.2016  0.9599  1.2928
16019TIP3    H269549   2.744   0.894  13.760  0.5015  0.8716  1.1001
16020TIP3   OH269550   3.155   4.871  14.388  0.1648 -0.3745 -0.0184
16020TIP3    H169551   3.211   4.851  14.463 -0.1004  1.0931  0.6154
16020TIP3    H269552   3.164   4.966  14.377 -1.6630 -0.2091 -0.3286
16021TIP3   OH269553   2.383   1.416  16.541  0.5091 -0.1483 -0.2789
16021TIP3    H169554   2.409   1.502  16.507 -0.1734  1.0954  2.0651
16021TIP3    H269555   2.302   1.394  16.495 -0.0798  1.1748  0.0904
16022TIP3   OH269556   1.045   3.020   2.470  0.6988 -0.3875 -0.2352
16022TIP3    H169557   1.110   2.975   2.525  0.1615  0.1651  0.8776
16022TIP3    H269558   0.982   2.952   2.448  1.4077 -0.8299 -0.9620
16023TIP3   OH269559   5.059   5.645  14.279  0.0875 -0.0857 -0.1878
16023TIP3    H169560   5.036   5.639  14.372  2.8977 -1.5377  0.5187
16023TIP3    H269561   5.144   5.689  14.279 -0.4484  1.0369 -2.2207
16024TIP3   OH269562   3.307   2.582   3.228  0.2253  0.1112 -0.2939
16024TIP3    H169563   3.217   2.581   3.261  0.6268 -0.0912  0.8701
16024TIP3    H269564   3.340   2.668   3.254 -0.0935  0.8314 -2.1185
16025TIP3   OH269565   3.428   2.564  16.898  0.1582  0.1328  0.4339
16025TIP3    H169566   3.388   2.613  16.826  0.4829 -0.0151  0.1507
16025TIP3    H269567   3.427   2.626  16.972 -0.5613  0.1396  0.4303
16026TIP3   OH269568   5.574   4.309   5.651  0.1916  0.0931 -0.3507
16026TIP3    H169569   5.628   4.337   5.576  0.1714  0.8526 -0.0957
16026TIP3    H269570   5.563   4.389   5.703 -1.1625 -0.0471 -0.3834
16027TIP3   OH269571   1.228   3.750   1.446 -0.3841 -0.1456 -0.6437
16027TIP3    H169572   1.211   3.829   1.395  1.7260 -0.2643 -1.6007
16027TIP3    H269573   1.321   3.754   1.467 -0.3445 -2.1367 -0.2525
16028TIP3   OH269574   4.668   2.348   4.804  0.0284 -0.2616  0.1137
16028TIP3    H169575   4.749   2.395   4.782  0.2859  0.2799  1.9936
16028TIP3    H269576   4.697   2.278   4.863 -0.8762  0.1107  1.0331
16029TIP3   OH269577   4.996   1.051  14.270 -1.0617  0.2091  0.4005
16029TIP3    H169578   4.994   1.134  14.317 -1.4597 -0.2419  1.1997
16029TIP3    H269579   5.084   1.016  14.286 -0.6073  0.8241 -0.5976
16030TIP3   OH269580   0.325   0.600  10.822  0.1021  0.3173  0.1774
16030TIP3    H169581   0.319   0.534  10.752 -1.2344  1.1151 -0.5123
16030TIP3    H269582   0.352   0.551  10.899  1.0380 -0.6933 -0.7609
16031TIP3   OH269583   3.643   0.740   2.229  0.2550 -0.6754  0.1022
16031TIP3    H169584   3.632   0.680   2.302  0.6823  0.3616  1.0460
16031TIP3    H269585   3.641   0.827   2.268  0.0018 -0.0712 -1.1822
16032TIP3   OH269586   1.931   3.624  15.848 -0.2839  0.3750  0.3471
16032TIP3    H169587   2.000   3.610  15.913  1.3202  0.8609 -1.1908
16032TIP3    H269588   1.876   3.546  15.855  0.3569  0.0076  1.6539
16033TIP3   OH269589   4.123   6.588  12.732 -0.2280  0.4630  0.5512
16033TIP3    H169590   4.188   6.658  12.728 -1.0563  1.1910 -0.7197
16033TIP3    H269591   4.143   6.542  12.813  0.1983  2.3052  1.5500
16034TIP3   OH269592   2.477   6.302  15.080  0.2659 -0.3889  0.3392
16034TIP3    H169593   2.512   6.239  15.016  0.1097 -0.0983 -0.0313
16034TIP3    H269594   2.482   6.255  15.164  0.3359 -0.8258  0.0966
16035TIP3   OH269595   0.372   0.308  13.115  0.2996 -0.1651 -0.4814
16035TIP3    H169596   0.375   0.404  13.108 -0.4113  0.0965  1.9221
16035TIP3    H269597   0.431   0.288  13.188  0.0378 -1.5139 -0.6211
16036TIP3   OH269598   2.315   0.353  13.362 -0.9660  0.2414  0.1017
16036TIP3    H169599   2.289   0.264  13.386  0.5524 -0.6597 -1.3673
16036TIP3    H269600   2.341   0.346  13.270  0.5855  1.8772  0.3661
16037TIP3   OH269601   5.899   2.905   1.318 -0.6079  0.0691 -0.0750
16037TIP3    H169602   5.902   2.895   1.413 -2.2321  0.1401  0.0269
16037TIP3    H269603   5.818   2.953   1.302 -0.7490 -0.5842 -1.5378
16038TIP3   OH269604   4.523   0.750  14.976  0.2867  0.9241 -0.0032
16038TIP3    H169605   4.589   0.683  14.994 -0.5618 -0.0073 -0.2866
16038TIP3    H269606   4.478   0.761  15.060 -0.2509  0.3711 -0.2100
16039TIP3   OH269607   2.266   1.962  12.266  0.3601  0.4483 -0.6005
16039TIP3    H169608   2.350   1.947  12.310  0.2684  0.7895 -0.2929
16039TIP3    H269609   2.283   2.035  12.207  0.5424 -0.1663 -1.3133
16040TIP3   OH269610   3.677   6.421  15.327 -0.0219 -0.1339  0.4843
16040TIP3    H169611   3.613   6.378  15.383  0.6910 -0.5691  0.9837
16040TIP3    H269612   3.717   6.487  15.384 -1.3183  1.4510 -0.3553
16041TIP3   OH269613   0.779   1.034  15.685 -0.3163  0.2212  0.1167
16041TIP3    H169614   0.699   1.054  15.637 -0.5626  0.1366  0.4923
16041TIP3    H269615   0.825   0.971  15.630 -0.9020 -0.3682  0.2884
16042TIP3   OH269616   2.546   1.146  15.834 -0.4103 -0.2447  0.5688
16042TIP3    H169617   2.503   1.208  15.774  0.8364  0.5172  0.4207
16042TIP3    H269618   2.490   1.069  15.834  0.3133 -0.9325 -2.8443
16043TIP3   OH269619   1.825   1.015   4.459 -0.5041 -0.1208 -0.3407
16043TIP3    H169620   1.800   1.056   4.542 -0.1905  0.4608 -0.5272
16043TIP3    H269621   1.918   1.032   4.451 -0.6862  0.5714 -1.2087
16044TIP3   OH269622   2.958   2.122  14.087  0.5507 -0.1615  0.4269
16044TIP3    H169623   2.966   2.028  14.071 -0.3650 -0.5346  1.9717
16044TIP3    H269624   2.917   2.156  14.007 -1.6334 -1.5401  0.8649
16045TIP3   OH269625   2.735   4.494  15.969 -0.2802 -0.7264 -0.4782
16045TIP3    H169626   2.829   4.505  15.955  0.5151 -1.8631  2.9289
16045TIP3    H269627   2.707   4.434  15.900  1.1694  0.4956 -2.2345
16046TIP3   OH269628   6.478   5.913  16.534  0.4784 -0.5261  0.2693
16046TIP3    H169629   6.566   5.938  16.504  0.3824 -0.6673 -0.1227
16046TIP3    H269630   6.418   5.964  16.480  0.3217  0.3673  1.2317
16047TIP3   OH269631   2.432   6.446  14.813 -0.1983 -0.3546  0.1430
16047TIP3    H169632   2.441   6.421  14.904 -1.7264  1.3037  0.8221
16047TIP3    H269633   2.468   6.373  14.763 -0.7974 -2.0099  2.0330
16048TIP3   OH269634   1.610   6.483  14.545 -0.7295  0.4122 -0.3179
16048TIP3    H169635   1.625   6.442  14.460 -1.1087 -2.4140  0.8770
16048TIP3    H269636   1.692   6.470  14.593 -0.7618  1.3626  0.0179
16049TIP3   OH269637   0.828   1.369   4.216  0.0056  0.2903  0.1377
16049TIP3    H169638   0.922   1.381   4.229  0.0012  0.5485 -0.0642
16049TIP3    H269639   0.821   1.314   4.139 -0.0310  1.3259 -0.6151
16050TIP3   OH269640   5.820   6.789  11.258  0.1610 -0.2842  0.0072
16050TIP3    H169641   5.903   6.817  11.295  0.1110 -1.8417  1.3582
16050TIP3    H269642   5.838   6.779  11.164  1.0250  0.9869  0.0104
16051TIP3   OH269643   6.290   3.261   4.073  0.4186 -0.1933 -0.0962
16051TIP3    H169644   6.377   3.286   4.043  0.5403  0.1823  0.5673
16051TIP3    H269645   6.298   3.252   4.168 -0.2644 -0.1558 -0.0288
16052TIP3   OH269646   0.193   5.062   2.523  0.2067  0.5486 -0.0889
16052TIP3    H169647   0.125   5.115   2.563 -0.1661  0.3241 -0.4205
16052TIP3    H269648   0.176   4.973   2.553 -0.2585  0.3260 -0.9642
16053TIP3   OH269649   4.446   3.819   2.454 -0.0949  0.3837 -0.0437
16053TIP3    H169650   4.503   3.764   2.400  0.0597  0.1771  0.3266
16053TIP3    H269651   4.358   3.803   2.421 -0.3143 -1.6751  1.3943
16054TIP3   OH269652   5.228   1.502   3.078 -0.3937  0.6063  0.3490
16054TIP3    H169653   5.256   1.589   3.048  2.1917 -0.3752 -0.3460
16054TIP3    H269654   5.272   1.441   3.019 -1.8994 -1.2137  1.0177
16055TIP3   OH269655   1.438   1.065  14.057  0.2250  0.1630  0.3023
16055TIP3    H169656   1.489   1.128  14.107 -0.0091 -0.0110  0.7628
16055TIP3    H269657   1.459   0.980  14.095  0.9694 -0.1192 -0.6780
16056TIP3   OH269658   2.087   6.461  17.009  0.0778 -1.0557  0.1986
16056TIP3    H169659   2.166   6.422  17.045 -0.7669 -1.7029  1.4113
16056TIP3    H269660   2.089   6.552  17.038  1.1149 -0.6427 -1.0657
16057TIP3   OH269661   6.092   4.423  13.743 -0.2379  0.4400 -0.4420
16057TIP3    H169662   6.034   4.351  13.718  0.2305 -0.4233  0.8567
16057TIP3    H269663   6.176   4.380  13.759 -0.1299  1.1629  1.0330
16058TIP3   OH269664   6.456   5.515  14.707  0.6075 -0.3213 -0.1463
16058TIP3    H169665   6.395   5.448  14.676  0.7155 -0.5506  0.1354
16058TIP3    H269666   6.543   5.476  14.693  0.6756 -0.1863 -0.1047
16059TIP3   OH269667   5.903   4.074   0.845 -0.4271  0.0705 -0.3046
16059TIP3    H169668   5.809   4.089   0.846 -0.4567  0.3449  2.5647
16059TIP3    H269669   5.913   3.984   0.877  0.2810  0.4498  0.5943
16060TIP3   OH269670   2.621   5.671  11.139  0.4284 -0.2534  0.5067
16060TIP3    H169671   2.593   5.644  11.051  1.7424  1.2049 -0.3982
16060TIP3    H269672   2.669   5.595  11.173 -1.0914 -1.2812  0.4879
16061TIP3   OH269673   1.080   1.055  15.149  0.1021  0.1811  0.4126
16061TIP3    H169674   1.070   0.991  15.221 -0.4935 -0.3590 -0.1376
16061TIP3    H269675   0.991   1.070  15.118  0.3008  0.8565  0.1529
16062TIP3   OH269676   1.734   5.007   0.613  0.1579 -0.3587  0.2992
16062TIP3    H169677   1.717   5.001   0.519 -1.2453  4.6135 -0.0158
16062TIP3    H269678   1.829   5.018   0.620  0.0640  1.5728 -0.8441
16063TIP3   OH269679   0.474   1.086   4.735 -0.5024  0.2197  0.2775
16063TIP3    H169680   0.569   1.085   4.746 -0.5831  0.0488  1.0801
16063TIP3    H269681   0.449   1.176   4.753 -0.5820  0.0502  1.0813
16064TIP3   OH269682   4.220   4.001  14.706 -0.2555  0.3043  0.2174
16064TIP3    H169683   4.133   4.006  14.668 -0.0973 -0.7343 -0.3246
16064TIP3    H269684   4.277   4.043  14.641 -0.3703  1.1326  0.6482
16065TIP3   OH269685   4.063   1.878  11.369  0.0059  0.1232  0.0333
16065TIP3    H169686   4.077   1.971  11.381  0.5594 -0.1325  1.5112
16065TIP3    H269687   3.995   1.873  11.301  0.0763  1.5779 -0.1774
16066TIP3   OH269688   0.616   2.454  13.311  0.0936 -0.0615 -0.4539
16066TIP3    H169689   0.553   2.407  13.256 -1.8601  1.6986  0.1271
16066TIP3    H269690   0.646   2.526  13.256 -0.9877  1.0326  0.3372
16067TIP3   OH269691   2.943   0.340  12.820 -0.1605  0.1905 -0.3656
16067TIP3    H169692   2.900   0.256  12.836  1.1769 -0.3351  0.6742
16067TIP3    H269693   2.927   0.390  12.900  2.1449 -0.4942  0.6168
16068TIP3   OH269694   5.281   1.974  12.905 -0.0366 -0.2890 -0.5595
16068TIP3    H169695   5.257   2.058  12.867 -1.0674  0.0676  0.8326
16068TIP3    H269696   5.352   1.942  12.849 -0.5254  0.8704 -1.9025
16069TIP3   OH269697   3.518   5.861  11.805  0.3681 -0.3390  0.2810
16069TIP3    H169698   3.516   5.955  11.824 -0.6555  0.0561 -1.5556
16069TIP3    H269699   3.591   5.851  11.743  0.5403 -0.7766  0.5495
16070TIP3   OH269700   2.848   5.217   4.008 -0.0662 -0.1551 -0.1639
16070TIP3    H169701   2.843   5.129   4.046 -0.2568 -1.0522 -2.1537
16070TIP3    H269702   2.861   5.275   4.083  0.3044 -1.8986  1.1781
16071TIP3   OH269703   4.282   6.263  14.205  0.1775 -0.0572 -0.2820
16071TIP3    H169704   4.332   6.333  14.246 -0.9774  0.6893 -0.0872
16071TIP3    H269705   4.340   6.227  14.138  1.9374 -1.0090  1.6730
16072TIP3   OH269706   0.603   3.926   3.427 -0.2718 -0.0883 -0.3289
16072TIP3    H169707   0.533   3.864   3.407  0.3037 -1.0699  0.6142
16072TIP3    H269708   0.634   3.900   3.514  0.0286  1.4855  0.0587
16073TIP3   OH269709   5.294   1.948  14.897  0.0019  0.3343  0.3466
16073TIP3    H169710   5.291   2.020  14.959 -3.0709  1.5788 -1.0394
16073TIP3    H269711   5.238   1.880  14.934  0.3005 -0.0210  0.1608
16074TIP3   OH269712   0.287   3.092  11.210  0.4884 -0.1769 -0.2126
16074TIP3    H169713   0.288   3.188  11.205 -0.6561 -0.2038 -1.5181
16074TIP3    H269714   0.319   3.073  11.298  0.0884  1.4279  0.3209
16075TIP3   OH269715   1.807   2.077   3.027 -0.3545  0.1464 -0.1981
16075TIP3    H169716   1.784   2.155   2.977 -0.9502 -1.2972 -2.2908
16075TIP3    H269717   1.725   2.049   3.068 -0.2572  0.2911  0.1011
16076TIP3   OH269718   1.810   3.421   5.911  0.2494  0.1459  0.2364
16076TIP3    H169719   1.776   3.402   5.999 -0.9763  1.0828 -0.0064
16076TIP3    H269720   1.893   3.465   5.927  0.5721 -0.6794  0.8946
16077TIP3   OH269721   1.647   4.793   5.103 -1.2224  0.3550 -0.2722
16077TIP3    H169722   1.718   4.729   5.105 -1.5355  0.0096 -0.0299
16077TIP3    H269723   1.599   4.773   5.023 -1.1634  0.4567 -0.3323
16078TIP3   OH269724   0.629   4.561   5.494 -0.4714 -0.4322  0.7956
16078TIP3    H169725   0.667   4.558   5.581 -0.7097  1.1298  0.9829
16078TIP3    H269726   0.548   4.510   5.501  0.3900 -1.8070  0.9994
16079TIP3   OH269727   2.286   0.218   4.164  0.0290  0.0489 -0.1131
16079TIP3    H169728   2.193   0.218   4.188 -0.0660  0.5895 -0.4662
16079TIP3    H269729   2.306   0.309   4.143  0.1813 -0.3237 -1.7562
16080TIP3   OH269730   0.090   2.604   4.364  0.4628  0.3540  0.5355
16080TIP3    H169731   0.067   2.622   4.455  0.6965 -0.0523  0.6767
16080TIP3    H269732   0.133   2.519   4.366 -0.7716 -0.3186 -0.1470
16081TIP3   OH269733   3.140   2.928  16.910  0.5375 -0.0852 -0.0664
16081TIP3    H169734   3.050   2.958  16.920  0.7426  0.1578  1.0957
16081TIP3    H269735   3.161   2.948  16.818 -0.6653 -0.3861 -0.4273
16082TIP3   OH269736   5.082   5.020   2.839  1.1615  0.5204  0.1866
16082TIP3    H169737   5.088   5.036   2.745 -1.2456  0.2211 -0.0911
16082TIP3    H269738   5.058   5.105   2.876 -0.2222  0.1506  0.1933
16083TIP3   OH269739   6.053   3.239  11.988  0.4840  0.7234  0.2954
16083TIP3    H169740   5.978   3.272  11.938 -0.3762  1.2386  1.8485
16083TIP3    H269741   6.054   3.293  12.067  1.5522 -0.3253  1.0183
16084TIP3   OH269742   3.016   2.969   2.587  0.5799  0.2315 -0.2868
16084TIP3    H169743   2.957   2.973   2.662  0.6963  1.3985 -0.2536
16084TIP3    H269744   3.036   3.060   2.566 -0.1875 -0.0057 -2.3218
16085TIP3   OH269745   4.510   4.047  15.085 -0.2244 -0.6159 -0.0403
16085TIP3    H169746   4.486   4.047  14.992  0.7061 -0.7440 -0.2874
16085TIP3    H269747   4.486   4.135  15.116  0.7638 -0.0745 -0.7554
16086TIP3   OH269748   0.350   3.013   1.416  0.0828 -0.3717 -0.1054
16086TIP3    H169749   0.290   2.966   1.474  0.2554  0.9232  1.1917
16086TIP3    H269750   0.375   3.091   1.466  1.2292  0.1627 -1.4462
16087TIP3   OH269751   5.547   6.292  14.154  0.2487 -0.3532  1.1501
16087TIP3    H169752   5.550   6.354  14.227 -0.9084  1.9300 -0.6309
16087TIP3    H269753   5.637   6.291  14.120 -0.2439  2.7359 -0.5769
16088TIP3   OH269754   2.260   0.276   5.649 -0.0926  0.1817  0.2090
16088TIP3    H169755   2.240   0.248   5.559  0.1984 -1.3232  0.5865
16088TIP3    H269756   2.355   0.271   5.656 -0.2389 -2.6422  1.4426
16089TIP3   OH269757   4.714   5.154  13.621  0.0711 -0.3283  0.0507
16089TIP3    H169758   4.660   5.226  13.654  1.5125  0.8627 -0.0815
16089TIP3    H269759   4.661   5.116  13.551 -0.8348  0.4487  0.2794
16090TIP3   OH269760   1.928   5.759  15.877  0.1726  0.0644 -0.6717
16090TIP3    H169761   2.011   5.798  15.903 -0.8150  1.5147  0.4349
16090TIP3    H269762   1.915   5.789  15.787  0.6057  0.2632 -0.6697
16091TIP3   OH269763   5.762   5.319   1.855  0.5675  0.0229 -0.1583
16091TIP3    H169764   5.729   5.259   1.923  0.1986 -2.5348 -2.4015
16091TIP3    H269765   5.698   5.311   1.784  1.2669  2.1116 -1.0886
16092TIP3   OH269766   3.119   5.771   0.203 -0.2681  0.1597  0.4093
16092TIP3    H169767   3.091   5.803   0.118 -0.1592 -0.5298  0.1070
16092TIP3    H269768   3.198   5.821   0.223  0.4524 -0.5844 -0.5025
16093TIP3   OH269769   0.034   2.036  16.131  0.2558  0.1961 -0.4080
16093TIP3    H169770  -0.023   2.070  16.199  0.5797 -2.0664  1.0928
16093TIP3    H269771   0.093   1.976  16.176  1.2262 -0.5580 -2.5210
16094TIP3   OH269772   3.543   6.681   2.326  0.0659 -0.0960  0.4310
16094TIP3    H169773   3.524   6.596   2.286  0.0578  0.4686 -0.8118
16094TIP3    H269774   3.582   6.659   2.411  1.0682 -1.3566 -0.3145
16095TIP3   OH269775   6.071   1.452  13.602 -0.7781 -0.2331 -0.1616
16095TIP3    H169776   6.023   1.533  13.618 -1.6042 -1.0474  1.8585
16095TIP3    H269777   6.046   1.426  13.513 -1.8154  0.8526 -0.2087
16096TIP3   OH269778   3.827   0.072   0.145 -0.2373 -0.1034 -0.2223
16096TIP3    H169779   3.826   0.168   0.147 -1.0210 -0.1100  1.2339
16096TIP3    H269780   3.750   0.049   0.093 -1.4249  0.0868  1.3602
16097TIP3   OH269781   6.005   0.199  13.832 -0.6283 -0.3049  0.5522
16097TIP3    H169782   6.002   0.295  13.828 -0.3208 -0.3001  0.4157
16097TIP3    H269783   6.062   0.174  13.760 -1.9369 -0.6753 -0.3920
16098TIP3   OH269784   3.912   6.071  11.818  0.2368  0.2166  0.4205
16098TIP3    H169785   3.855   6.076  11.740  0.9506 -0.5976 -0.1667
16098TIP3    H269786   3.945   6.161  11.828 -0.0788  0.3947 -0.0498
16099TIP3   OH269787   5.307   3.096   5.632  0.1606  0.1097  0.3217
16099TIP3    H169788   5.261   3.170   5.671  0.0876 -0.8157  2.1059
16099TIP3    H269789   5.237   3.034   5.607  0.3201 -0.6534  1.6694
16100TIP3   OH269790   0.719   3.170   0.797  0.3516  0.2471  0.4064
16100TIP3    H169791   0.814   3.155   0.800  0.3899  0.1374 -0.8044
16100TIP3    H269792   0.685   3.097   0.746 -0.2657  0.8074  0.0057
16101TIP3   OH269793   4.607   1.905  13.012 -0.2629 -0.7195  0.3622
16101TIP3    H169794   4.590   1.852  12.934  1.6167  0.2238 -0.7513
16101TIP3    H269795   4.647   1.985  12.979  0.6076 -0.2987  2.2917
16102TIP3   OH269796   0.932   1.329   2.608 -0.2401 -0.2278  0.0488
16102TIP3    H169797   0.897   1.251   2.652  0.0711 -0.6926 -0.5018
16102TIP3    H269798   1.026   1.310   2.600  0.6490  1.9167  3.4734
16103TIP3   OH269799   6.356   0.558   3.235 -0.8225 -0.5996  0.1099
16103TIP3    H169800   6.431   0.539   3.291 -0.3635  0.5698 -0.0754
16103TIP3    H269801   6.294   0.487   3.253  0.1549 -1.3674  0.5573
16104TIP3   OH269802   5.817   0.428   3.477 -0.3746 -0.3687 -0.0915
16104TIP3    H169803   5.756   0.495   3.508 -0.9228 -0.1169 -1.6582
16104TIP3    H269804   5.832   0.449   3.385  0.8087 -1.3964 -0.1590
16105TIP3   OH269805   3.663   6.578   0.088  1.1827  0.1498  0.7925
16105TIP3    H169806   3.622   6.496   0.117  0.8238  0.1110  0.1874
16105TIP3    H269807   3.684   6.563  -0.004 -1.8310  1.8250 -0.3121
16106TIP3   OH269808   2.767   0.917   1.823  0.2776  0.1611 -0.0780
16106TIP3    H169809   2.734   0.827   1.824  1.1007 -0.1707  2.1782
16106TIP3    H269810   2.860   0.908   1.841  0.2933  1.4925  0.5828
16107TIP3   OH269811   2.178   1.234  13.439 -0.0384  0.1802 -0.2937
16107TIP3    H169812   2.193   1.142  13.417  1.8219  0.6307 -1.1083
16107TIP3    H269813   2.151   1.275  13.357 -1.4015  0.2989  0.1791
16108TIP3   OH269814   0.411   3.489   2.401  0.2130 -0.1514  0.5307
16108TIP3    H169815   0.376   3.458   2.317  0.7813 -0.8787  0.5593
16108TIP3    H269816   0.336   3.531   2.444 -0.1875 -0.1561 -0.1515
16109TIP3   OH269817   6.752   4.006   4.451  0.8507  0.3721 -0.6877
16109TIP3    H169818   6.847   3.997   4.451  0.8005 -0.2608 -1.0074
16109TIP3    H269819   6.733   4.063   4.376  1.0233  1.1549 -0.1452
16110TIP3   OH269820   1.376   3.161  14.265 -0.3949  0.1691 -0.1399
16110TIP3    H169821   1.340   3.110  14.338  2.2421  0.2238  1.3048
16110TIP3    H269822   1.433   3.100  14.218  1.3498  1.2312  0.5096
16111TIP3   OH269823   2.852   5.606  15.450 -0.5591  0.6212 -0.1089
16111TIP3    H169824   2.867   5.514  15.428  1.3172  0.2578  2.2627
16111TIP3    H269825   2.793   5.604  15.526 -0.4150  1.3724  0.0352
16112TIP3   OH269826   2.227   2.161  17.178 -0.5689  0.3210 -0.2195
16112TIP3    H169827   2.300   2.155  17.116 -0.6300  0.3252 -0.2912
16112TIP3    H269828   2.169   2.090  17.153 -0.8185  0.6039 -0.4573
16113TIP3   OH269829   1.841   4.702  11.594  0.6702 -0.1973  0.3644
16113TIP3    H169830   1.814   4.611  11.607  1.4453 -0.4192  0.4267
16113TIP3    H269831   1.935   4.702  11.608  0.5229  0.8395  1.6608
16114TIP3   OH269832   4.283   2.214  11.776  0.0316 -0.2617 -0.1924
16114TIP3    H169833   4.326   2.149  11.832  0.1915  0.4953  0.5761
16114TIP3    H269834   4.346   2.285  11.770 -1.5361  1.4186  1.9398
16115TIP3   OH269835   1.759   5.420   4.507 -0.0621 -0.2330 -0.7639
16115TIP3    H169836   1.727   5.492   4.562  0.7605 -0.1938 -0.3253
16115TIP3    H269837   1.683   5.394   4.455 -0.4370  0.7943 -0.7517
16116TIP3   OH269838   3.221   2.272  13.372 -0.1066  0.0395  0.4593
16116TIP3    H169839   3.223   2.272  13.467 -1.3556 -0.5645  0.5076
16116TIP3    H269840   3.129   2.282  13.350  0.2782  1.2536 -0.7052
16117TIP3   OH269841   0.242   4.807   5.682  0.0685 -0.4086  0.4650
16117TIP3    H169842   0.256   4.849   5.767 -0.8726  0.5758  0.1532
16117TIP3    H269843   0.328   4.812   5.639  0.7598 -1.6351  1.6418
16118TIP3   OH269844   0.920   5.846  13.802 -0.3309  0.4495  0.4840
16118TIP3    H169845   0.990   5.877  13.745 -0.9537  2.1570  0.5910
16118TIP3    H269846   0.845   5.901  13.780 -1.0449  0.0687  1.8314
16119TIP3   OH269847   2.655   5.670  13.239 -0.1861  0.3785  0.6007
16119TIP3    H169848   2.651   5.740  13.173 -3.1017  1.2245  1.5143
16119TIP3    H269849   2.578   5.617  13.222 -0.3043 -0.1369  2.5365
16120TIP3   OH269850   2.070   4.175   6.125  0.3418 -0.3888  0.0426
16120TIP3    H169851   2.129   4.242   6.160 -0.3841  0.4081 -0.2461
16120TIP3    H269852   2.059   4.197   6.033  0.4817 -1.2006 -0.1807
16121TIP3   OH269853   4.982   6.099   5.551  0.3975  0.0380 -0.2153
16121TIP3    H169854   4.918   6.027   5.544  2.3316 -1.8763  0.5228
16121TIP3    H269855   4.960   6.158   5.479 -0.4092 -2.0492 -1.7930
16122TIP3   OH269856   3.260   5.496   1.140  0.3288  0.1289  0.4734
16122TIP3    H169857   3.255   5.437   1.215 -0.1287  1.1148  1.2306
16122TIP3    H269858   3.353   5.519   1.133 -0.0065  2.6446  2.8358
16123TIP3   OH269859   4.509   4.538   1.666 -0.3295  0.3053  0.3159
16123TIP3    H169860   4.565   4.614   1.682  0.9953 -0.6011  0.2318
16123TIP3    H269861   4.516   4.522   1.572 -1.6096  0.8183  0.1258
16124TIP3   OH269862   5.421   1.679  13.513 -0.2674  0.0048 -0.7001
16124TIP3    H169863   5.366   1.604  13.535 -0.1392 -0.0198 -0.4668
16124TIP3    H269864   5.358   1.749  13.492 -0.4235  0.4188  1.0142
16125TIP3   OH269865   2.279   2.563  13.901  0.4627 -0.2363  0.2698
16125TIP3    H169866   2.313   2.642  13.860 -2.8335  0.8336 -0.7263
16125TIP3    H269867   2.255   2.506  13.827  0.1500 -0.9647  0.9142
16126TIP3   OH269868   1.079   2.449  17.040 -0.2986 -0.2482 -0.7160
16126TIP3    H169869   1.152   2.497  17.079 -1.9873  1.5570  0.4036
16126TIP3    H269870   1.084   2.469  16.947  0.3739  0.2108 -0.5890
16127TIP3   OH269871   0.118   1.476  15.760  0.0244  0.1196 -0.2235
16127TIP3    H169872   0.196   1.530  15.774 -0.6785  0.9489  0.6179
16127TIP3    H269873   0.110   1.469  15.665  1.7087 -0.8570 -0.3207
16128TIP3   OH269874   1.140   4.422  15.813  0.4339 -0.1932  0.3853
16128TIP3    H169875   1.139   4.502  15.865  0.0786  0.1310 -0.1105
16128TIP3    H269876   1.086   4.360  15.863 -0.2550  0.2509  0.2126
16129TIP3   OH269877   0.934   6.714  11.404 -0.2446  0.2869  0.0534
16129TIP3    H169878   1.015   6.748  11.367 -1.1878 -0.2441 -2.7191
16129TIP3    H269879   0.962   6.664  11.480  1.9891  0.3856 -0.6284
16130TIP3   OH269880   3.897   1.535  15.445 -0.1375  0.2594  0.0257
16130TIP3    H169881   3.934   1.544  15.533  3.6128  0.6847 -1.4105
16130TIP3    H269882   3.838   1.610  15.436 -1.6091 -0.4698  2.5001
16131TIP3   OH269883   2.853   5.320  14.491 -0.2964 -0.0334  0.1547
16131TIP3    H169884   2.859   5.229  14.521  1.5200  0.0871  0.2682
16131TIP3    H269885   2.851   5.371  14.572  3.1363  0.2075  0.2462
16132TIP3   OH269886   1.890   1.586  14.678 -0.0418 -0.3145 -0.3214
16132TIP3    H169887   1.812   1.638  14.659 -0.0636 -0.5082 -0.7760
16132TIP3    H269888   1.899   1.590  14.773 -1.0024 -0.8703 -0.1970
16133TIP3   OH269889   1.898   3.369  12.716  0.0433 -0.9990 -0.0057
16133TIP3    H169890   1.857   3.434  12.774  0.1687 -1.6046  0.7774
16133TIP3    H269891   1.867   3.392  12.628 -0.2528 -0.1427  0.3136
16134TIP3   OH269892   1.882   2.367  14.765 -0.3355 -0.6338  0.3569
16134TIP3    H169893   1.825   2.362  14.842  1.1009  0.2279  1.5319
16134TIP3    H269894   1.934   2.287  14.768 -1.3131 -1.3287 -0.6079
16135TIP3   OH269895   6.020   1.040  12.777  0.7848  0.2849 -0.2914
16135TIP3    H169896   6.047   1.042  12.869 -0.3460  0.7078  0.0482
16135TIP3    H269897   5.926   1.059  12.779 -0.1908 -3.5375 -1.1732
16136TIP3   OH269898   1.003   6.666   4.468 -0.4191 -0.3539 -0.5232
16136TIP3    H169899   0.967   6.720   4.397 -1.5708 -1.1194 -0.5439
16136TIP3    H269900   0.936   6.600   4.485  1.0068 -1.8847 -0.5899
16137TIP3   OH269901   3.423   4.305   5.882  0.3970  0.0766  0.2083
16137TIP3    H169902   3.488   4.334   5.818 -0.0826  1.6153  0.3726
16137TIP3    H269903   3.402   4.384   5.933 -0.8898 -0.5963  0.7859
16138TIP3   OH269904   4.006   6.451   0.766  0.2944 -0.0891 -0.1270
16138TIP3    H169905   4.047   6.403   0.694 -0.1007 -0.0111 -0.4085
16138TIP3    H269906   3.927   6.401   0.785 -0.3706  0.6989 -0.7392
16139TIP3   OH269907   5.034   3.987  12.090 -0.8836 -0.4234 -0.0756
16139TIP3    H169908   5.047   4.015  12.000  1.9977 -1.9009 -0.2146
16139TIP3    H269909   5.025   4.069  12.139 -0.5870  0.4642 -1.4407
16140TIP3   OH269910   2.926   5.294  11.134 -0.6451 -0.7029 -0.3234
16140TIP3    H169911   2.962   5.218  11.088  1.7528  0.2394 -0.1240
16140TIP3    H269912   2.875   5.340  11.068  1.8271  0.0256 -1.8728
16141TIP3   OH269913   0.829   2.937  13.989 -0.2344  0.0768  0.0350
16141TIP3    H169914   0.912   2.980  14.008  0.0882  0.5547 -2.1881
16141TIP3    H269915   0.762   3.001  14.015  0.1624  0.5756 -0.1580
16142TIP3   OH269916   1.064   5.856  14.174 -0.5136  0.2570 -0.0542
16142TIP3    H169917   1.064   5.870  14.269  0.2564  0.3647 -0.0654
16142TIP3    H269918   0.994   5.791  14.159 -0.2878 -0.1561  0.6436
16143TIP3   OH269919   3.474   3.292   1.381  0.0611 -0.0635 -0.2009
16143TIP3    H169920   3.525   3.254   1.309 -0.4867  1.3315 -1.3582
16143TIP3    H269921   3.531   3.284   1.457  2.1387  1.5768 -1.4766
16144TIP3   OH269922   5.291   4.432  12.078 -0.4830  0.6570  0.1686
16144TIP3    H169923   5.373   4.477  12.057  0.2570 -0.4164  0.6862
16144TIP3    H269924   5.315   4.370  12.147 -1.4125 -0.7701 -0.7612
16145TIP3   OH269925   0.066   3.580  15.516 -0.4466  0.1782  0.6460
16145TIP3    H169926   0.105   3.667  15.509  0.6101 -0.3328 -0.0759
16145TIP3    H269927   0.012   3.584  15.595  0.0317  1.3133  0.9314
16146TIP3   OH269928   6.083   2.642  14.328 -0.3307 -0.6106  0.0977
16146TIP3    H169929   6.050   2.582  14.262 -0.3519 -0.6871  0.1777
16146TIP3    H269930   6.170   2.610  14.349  0.4681  0.5402 -1.3025
16147TIP3   OH269931   3.285   3.031   2.769  0.1858 -0.1082 -0.0207
16147TIP3    H169932   3.200   3.066   2.742  1.3182 -0.1819 -4.4936
16147TIP3    H269933   3.334   3.108   2.798 -0.8193  0.1713  1.0213
16148TIP3   OH269934   1.807   5.665  10.467 -0.3317  0.2805 -0.1974
16148TIP3    H169935   1.847   5.579  10.453  1.7712  1.1090  0.2713
16148TIP3    H269936   1.742   5.673  10.397 -0.3935 -1.5719 -0.3958
16149TIP3   OH269937   5.472   6.435  15.252  0.2262 -0.3519  0.0442
16149TIP3    H169938   5.444   6.344  15.246  1.5325 -0.7525 -0.3477
16149TIP3    H269939   5.524   6.450  15.173  2.2121 -0.0711  1.3330
16150TIP3   OH269940   2.440   4.008  11.682 -0.3018 -0.0826 -0.2431
16150TIP3    H169941   2.395   4.064  11.745  0.9132  1.4388 -0.6823
16150TIP3    H269942   2.494   3.951  11.735  0.8738  1.3288  0.1319
16151TIP3   OH269943   1.701   3.254   4.461 -0.2200 -0.1161  0.3495
16151TIP3    H169944   1.748   3.176   4.492 -0.8535 -1.0720 -0.9768
16151TIP3    H269945   1.612   3.241   4.493  0.3828  1.9692  3.3553
16152TIP3   OH269946   6.650   5.996   5.980 -0.0736  0.1110  0.3411
16152TIP3    H169947   6.585   6.065   5.961  0.6149  0.4037 -1.1037
16152TIP3    H269948   6.685   6.019   6.066 -2.0766 -0.2284  1.3202
16153TIP3   OH269949   0.750   3.692  12.314  0.3426 -0.3752  0.3212
16153TIP3    H169950   0.672   3.741  12.342 -0.4810 -0.5189 -1.5981
16153TIP3    H269951   0.822   3.731  12.364 -0.3116  2.6315 -0.8694
16154TIP3   OH269952   1.550   2.113   3.104 -0.2316  0.2160 -0.2269
16154TIP3    H169953   1.514   2.030   3.137 -3.7833  0.6544 -2.4751
16154TIP3    H269954   1.479   2.176   3.117  2.0904  2.8523  0.7122
16155TIP3   OH269955   3.081   3.559  12.446  0.7824  0.2989 -1.1001
16155TIP3    H169956   3.071   3.465  12.460 -0.9521  0.4214 -1.2416
16155TIP3    H269957   3.149   3.567  12.379  2.9720 -0.6780  0.8856
16156TIP3   OH269958   4.803   4.989   3.758 -0.2677 -0.2105 -0.2647
16156TIP3    H169959   4.777   5.065   3.810  2.0621  0.5431 -0.0874
16156TIP3    H269960   4.811   5.023   3.669  0.2433 -0.3813 -0.2851
16157TIP3   OH269961   0.437   3.693   1.624 -0.4087 -0.0439 -0.0651
16157TIP3    H169962   0.512   3.729   1.672  0.1160 -0.2726 -0.7070
16157TIP3    H269963   0.402   3.767   1.575 -0.0341 -0.1359 -0.4815
16158TIP3   OH269964   5.852   6.787  14.779 -0.1809 -0.2202  0.3687
16158TIP3    H169965   5.915   6.717  14.763 -0.3665 -0.1924 -0.5388
16158TIP3    H269966   5.869   6.851  14.710 -1.2863 -0.2754  0.0231
16159TIP3   OH269967   6.239   3.941   0.524 -0.2624  0.5906 -0.0406
16159TIP3    H169968   6.147   3.957   0.546 -0.4685 -1.3073  0.7062
16159TIP3    H269969   6.282   3.932   0.609  0.3473  0.2022 -0.3844
16160TIP3   OH269970   6.010   0.107  14.093 -0.2596 -0.0832  0.3350
16160TIP3    H169971   5.996   0.023  14.137  1.2907 -1.0538 -0.9093
16160TIP3    H269972   5.991   0.088  14.001  1.1766  0.6267 -0.1211
16161TIP3   OH269973   1.358   2.385  15.686  0.1075  0.4149  0.1249
16161TIP3    H169974   1.444   2.366  15.724 -0.2417 -1.5564  0.0507
16161TIP3    H269975   1.376   2.449  15.617  1.1420  1.8912  1.6966
16162TIP3   OH269976   1.158   6.665  16.529  0.1689 -0.3057  0.9548
16162TIP3    H169977   1.126   6.755  16.528 -2.1173 -0.9005  4.3848
16162TIP3    H269978   1.208   6.658  16.610  1.9771 -1.6985 -0.1972
16163TIP3   OH269979   5.886   0.370  15.524 -0.3067  0.0852  0.0760
16163TIP3    H169980   5.911   0.301  15.463  1.6278  0.3571  0.5121
16163TIP3    H269981   5.861   0.444  15.469 -1.9709 -0.7544 -0.3865
16164TIP3   OH269982   2.456   3.751   3.022 -0.2568 -0.0964 -0.1003
16164TIP3    H169983   2.452   3.655   3.025  0.3050 -0.1200 -0.0963
16164TIP3    H269984   2.548   3.771   3.008 -0.4612  0.4339 -0.7578
16165TIP3   OH269985   5.250   0.122  16.041  0.3504  0.3988 -0.2033
16165TIP3    H169986   5.230   0.119  15.947  1.0199  0.4083 -0.3520
16165TIP3    H269987   5.322   0.060  16.052 -1.1533 -1.3145  0.6896
16166TIP3   OH269988   0.915   2.053  14.682 -0.3740 -0.8146  0.5737
16166TIP3    H169989   0.915   1.970  14.635 -2.1524 -1.4625  1.6166
16166TIP3    H269990   0.865   2.035  14.762 -0.9736  1.3041  0.7297
16167TIP3   OH269991   0.336   3.448   5.272  0.4386  0.2940 -0.1440
16167TIP3    H169992   0.291   3.492   5.345  0.5316  0.5012 -0.2105
16167TIP3    H269993   0.426   3.479   5.278  0.0515  1.7719 -1.4633
16168TIP3   OH269994   5.024   0.060   2.732 -0.2923 -0.2657 -0.2753
16168TIP3    H169995   4.988   0.116   2.663 -0.8028  0.1782  0.3451
16168TIP3    H269996   5.117   0.054   2.712 -0.6513 -1.2741 -1.8039
16169TIP3   OH269997   0.208   6.115  12.248  0.3291 -0.6575  0.0763
16169TIP3    H169998   0.132   6.122  12.306  0.2417  0.8463 -0.1801
16169TIP3    H269999   0.262   6.191  12.270  0.6764 -0.4916 -1.2646
16170TIP3   OH270000   0.881   5.805   1.091 -0.8207 -0.1642  0.0306
16170TIP3    H170001   0.973   5.797   1.066 -0.9518 -1.8760 -0.0171
16170TIP3    H270002   0.854   5.890   1.056  0.6296  0.1983 -0.2823
16171TIP3   OH270003   3.021   2.905  14.727  0.0401 -0.1194 -0.3135
16171TIP3    H170004   3.037   2.996  14.698 -0.2114  0.2554  0.6996
16171TIP3    H270005   3.099   2.858  14.698 -0.1474  0.2491 -1.5070
16172TIP3   OH270006   1.310   0.075  13.835 -0.0114  0.8729 -0.2009
16172TIP3    H170007   1.357   0.075  13.919 -0.0221  0.6531 -0.1944
16172TIP3    H270008   1.378   0.061  13.769 -0.3740 -3.3384  0.0037
16173TIP3   OH270009   6.358   2.829   4.044 -0.4372 -0.0646 -0.1992
16173TIP3    H170010   6.366   2.887   3.969  0.4049 -1.0774 -0.9213
16173TIP3    H270011   6.334   2.887   4.117  0.3797  1.1801 -0.8864
16174TIP3   OH270012   6.498   1.820   4.662  0.2180 -1.1156  0.0372
16174TIP3    H170013   6.410   1.844   4.690  0.2196 -1.3945  0.2965
16174TIP3    H270014   6.555   1.855   4.730  0.4247  0.1850 -0.7826
16175TIP3   OH270015   2.876   6.600  11.383 -0.4119 -0.1757 -0.0676
16175TIP3    H170016   2.963   6.634  11.402 -0.1404 -0.1721 -1.2289
16175TIP3    H270017   2.821   6.679  11.373 -0.6191 -0.1826  0.9127
16176TIP3   OH270018   4.232   4.139   2.993 -0.5110 -0.4221  0.1832
16176TIP3    H170019   4.277   4.140   2.908  0.2585  1.3536  0.5788
16176TIP3    H270020   4.153   4.191   2.979  1.1682  2.6544  1.2788
16177TIP3   OH270021   3.599   4.678  11.002  0.6163 -0.5375  0.6077
16177TIP3    H170022   3.518   4.724  10.977  0.5038 -1.6727 -1.3113
16177TIP3    H270023   3.669   4.739  10.979  0.3649 -0.2280  0.6606
16178TIP3   OH270024   4.778   4.432  14.060  0.2082  0.1215 -0.3934
16178TIP3    H170025   4.799   4.493  13.989 -0.5453  0.3751 -0.4057
16178TIP3    H270026   4.700   4.469  14.101 -1.4575 -1.8304 -1.6329
16179TIP3   OH270027   2.363   6.744  11.529 -0.0013 -0.1130 -0.1372
16179TIP3    H170028   2.359   6.779  11.440  0.0770  1.2147  0.3603
16179TIP3    H270029   2.438   6.685  11.528 -0.2529 -0.4479 -1.0509
16180TIP3   OH270030   3.958   4.945  15.371 -0.3166 -0.0424  0.1795
16180TIP3    H170031   3.981   5.037  15.381  0.6243 -0.3183  0.7842
16180TIP3    H270032   4.027   4.898  15.419 -0.1433 -1.1127 -1.0614
16181TIP3   OH270033   6.214   6.088  14.417  0.0158 -0.1020  0.0384
16181TIP3    H170034   6.249   6.106  14.504  1.6596 -1.2253 -0.3348
16181TIP3    H270035   6.175   6.001  14.425 -1.6057  0.5886  0.1041
16182TIP3   OH270036   5.214   4.535  12.389  0.3899  0.2170 -0.4058
16182TIP3    H170037   5.158   4.462  12.416  0.5774 -0.3006 -1.3532
16182TIP3    H270038   5.303   4.506  12.408  0.4404  0.3589 -0.4273
16183TIP3   OH270039   2.290   6.162  14.291  0.2277 -0.2956  0.0024
16183TIP3    H170040   2.283   6.164  14.196 -3.0029 -1.3133  0.0867
16183TIP3    H270041   2.324   6.075  14.311  0.0953 -0.3958 -0.2085
16184TIP3   OH270042   1.766   2.163   5.990 -0.1144 -0.2952  1.0188
16184TIP3    H170043   1.818   2.129   6.063 -0.1599  0.5412  1.4404
16184TIP3    H270044   1.685   2.112   5.993  0.7437 -1.8081  0.1920
16185TIP3   OH270045   5.750   1.432  16.539  0.4312  0.0014 -0.0378
16185TIP3    H170046   5.837   1.473  16.541  0.5342 -0.2488  0.6845
16185TIP3    H270047   5.768   1.339  16.525  0.3809 -0.3232  1.8626
16186TIP3   OH270048   5.483   4.396   2.625  0.4663  0.3313 -0.0139
16186TIP3    H170049   5.446   4.474   2.585  1.9524  1.2071  0.2512
16186TIP3    H270050   5.546   4.429   2.690  1.6434 -1.0525 -0.3796
16187TIP3   OH270051   2.259   2.408   3.010  0.2269 -0.0823  0.4435
16187TIP3    H170052   2.306   2.474   3.060  0.8264 -0.1348 -0.0311
16187TIP3    H270053   2.300   2.410   2.923 -1.8563  1.1314 -0.5711
16188TIP3   OH270054   4.410   5.165   3.553 -0.4237  0.1175  0.3652
16188TIP3    H170055   4.361   5.085   3.539  0.1916 -0.0768 -0.8312
16188TIP3    H270056   4.368   5.206   3.628 -2.1678 -0.2187 -0.3677
16189TIP3   OH270057   5.596   2.965   1.459  0.4126 -0.7905 -0.1455
16189TIP3    H170058   5.540   2.900   1.416  1.5488 -0.7774 -1.7186
16189TIP3    H270059   5.612   2.929   1.546 -1.9152 -0.8429  0.3290
16190TIP3   OH270060   4.308   2.625   1.845  0.8603 -0.4881  0.5467
16190TIP3    H170061   4.273   2.623   1.934  0.7559 -1.7754  0.4909
16190TIP3    H270062   4.333   2.716   1.831  0.8775 -0.2711  1.8921
16191TIP3   OH270063   6.451   3.030  13.800  0.4549  0.6807 -0.1924
16191TIP3    H170064   6.447   3.126  13.796 -0.2618  0.6921  0.5604
16191TIP3    H270065   6.466   3.003  13.710  0.4357  1.4932 -0.4495
16192TIP3   OH270066   4.994   1.726   1.790 -0.2033 -0.1813 -0.1931
16192TIP3    H170067   4.951   1.790   1.732 -1.0648  0.5243  1.1722
16192TIP3    H270068   4.930   1.656   1.800 -0.3211  0.0067  0.4046
16193TIP3   OH270069   3.323   3.332  14.777 -0.0745 -0.0231 -0.1376
16193TIP3    H170070   3.368   3.280  14.710 -1.4960 -1.2100 -0.2494
16193TIP3    H270071   3.264   3.269  14.819 -1.3746  1.3615  0.1923
16194TIP3   OH270072   3.855   1.036   0.949 -0.4295 -0.4993  0.0423
16194TIP3    H170073   3.925   1.098   0.929 -0.4182 -0.3828  0.4312
16194TIP3    H270074   3.776   1.090   0.957 -0.1267 -0.2532  2.1732
16195TIP3   OH270075   4.247   3.552  13.424 -0.0833 -0.3522 -0.1287
16195TIP3    H170076   4.161   3.512  13.434 -1.0346  0.7585 -2.9285
16195TIP3    H270077   4.308   3.482  13.449 -1.7353 -1.4488  1.0838
16196TIP3   OH270078   4.055   4.276   5.197 -0.7307 -0.3147 -0.5464
16196TIP3    H170079   4.036   4.208   5.263  0.8489 -0.8185 -0.5803
16196TIP3    H270080   4.065   4.228   5.115  1.1401 -0.1688 -0.4436
16197TIP3   OH270081   5.389   1.408   5.798  0.1518  0.2465 -0.0950
16197TIP3    H170082   5.357   1.360   5.722 -2.1801  2.3527 -0.6080
16197TIP3    H270083   5.483   1.419   5.782  0.4574 -2.5542 -0.7301
16198TIP3   OH270084   4.492   3.208  11.592 -0.4472 -0.4325 -0.4814
16198TIP3    H170085   4.421   3.147  11.575 -0.6185  0.1272 -1.9526
16198TIP3    H270086   4.452   3.295  11.582  0.4044 -0.1133 -1.3410
16199TIP3   OH270087   5.613   2.878   0.067  0.3298  0.3514 -0.0241
16199TIP3    H170088   5.653   2.960   0.096  0.9302 -0.0485  0.3060
16199TIP3    H270089   5.643   2.867  -0.023 -1.6122  1.6423 -0.9045
16200TIP3   OH270090   0.292   0.647   3.900  0.4130  0.1315 -0.0823
16200TIP3    H170091   0.299   0.640   3.805  0.0127  2.4066 -0.3487
16200TIP3    H270092   0.381   0.662   3.930  0.4556  0.0888 -0.1897
16201TIP3   OH270093   1.837   3.065   3.856  0.2102  1.1574  0.0141
16201TIP3    H170094   1.849   2.983   3.809  0.4468  1.7008 -0.9136
16201TIP3    H270095   1.896   3.126   3.812  0.1838  1.7715  0.8160
16202TIP3   OH270096   0.793   1.284   4.460  0.3506 -0.4417  0.0813
16202TIP3    H170097   0.794   1.318   4.370  2.1745  1.1300  0.6330
16202TIP3    H270098   0.826   1.195   4.452 -0.2395 -0.5938 -0.8750
16203TIP3   OH270099   4.100   6.250   3.897  0.2086 -0.2648  0.1181
16203TIP3    H170100   4.022   6.286   3.938 -0.2871 -1.1679 -0.0074
16203TIP3    H270101   4.164   6.321   3.901 -1.2549  1.3100 -1.7378
16204TIP3   OH270102   1.876   6.605  14.007  0.3073 -0.3060  0.3397
16204TIP3    H170103   1.952   6.655  14.036  0.1869  0.8845 -1.2171
16204TIP3    H270104   1.801   6.660  14.030 -0.0326 -1.0305  1.0037
16205TIP3   OH270105   5.539   1.731   5.400  0.3338 -0.0034 -0.4633
16205TIP3    H170106   5.582   1.790   5.338 -0.1587  2.2269  1.1755
16205TIP3    H270107   5.603   1.718   5.470 -0.1062 -0.1486 -0.0754
16206TIP3   OH270108   3.541   3.117   4.554 -0.5403 -0.7615 -0.3826
16206TIP3    H170109   3.531   3.037   4.606  1.3181 -1.1743 -0.5942
16206TIP3    H270110   3.502   3.095   4.469 -0.6923 -1.1931 -0.2062
16207TIP3   OH270111   6.699   6.507   5.199  0.8045 -0.4446  0.2236
16207TIP3    H170112   6.733   6.594   5.177  1.5701 -0.9084 -0.4488
16207TIP3    H270113   6.604   6.517   5.190  0.9264  0.1222 -0.6126
16208TIP3   OH270114   0.592   2.617  14.578  0.2765 -0.1986 -0.5222
16208TIP3    H170115   0.505   2.653  14.564  0.0061 -0.6317  0.0403
16208TIP3    H270116   0.632   2.675  14.643 -0.4962 -1.4195  1.0930
16209TIP3   OH270117   2.340   6.270  11.413 -0.1312 -0.0447  0.3834
16209TIP3    H170118   2.254   6.313  11.406  0.6114  1.3888 -0.3143
16209TIP3    H270119   2.401   6.330  11.370  1.4947 -0.2978  2.1939
16210TIP3   OH270120   1.155   2.325  15.867  0.0244  0.2458 -0.8641
16210TIP3    H170121   1.080   2.292  15.818 -0.5336 -0.3929  0.3873
16210TIP3    H270122   1.226   2.327  15.803 -0.4555 -1.4635 -1.4955
16211TIP3   OH270123   1.248   6.506  12.349 -0.1056  0.1682 -0.2065
16211TIP3    H170124   1.206   6.429  12.310 -0.7503  0.3172  0.1633
16211TIP3    H270125   1.211   6.580  12.300 -2.0157  0.4677  1.5314
16212TIP3   OH270126   0.205   1.039  12.477  0.2790 -0.1399 -0.0104
16212TIP3    H170127   0.295   1.010  12.462 -0.1032 -0.3824 -2.2841
16212TIP3    H270128   0.151   0.967  12.443 -0.7721  0.3297  0.6159
16213TIP3   OH270129   1.005   0.103   1.644 -0.1507 -0.1963 -0.0822
16213TIP3    H170130   0.912   0.128   1.642 -0.4684 -1.1556  1.0390
16213TIP3    H270131   1.014   0.053   1.726  1.2672 -0.4583 -0.3757
16214TIP3   OH270132   2.104   3.614   3.368  0.3045 -0.5396 -0.1808
16214TIP3    H170133   2.089   3.523   3.342  0.8184 -0.4613 -0.7684
16214TIP3    H270134   2.119   3.661   3.286  0.9757 -0.0977  0.1835
16215TIP3   OH270135   4.396   5.312   5.132  0.3097 -0.2237 -0.8325
16215TIP3    H170136   4.434   5.247   5.073  0.3351 -1.6080  0.6625
16215TIP3    H270137   4.306   5.324   5.100 -0.1256 -1.9891 -0.3656
16216TIP3   OH270138   3.697   2.742   4.956 -0.3741  0.2515  0.1027
16216TIP3    H170139   3.644   2.664   4.937 -0.6174 -0.1219  2.0357
16216TIP3    H270140   3.701   2.745   5.052  1.9167  1.0959  0.0472
16217TIP3   OH270141   6.014   3.403  16.272 -0.2151  0.7698  0.1871
16217TIP3    H170142   5.941   3.460  16.248 -1.2993 -0.5573  0.2176
16217TIP3    H270143   6.041   3.435  16.358 -1.5632  0.5440  0.7268
16218TIP3   OH270144   2.854   1.996   6.123 -0.0610  0.2336  0.2074
16218TIP3    H170145   2.854   2.092   6.116  0.8205  0.1686 -0.9637
16218TIP3    H270146   2.890   1.966   6.040 -2.8138 -1.2429 -0.5724
16219TIP3   OH270147   6.258   6.692  11.856  0.1209 -0.0634 -0.2540
16219TIP3    H170148   6.250   6.598  11.839  1.2167  0.1743 -2.3770
16219TIP3    H270149   6.201   6.733  11.790  0.6781  0.7936 -0.2152
16220TIP3   OH270150   4.313   3.628  15.610  0.4704  0.2342  0.3864
16220TIP3    H170151   4.278   3.660  15.527  0.5030 -0.6582  0.0118
16220TIP3    H270152   4.235   3.612  15.664  0.2173 -1.7643 -0.4532
16221TIP3   OH270153   0.258   2.828  14.858  0.2959 -0.4428 -0.6454
16221TIP3    H170154   0.221   2.830  14.946 -1.3175  0.5810 -1.2923
16221TIP3    H270155   0.352   2.840  14.871 -0.0027  0.4823  0.9131
16222TIP3   OH270156   3.806   4.218   1.529  0.6990 -0.0956  0.3656
16222TIP3    H170157   3.893   4.234   1.493  0.4296 -0.9755 -0.7410
16222TIP3    H270158   3.821   4.153   1.598  1.0216  0.4221  0.7926
16223TIP3   OH270159   6.392   3.426   6.364  0.3090 -0.1101  0.9782
16223TIP3    H170160   6.392   3.476   6.282 -1.0779  0.6356  1.4016
16223TIP3    H270161   6.336   3.476   6.423  1.0053 -0.8120  2.2953
16224TIP3   OH270162   2.089   2.941   1.572 -0.0298 -0.5025 -0.0160
16224TIP3    H170163   2.012   2.922   1.517 -0.2652 -0.7447  0.3928
16224TIP3    H270164   2.098   2.864   1.628  0.3193 -0.3347  0.1604
16225TIP3   OH270165   6.334   6.239  16.394  0.2077  0.5715  0.1148
16225TIP3    H170166   6.292   6.169  16.345 -2.3374  2.7431 -1.0391
16225TIP3    H270167   6.322   6.215  16.486  0.3792 -1.0095 -0.2554
16226TIP3   OH270168   2.990   0.676   4.713  0.4572  0.2643  0.5312
16226TIP3    H170169   2.948   0.613   4.771 -1.3867  0.9194 -0.0221
16226TIP3    H270170   2.922   0.739   4.692  1.3640  0.6818 -1.4469
16227TIP3   OH270171   4.548   4.363   5.636  0.2380  0.1352  0.3047
16227TIP3    H170172   4.597   4.294   5.682 -0.3284  0.7582  1.9127
16227TIP3    H270173   4.593   4.444   5.661  1.3807  0.3698 -2.1785
16228TIP3   OH270174   4.131   1.027   1.217  0.3844  0.0580  0.3329
16228TIP3    H170175   4.160   1.004   1.129 -0.6577 -0.9906  0.2438
16228TIP3    H270176   4.036   1.022   1.213  0.2873  0.6852  1.3475
16229TIP3   OH270177   5.456   3.360  15.653 -0.2849  0.5164 -0.3675
16229TIP3    H170178   5.496   3.327  15.573  0.5765 -0.9999  0.6486
16229TIP3    H270179   5.372   3.314  15.658  0.2440 -0.4217  0.2531
16230TIP3   OH270180   3.061   5.132   3.469  0.3777 -0.0594  0.1499
16230TIP3    H170181   2.983   5.121   3.524 -1.0460  1.2934 -1.4612
16230TIP3    H270182   3.115   5.055   3.488 -0.8931 -0.5532  2.0362
16231TIP3   OH270183   0.483   2.150   4.532 -0.3372 -0.3473 -0.3574
16231TIP3    H170184   0.472   2.135   4.439  0.3242 -0.6696 -0.3889
16231TIP3    H270185   0.448   2.072   4.574  4.7718 -3.1549 -0.5841
16232TIP3   OH270186   3.520   2.243  14.895 -0.2937  0.2281 -0.2328
16232TIP3    H170187   3.445   2.184  14.889  0.0681 -0.1278 -1.7620
16232TIP3    H270188   3.498   2.303  14.966 -1.0707 -1.1751  0.7707
16233TIP3   OH270189   2.875   5.310  13.811  0.1067  0.4804  0.5404
16233TIP3    H170190   2.852   5.238  13.753  1.6446 -0.4569  1.0402
16233TIP3    H270191   2.900   5.381  13.753  0.3772 -0.0100  0.0483
16234TIP3   OH270192   5.830   0.604   6.206  0.8533 -0.1008 -0.0553
16234TIP3    H170193   5.830   0.531   6.144 -2.1563  0.0144 -0.3355
16234TIP3    H270194   5.799   0.565   6.288  0.2371  0.6522  0.0751
16235TIP3   OH270195   2.009   3.541   6.241 -0.8697  0.1085 -0.4722
16235TIP3    H170196   1.999   3.547   6.146 -0.3046  0.0618 -0.5344
16235TIP3    H270197   2.103   3.539   6.256 -0.8458  2.4084  0.2085
16236TIP3   OH270198   6.602   2.261   0.082 -0.3776  0.1414  0.3774
16236TIP3    H170199   6.517   2.281   0.043 -1.4686 -1.4428  1.8289
16236TIP3    H270200   6.605   2.166   0.088  2.7197 -0.1276 -2.1440
16237TIP3   OH270201   2.179   0.952   3.662 -0.1119  0.2706  0.0818
16237TIP3    H170202   2.266   0.925   3.635 -0.2427 -0.1789  0.1001
16237TIP3    H270203   2.193   1.001   3.743  0.0094 -0.9410  0.8230
16238TIP3   OH270204   2.701   3.976   3.782 -0.4853 -0.4306  0.5315
16238TIP3    H170205   2.731   3.967   3.692  1.0609 -0.2716  1.0044
16238TIP3    H270206   2.607   3.956   3.778 -0.6684  0.5955 -1.2661
16239TIP3   OH270207   4.386   4.536   4.474  0.1567  0.6530  0.7831
16239TIP3    H170208   4.459   4.491   4.517  0.4417 -0.4585 -0.8024
16239TIP3    H270209   4.410   4.628   4.475  2.1284  0.2101 -0.6612
16240TIP3   OH270210   4.468   1.796  12.129 -0.3472 -0.2519  0.0904
16240TIP3    H170211   4.526   1.738  12.080  0.5747  0.7368 -0.0410
16240TIP3    H270212   4.400   1.820  12.067 -0.2856 -0.5602 -0.0987
16241TIP3   OH270213   4.524   3.434  13.864  0.4026  0.6121  0.0271
16241TIP3    H170214   4.475   3.511  13.834 -0.1267  0.0180 -0.6801
16241TIP3    H270215   4.517   3.437  13.959  1.3146  2.0288  0.0772
16242TIP3   OH270216   5.731   1.964  10.860 -0.0656  0.2985 -0.0535
16242TIP3    H170217   5.648   1.919  10.875  0.7194 -1.0652  0.3092
16242TIP3    H270218   5.767   1.977  10.948  1.3155 -1.5181 -0.2862
16243TIP3   OH270219   1.078   2.683  13.180 -0.7304  0.0297  0.0336
16243TIP3    H170220   1.059   2.715  13.092 -1.9275 -0.7249 -0.0028
16243TIP3    H270221   1.013   2.727  13.236 -0.1699  0.2746  0.4987
16244TIP3   OH270222   3.484   4.337   4.408  0.2506  0.0809 -0.2199
16244TIP3    H170223   3.514   4.246   4.407 -0.4362 -0.1648  0.2136
16244TIP3    H270224   3.547   4.382   4.464 -1.4739 -0.9582  2.8511
16245TIP3   OH270225   5.819   6.152  15.016 -0.1136 -0.6370 -0.3900
16245TIP3    H170226   5.724   6.149  15.027  0.0665  0.0604  2.0711
16245TIP3    H270227   5.832   6.168  14.923 -2.3803 -1.3388 -0.8936
16246TIP3   OH270228   0.378   3.013  16.934 -0.0632  0.2023  0.2586
16246TIP3    H170229   0.458   3.029  16.883  0.1446 -1.2502  0.0945
16246TIP3    H270230   0.352   2.924  16.910  0.0995 -0.5780  2.7599
16247TIP3   OH270231   3.301   5.360   5.521  0.4206 -0.1542  0.1282
16247TIP3    H170232   3.211   5.387   5.504  0.6591  0.4414 -0.2227
16247TIP3    H270233   3.293   5.271   5.555 -0.3307  0.0972  0.6300
16248TIP3   OH270234   2.150   1.053  12.574  0.2865 -1.0305 -0.1505
16248TIP3    H170235   2.143   1.138  12.618  0.5863 -1.0313 -0.1039
16248TIP3    H270236   2.068   1.046  12.523 -1.1616 -2.0435  2.1624
16249TIP3   OH270237   0.077   1.614  13.925  0.3652  0.3518  0.0746
16249TIP3    H170238   0.022   1.590  14.000 -1.3263  0.3248 -1.1095
16249TIP3    H270239   0.111   1.701  13.947 -0.5815  0.5993  0.6256
16250TIP3   OH270240   1.369   6.468  17.130  0.4100 -0.4517  0.2361
16250TIP3    H170241   1.419   6.540  17.091 -1.6057  1.5049  1.0643
16250TIP3    H270242   1.367   6.400  17.061  0.6283  1.1229 -1.3990
16251TIP3   OH270243   0.182   0.369   0.705 -0.0562  0.2212 -0.7952
16251TIP3    H170244   0.246   0.364   0.777 -0.1959  0.4937 -0.6483
16251TIP3    H270245   0.210   0.301   0.643 -0.0545 -0.1504 -0.3885
16252TIP3   OH270246   5.855   6.700   1.674 -1.0037  0.0323  0.3392
16252TIP3    H170247   5.812   6.759   1.736 -2.1487 -1.6819  1.2423
16252TIP3    H270248   5.800   6.704   1.596 -0.1695  1.3516 -0.2199
16253TIP3   OH270249   2.194   3.588  11.694  0.1004 -0.5480 -0.4554
16253TIP3    H170250   2.158   3.642  11.623 -0.6462  0.2200  0.4680
16253TIP3    H270251   2.278   3.557  11.661  2.5108  4.2842  0.2650
16254TIP3   OH270252   5.204   6.461  10.924  0.0559 -0.2401 -0.2199
16254TIP3    H170253   5.227   6.502  10.841 -0.6905 -1.1773 -0.9052
16254TIP3    H270254   5.111   6.443  10.918 -0.3472  1.0242  1.4266
16255TIP3   OH270255   3.329   6.594   6.140  0.2282  0.0739  0.2726
16255TIP3    H170256   3.396   6.534   6.173  1.1036  0.4035 -0.8386
16255TIP3    H270257   3.279   6.619   6.217  0.4566 -1.3246  0.9020
16256TIP3   OH270258   1.894   5.864  15.607  0.3174  0.0665  0.6112
16256TIP3    H170259   1.912   5.946  15.562 -0.0560 -0.0976  0.1614
16256TIP3    H270260   1.799   5.857  15.608  0.3108  0.0976  1.4886
16257TIP3   OH270261   1.948   0.506  12.628  0.2459 -0.6077 -0.2590
16257TIP3    H170262   1.906   0.590  12.610 -0.5230 -1.0755 -0.7185
16257TIP3    H270263   2.041   0.521  12.612  0.2605  0.4189  0.6482
16258TIP3   OH270264   4.358   1.386   2.715  0.1557 -0.5293 -0.7106
16258TIP3    H170265   4.343   1.388   2.810 -1.8176 -0.2710 -0.9962
16258TIP3    H270266   4.449   1.414   2.705 -0.9022  4.3891  0.8394
16259TIP3   OH270267   1.445   6.118  11.924  0.5821 -0.6371 -0.1126
16259TIP3    H170268   1.368   6.112  11.868 -0.4087  0.3119  1.0847
16259TIP3    H270269   1.441   6.039  11.977 -1.7904  1.0553  2.5554
16260TIP3   OH270270   3.947   2.766   5.409 -0.0802 -0.0650  0.8356
16260TIP3    H170271   3.969   2.684   5.452  3.4073  1.0441  1.4982
16260TIP3    H270272   4.008   2.772   5.335 -0.9084  1.4640  0.2271
16261TIP3   OH270273   0.037   1.932   1.534  0.2533 -0.0826 -0.1632
16261TIP3    H170274  -0.011   1.925   1.617  2.9952 -0.5201  1.5248
16261TIP3    H270275  -0.019   1.889   1.470 -1.0819 -1.6287  1.9052
16262TIP3   OH270276   5.899   5.268  16.018  0.5151 -0.4194 -0.0226
16262TIP3    H170277   5.956   5.285  16.093  0.8889 -0.9089 -0.1864
16262TIP3    H270278   5.816   5.309  16.041  0.9158  0.2568  0.2466
16263TIP3   OH270279   5.071   3.238   2.767 -0.2747  0.1136  0.7738
16263TIP3    H170280   4.999   3.272   2.821 -1.5735  0.6080 -1.1698
16263TIP3    H270281   5.041   3.152   2.739 -0.5737  0.6860 -0.7852
16264TIP3   OH270282   1.337   3.109   5.083 -0.4201  0.3027 -0.5307
16264TIP3    H170283   1.328   3.024   5.040 -1.4375 -0.4737  1.0782
16264TIP3    H270284   1.430   3.129   5.078 -0.0802 -1.1465 -0.5469
16265TIP3   OH270285   2.560   5.322  17.204 -0.0814 -0.4997  0.0977
16265TIP3    H170286   2.540   5.400  17.153  0.9322 -0.7811 -0.7861
16265TIP3    H270287   2.595   5.355  17.287 -1.0705 -0.0347  0.3431
16266TIP3   OH270288   5.029   0.427   2.880 -0.0875  0.2625  0.0146
16266TIP3    H170289   4.984   0.373   2.946 -0.3023 -0.2052 -0.5077
16266TIP3    H270290   5.043   0.511   2.924  0.6244 -0.3366  1.0005
16267TIP3   OH270291   0.400   2.465  10.636 -0.3387 -0.4232 -0.2691
16267TIP3    H170292   0.327   2.500  10.585 -2.3846  1.7134  3.6665
16267TIP3    H270293   0.375   2.373  10.652  0.0509 -0.9598 -2.3961
16268TIP3   OH270294   3.026   6.378   3.237  0.5750 -0.5581  0.5712
16268TIP3    H170295   3.037   6.287   3.266  0.1842 -0.2540  1.7560
16268TIP3    H270296   2.954   6.375   3.175  0.8497 -1.1147  0.2678
16269TIP3   OH270297   2.395   0.850   1.782  0.5108 -0.1458 -0.2333
16269TIP3    H170298   2.373   0.765   1.742 -0.3780 -0.2198  0.3816
16269TIP3    H270299   2.475   0.833   1.832  0.3013 -0.6387 -0.0612
16270TIP3   OH270300   3.680   2.318  13.787  0.6556  0.2862 -0.2938
16270TIP3    H170301   3.715   2.299  13.700  0.7777  1.3375 -0.4810
16270TIP3    H270302   3.709   2.244  13.841 -0.3969 -0.9691 -1.3828
16271TIP3   OH270303   6.783   0.266  17.076  0.0084  0.8812  0.6234
16271TIP3    H170304   6.849   0.307  17.021 -1.2552  1.5553 -0.4455
16271TIP3    H270305   6.803   0.296  17.165  1.3674  0.7291  0.3935
16272TIP3   OH270306   1.124   5.702   6.110 -0.0001 -0.1827 -0.4671
16272TIP3    H170307   1.192   5.738   6.167  0.1903 -3.1009  1.3434
16272TIP3    H270308   1.061   5.662   6.169 -0.5147 -2.1778 -2.2165
16273TIP3   OH270309   5.211   4.079  14.306 -0.1249 -0.3157 -0.0967
16273TIP3    H170310   5.154   4.112  14.375 -0.6883 -0.9736 -0.2385
16273TIP3    H270311   5.247   4.157  14.264  0.4632  0.0916  1.1297
16274TIP3   OH270312   6.783   0.986  13.658 -0.3132  0.8220 -0.3456
16274TIP3    H170313   6.755   1.037  13.583 -1.3540 -0.6631 -1.0085
16274TIP3    H270314   6.805   0.900  13.623  1.7403  0.8639  0.6839
16275TIP3   OH270315   0.767   3.920   6.044  0.1084 -0.2832  0.5890
16275TIP3    H170316   0.862   3.937   6.041 -0.1247  1.3317  1.2966
16275TIP3    H270317   0.760   3.824   6.038  1.7623 -0.4202  0.2349
16276TIP3   OH270318   5.974   5.170  16.894  0.2594 -0.2576  0.1183
16276TIP3    H170319   5.954   5.257  16.928  0.6312  0.2266 -0.8729
16276TIP3    H270320   6.013   5.124  16.968  0.7246  0.6587  0.4598
16277TIP3   OH270321   1.774   0.650   1.525 -0.2528 -0.4961 -0.3255
16277TIP3    H170322   1.730   0.678   1.445  2.6068  1.6950 -1.2967
16277TIP3    H270323   1.702   0.629   1.586 -2.5307 -0.0984 -2.6961
16278TIP3   OH270324   4.647   3.681   6.215 -0.3938 -0.1186 -0.5637
16278TIP3    H170325   4.740   3.703   6.214 -0.3562 -0.2549 -0.1401
16278TIP3    H270326   4.603   3.765   6.199 -0.2697  0.4260  1.6147
16279TIP3   OH270327   4.797   3.886   0.169  0.2307 -0.2804 -0.0046
16279TIP3    H170328   4.703   3.893   0.154  0.1413 -2.3528 -0.6790
16279TIP3    H270329   4.836   3.899   0.082  0.3605 -2.2067 -0.2619
16280TIP3   OH270330   5.626   2.122  16.764  0.1263  0.1885 -0.1480
16280TIP3    H170331   5.609   2.198  16.819  0.6251  1.0524 -1.1438
16280TIP3    H270332   5.718   2.101  16.779  0.4359  0.8074 -1.0664
16281TIP3   OH270333   0.154   4.618  10.957  0.0607  0.7640  0.6628
16281TIP3    H170334   0.207   4.667  10.895 -1.2774 -0.3563 -1.4850
16281TIP3    H270335   0.064   4.629  10.926 -0.5388 -0.8644  1.6588
16282TIP3   OH270336   2.396   0.409   4.704  0.2607  0.9320 -0.0884
16282TIP3    H170337   2.446   0.458   4.639 -1.1623 -1.1689 -2.9516
16282TIP3    H270338   2.447   0.330   4.720  0.8255  1.6188  1.8283
16283TIP3   OH270339   5.505   6.393  15.005 -0.4902  0.3192 -0.2759
16283TIP3    H170340   5.532   6.301  14.997  1.0332  0.7499 -0.3391
16283TIP3    H270341   5.458   6.411  14.924  0.9430  0.1367 -1.1797
16284TIP3   OH270342   1.117   1.514   0.748  0.4208 -0.1337 -0.1159
16284TIP3    H170343   1.085   1.436   0.793  0.3545  0.0615  0.1773
16284TIP3    H270344   1.049   1.533   0.682  1.1449 -1.1867 -1.2109
16285TIP3   OH270345   4.994   6.545  10.451  0.4396  0.0103 -0.3714
16285TIP3    H170346   5.014   6.452  10.452 -0.5860 -0.2446 -1.1959
16285TIP3    H270347   4.915   6.553  10.505  0.2956  0.3430 -0.6288
16286TIP3   OH270348   2.668   0.892   0.110  0.1114  0.3283  0.2684
16286TIP3    H170349   2.729   0.874   0.038  1.2798 -1.1503  1.5572
16286TIP3    H270350   2.682   0.820   0.172 -0.7161  1.6445  2.0767
16287TIP3   OH270351   2.042   3.828   2.166  0.4771  0.6674  0.0264
16287TIP3    H170352   1.981   3.861   2.232 -0.4004  0.6229 -0.7448
16287TIP3    H270353   2.128   3.858   2.196  0.5078 -1.5962  2.6330
16288TIP3   OH270354   4.977   4.839   4.644 -0.1470 -0.6505 -0.3206
16288TIP3    H170355   4.963   4.770   4.709 -0.5277 -0.9100 -0.6730
16288TIP3    H270356   4.990   4.793   4.562 -0.2580 -0.3059 -0.5348
16289TIP3   OH270357   2.426   5.577  15.790  0.2834  0.1270  0.4565
16289TIP3    H170358   2.442   5.597  15.882  0.3119  2.1943  0.0496
16289TIP3    H270359   2.409   5.662  15.749  0.7713 -0.6787 -1.5555
16290TIP3   OH270360   3.874   6.364   2.600 -0.7678  0.6966  0.2079
16290TIP3    H170361   3.906   6.383   2.512 -0.4002 -1.7485 -0.2519
16290TIP3    H270362   3.863   6.450   2.640  1.8560  1.8224 -1.2065
16291TIP3   OH270363   0.558   0.349  15.982  0.2405 -0.3548 -0.2922
16291TIP3    H170364   0.552   0.320  16.073  1.0224  0.2715 -0.0280
16291TIP3    H270365   0.512   0.433  15.981  0.9065  0.0143 -0.2978
16292TIP3   OH270366   0.756   6.556  12.859 -0.5451  0.3697 -0.1160
16292TIP3    H170367   0.776   6.520  12.772  0.6683  0.1175  0.2529
16292TIP3    H270368   0.666   6.588  12.851 -1.5027 -2.2317 -0.6156
16293TIP3   OH270369   3.827   5.288  13.706  0.4954 -0.2877 -0.7783
16293TIP3    H170370   3.760   5.230  13.743  1.2296 -1.3213 -1.0352
16293TIP3    H270371   3.791   5.376  13.718 -0.1506 -0.7032  0.6389
16294TIP3   OH270372   5.564   5.530  16.750  0.2587  0.8908 -0.0057
16294TIP3    H170373   5.629   5.600  16.756  2.1213 -0.6629 -0.9331
16294TIP3    H270374   5.615   5.451  16.736 -1.8512 -0.4527 -0.6135
16295TIP3   OH270375   4.214   4.541  16.831 -0.4835 -0.7253 -0.2759
16295TIP3    H170376   4.146   4.590  16.785 -0.0359  0.9618  0.7492
16295TIP3    H270377   4.166   4.492  16.899 -0.7983 -0.4993 -0.3314
16296TIP3   OH270378   5.300   3.578  13.001 -0.0331 -0.1635 -0.0512
16296TIP3    H170379   5.220   3.606  13.046 -0.4894 -0.1317 -0.8725
16296TIP3    H270380   5.347   3.525  13.066 -0.2190  0.6729  0.7789
16297TIP3   OH270381   0.547   0.416   2.806  0.4708  0.1023  0.1874
16297TIP3    H170382   0.514   0.351   2.868  2.4700 -0.0625  1.1568
16297TIP3    H270383   0.632   0.381   2.777 -0.0627  0.5454 -2.0936
16298TIP3   OH270384   2.438   0.451   2.071  0.0514 -0.2487 -0.0219
16298TIP3    H170385   2.390   0.530   2.096  1.1506  0.1387  0.9235
16298TIP3    H270386   2.469   0.415   2.154 -0.4444 -1.6960 -0.4362
16299TIP3   OH270387   4.205   4.841  13.532  0.2416 -0.1106 -0.5656
16299TIP3    H170388   4.212   4.762  13.479  0.6156 -1.7864  1.8278
16299TIP3    H270389   4.138   4.820  13.597  2.0329  0.5742  1.6209
16300TIP3   OH270390   0.304   5.784   1.689 -0.0386 -0.9505  0.0883
16300TIP3    H170391   0.233   5.811   1.747  0.7095 -0.1632  0.6686
16300TIP3    H270392   0.319   5.692   1.710 -0.0745 -0.7923  0.8421
16301TIP3   OH270393   2.319   4.475  13.366  0.4004  0.6921 -0.0364
16301TIP3    H170394   2.395   4.477  13.308  0.3703 -0.8046 -0.1682
16301TIP3    H270395   2.267   4.401  13.334  0.0997  0.2006  1.5377
16302TIP3   OH270396   5.637   5.099   2.323 -0.2376  0.1666 -0.0310
16302TIP3    H170397   5.642   5.009   2.292  1.0056 -0.1649  1.0353
16302TIP3    H270398   5.677   5.097   2.410  0.7819  1.9325 -0.3996
16303TIP3   OH270399   2.197   1.479  16.348 -0.2646  0.3788 -0.1783
16303TIP3    H170400   2.215   1.464  16.255  1.2362 -0.9938  0.2793
16303TIP3    H270401   2.207   1.574  16.360  1.5390  0.3397 -1.0597
16304TIP3   OH270402   6.703   6.797   5.063 -0.1015  0.7110 -0.0137
16304TIP3    H170403   6.638   6.797   4.993  1.2406  1.0940 -1.3035
16304TIP3    H270404   6.785   6.823   5.021  1.8684 -3.4848  0.6473
16305TIP3   OH270405   1.443   2.021  15.856 -0.9500 -0.2171  0.3674
16305TIP3    H170406   1.514   1.983  15.907 -1.8482  1.1795  2.8378
16305TIP3    H270407   1.487   2.070  15.786  0.4059 -0.9074  0.7028
16306TIP3   OH270408   6.382   0.435  13.320  0.2106 -0.2636  0.0663
16306TIP3    H170409   6.410   0.395  13.402 -0.2763 -1.1617 -0.1890
16306TIP3    H270410   6.286   0.436  13.326  0.2066  0.8623  0.0514
16307TIP3   OH270411   1.936   2.886  11.065  0.1742 -0.4511  0.0893
16307TIP3    H170412   2.021   2.841  11.064  0.5731  0.2854 -0.3146
16307TIP3    H270413   1.957   2.976  11.090 -0.6758 -0.5916  1.3887
16308TIP3   OH270414   0.417   4.933   0.004  0.4576 -0.0299 -0.3408
16308TIP3    H170415   0.393   4.908   0.094 -1.6961 -0.1824 -0.9023
16308TIP3    H270416   0.425   5.028   0.007  0.3483 -0.0291  0.0062
16309TIP3   OH270417   5.030   1.025  12.159 -0.0765  0.0714 -0.3269
16309TIP3    H170418   4.954   1.061  12.205 -0.0959 -0.6636  0.2463
16309TIP3    H270419   5.002   0.938  12.131  1.0124 -0.8418  1.2240
16310TIP3   OH270420   0.569   1.686  13.680 -0.3169  0.0666  0.0267
16310TIP3    H170421   0.638   1.622  13.696  0.3528  0.6269 -0.5119
16310TIP3    H270422   0.488   1.641  13.700 -0.0568 -1.6971 -2.4019
16311TIP3   OH270423   4.108   0.349   0.682  0.1681  0.3848 -0.3796
16311TIP3    H170424   4.079   0.285   0.616  1.3538  0.5843 -1.1185
16311TIP3    H270425   4.123   0.297   0.761 -0.4005 -0.0015 -0.5210
16312TIP3   OH270426   6.597   5.846   1.703 -0.2088  0.4896 -0.3113
16312TIP3    H170427   6.623   5.771   1.757  1.6716  0.7852 -0.7371
16312TIP3    H270428   6.569   5.912   1.767  0.8006  0.3972  0.2549
16313TIP3   OH270429   4.112   3.480   1.850  0.1253 -0.0323 -0.1113
16313TIP3    H170430   4.162   3.479   1.768  0.7286  1.3799  0.2170
16313TIP3    H270431   4.159   3.541   1.906  0.0002 -1.3399  1.5013
16314TIP3   OH270432   3.705   0.951  15.075  0.4296  0.8234 -0.1377
16314TIP3    H170433   3.727   1.007  15.000 -0.2727 -1.1635 -1.9134
16314TIP3    H270434   3.610   0.943  15.072  0.5054 -0.3880  0.1095
16315TIP3   OH270435   6.542   5.670  10.811 -0.1072  0.1662 -0.3742
16315TIP3    H170436   6.516   5.584  10.780  0.4382  0.2289 -1.0216
16315TIP3    H270437   6.630   5.658  10.846 -0.1325  0.4053 -0.2217
16316TIP3   OH270438   4.443   4.481   0.938 -0.1221  0.2397 -0.1535
16316TIP3    H170439   4.404   4.397   0.962  1.2030 -0.5857 -0.7377
16316TIP3    H270440   4.538   4.466   0.946  0.1153  1.8918  0.3978
16317TIP3   OH270441   4.402   0.986  11.273  0.3357  0.2948  0.4582
16317TIP3    H170442   4.352   0.907  11.251 -0.2983  0.5133  1.0663
16317TIP3    H270443   4.399   1.039  11.194  0.2127 -0.0155  0.2535
16318TIP3   OH270444   4.111   3.877  13.368  0.3073  0.0322 -0.3031
16318TIP3    H170445   4.112   3.963  13.326  0.1370 -0.9024 -2.3120
16318TIP3    H270446   4.189   3.876  13.424  0.8911  1.0900 -1.0775
16319TIP3   OH270447   0.245   5.117  15.956 -0.3295  0.0162  0.2183
16319TIP3    H170448   0.243   5.209  15.930  0.2577 -0.0535 -0.0879
16319TIP3    H270449   0.152   5.093  15.965 -0.4829  0.8739  1.1763
16320TIP3   OH270450   1.567   1.196  10.225 -0.5757  0.1821 -0.3257
16320TIP3    H170451   1.594   1.118  10.273 -0.0588  0.9097  0.6118
16320TIP3    H270452   1.633   1.207  10.157 -0.8126 -0.3592 -0.6453
16321TIP3   OH270453   0.822   2.604  16.796  0.2687  0.3414 -0.1985
16321TIP3    H170454   0.819   2.577  16.704 -0.6857  3.2288 -1.1132
16321TIP3    H270455   0.753   2.554  16.839 -1.0474  0.8408 -1.6596
16322TIP3   OH270456   0.038   5.300   2.603  0.0481  0.3676 -0.0844
16322TIP3    H170457  -0.045   5.324   2.643 -0.1458 -1.2506  0.5337
16322TIP3    H270458   0.104   5.320   2.669 -0.0751 -0.4044  0.2797
16323TIP3   OH270459   0.942   3.446  15.875  0.3404 -0.1072  0.5751
16323TIP3    H170460   0.884   3.404  15.938 -0.7943  1.3715  0.5797
16323TIP3    H270461   0.887   3.462  15.798  0.8585  0.9098  0.3977
16324TIP3   OH270462   5.079   0.396  16.140 -0.4914 -0.6038  0.1096
16324TIP3    H170463   4.996   0.411  16.097 -1.7727  0.4882  2.7133
16324TIP3    H270464   5.138   0.365  16.071 -3.4620 -3.1111 -1.5244
16325TIP3   OH270465   3.522   6.095  13.372 -0.5347 -0.0209 -0.2896
16325TIP3    H170466   3.475   6.085  13.289  1.3989 -0.4694 -1.3943
16325TIP3    H270467   3.609   6.125  13.347  0.3302 -0.8565  1.5125
16326TIP3   OH270468   0.257   1.839  16.093  0.1636  0.3396 -0.3374
16326TIP3    H170469   0.284   1.775  16.159 -0.8400  0.7267  0.4729
16326TIP3    H270470   0.330   1.902  16.091 -0.4631  1.2216  1.6218
16327TIP3   OH270471   1.386   6.800   5.162 -0.5067 -0.1367 -0.1012
16327TIP3    H170472   1.449   6.827   5.096 -0.9067  1.0762 -0.0128
16327TIP3    H270473   1.326   6.742   5.115  0.6561 -1.3220 -0.1757
16328TIP3   OH270474   6.277   6.333  11.579  0.1545 -0.1395  0.5643
16328TIP3    H170475   6.191   6.301  11.607  0.7743 -0.3441  2.4071
16328TIP3    H270476   6.323   6.255  11.547 -0.3873  0.0049 -0.6105
16329TIP3   OH270477   0.218   4.707  14.526  0.3478 -0.3319  0.2201
16329TIP3    H170478   0.210   4.646  14.452 -0.4951 -0.2399  0.2240
16329TIP3    H270479   0.145   4.768  14.515  1.3739  0.9094  0.0276
16330TIP3   OH270480   6.435   2.073   3.146 -0.4776 -0.1050  0.9868
16330TIP3    H170481   6.526   2.044   3.155 -0.9973 -2.5302 -0.4635
16330TIP3    H270482   6.438   2.142   3.080  0.1070 -2.2167 -1.3695
16331TIP3   OH270483   4.889   5.628  15.785 -0.3161 -0.2070 -0.1828
16331TIP3    H170484   4.855   5.554  15.735  0.1936  0.7422 -2.0228
16331TIP3    H270485   4.976   5.644  15.749 -0.5072  1.4247 -0.0093
16332TIP3   OH270486   1.718   2.279   0.850  0.3748  0.1270  0.3188
16332TIP3    H170487   1.720   2.189   0.882 -0.0276  0.4633  1.3474
16332TIP3    H270488   1.662   2.325   0.913  1.1698  1.2478  0.2312
16333TIP3   OH270489   5.589   3.908   0.037 -0.0374 -0.4094  0.4246
16333TIP3    H170490   5.585   3.815   0.017 -0.1936 -0.4768  0.7515
16333TIP3    H270491   5.572   3.952  -0.046  0.1795 -0.6709  0.2404
16334TIP3   OH270492   4.879   6.149   2.767  0.2949  0.1388 -0.0006
16334TIP3    H170493   4.908   6.194   2.846  2.6816  1.5770 -1.5717
16334TIP3    H270494   4.953   6.092   2.744  0.2092  0.7234 -1.8673
16335TIP3   OH270495   5.971   5.926  15.099  0.2954  0.1219 -0.5155
16335TIP3    H170496   5.931   6.009  15.074  1.1409  0.2707 -1.4462
16335TIP3    H270497   5.938   5.864  15.033 -0.2747 -0.2843  0.1309
16336TIP3   OH270498   1.102   5.891   1.582 -0.2948  1.1408  0.2978
16336TIP3    H170499   1.034   5.858   1.523 -0.3877  0.3816  0.8216
16336TIP3    H270500   1.064   5.970   1.620 -0.1988  1.6911 -0.7200
16337TIP3   OH270501   1.173   6.142   0.226 -0.0507 -1.0135 -0.1346
16337TIP3    H170502   1.209   6.229   0.207  0.2095 -1.5053 -2.0607
16337TIP3    H270503   1.091   6.160   0.272  0.0434  0.2622 -0.4215
16338TIP3   OH270504   5.880   2.375  16.021  0.2128 -0.4585  0.0938
16338TIP3    H170505   5.897   2.367  15.927 -3.0167  1.7690 -0.8397
16338TIP3    H270506   5.845   2.289  16.046 -0.5883 -0.5220 -1.1683
16339TIP3   OH270507   5.630   3.362  13.023 -0.1742  0.2452  0.2451
16339TIP3    H170508   5.551   3.341  12.975  0.9502  1.2655 -2.2002
16339TIP3    H270509   5.632   3.458  13.026  0.5612  0.2252  1.0111
16340TIP3   OH270510   1.607   4.854   0.357 -0.4086  0.0272  0.2528
16340TIP3    H170511   1.681   4.812   0.311  0.7559  2.3386 -0.1110
16340TIP3    H270512   1.565   4.908   0.290 -1.8919 -0.5321  0.7048
16341TIP3   OH270513   4.488   6.364   2.291 -0.1116 -0.1861 -0.8942
16341TIP3    H170514   4.509   6.368   2.384  0.9688  0.0203 -1.1360
16341TIP3    H270515   4.403   6.318   2.288  1.6663 -3.9597 -0.0293
16342TIP3   OH270516   0.053   3.583  13.822  0.1413 -0.5016 -0.4443
16342TIP3    H170517   0.046   3.678  13.832 -2.7308 -0.8033  2.1882
16342TIP3    H270518   0.116   3.570  13.751 -0.5529  3.3582 -1.9966
16343TIP3   OH270519   3.838   2.386  15.271 -0.1091 -0.1964  0.7818
16343TIP3    H170520   3.883   2.462  15.308  1.2502  0.6560 -2.3289
16343TIP3    H270521   3.755   2.420  15.239  0.6262  0.1426 -0.8839
16344TIP3   OH270522   1.603   5.377  17.229 -0.2692 -0.3154  0.1706
16344TIP3    H170523   1.694   5.398  17.210  0.0047 -0.1157  1.6230
16344TIP3    H270524   1.604   5.283  17.247 -0.3158 -0.2654  0.4269
16345TIP3   OH270525   0.791   0.592   0.592  0.3737 -0.0295 -0.2487
16345TIP3    H170526   0.817   0.633   0.509  0.6353 -0.3250 -0.3152
16345TIP3    H270527   0.698   0.613   0.601 -0.2087 -1.7236 -1.6575
16346TIP3   OH270528   3.869   0.887   5.441 -0.2087  0.2004  0.5563
16346TIP3    H170529   3.774   0.897   5.430 -0.0541  0.4026 -0.8267
16346TIP3    H270530   3.895   0.829   5.370  0.7928  0.6849  0.5116
16347TIP3   OH270531   3.619   1.542   6.295 -0.0051  0.1181  0.3698
16347TIP3    H170532   3.574   1.463   6.264  1.3144 -0.2866 -0.5706
16347TIP3    H270533   3.708   1.512   6.316  0.9828  1.6318 -1.4409
16348TIP3   OH270534   0.774   5.412  13.470 -0.1392  0.2395 -0.8356
16348TIP3    H170535   0.780   5.317  13.456 -0.0949  0.0026  0.5614
16348TIP3    H270536   0.710   5.421  13.540  1.3000  1.0647  0.4395
16349TIP3   OH270537   1.287   0.732  16.079  0.4207  0.3087 -0.3372
16349TIP3    H170538   1.286   0.791  16.155 -2.7864 -3.0128  2.5480
16349TIP3    H270539   1.241   0.782  16.011  0.3587  2.1890  0.9817
16350TIP3   OH270540   2.511   1.608  15.683  0.4826  0.5496 -0.1246
16350TIP3    H170541   2.532   1.610  15.589  2.0810 -0.9194  0.1586
16350TIP3    H270542   2.423   1.645  15.688 -0.4120 -1.0126 -2.4489
16351TIP3   OH270543   4.804   5.807   5.415  0.1659  0.0660 -0.0177
16351TIP3    H170544   4.751   5.885   5.434 -0.8066 -0.6061  0.0797
16351TIP3    H270545   4.765   5.738   5.468 -0.4899 -1.0577 -1.8655
16352TIP3   OH270546   4.129   4.305  14.312 -0.6000 -0.1874  0.1053
16352TIP3    H170547   4.123   4.224  14.263  2.8823 -0.0389 -0.8599
16352TIP3    H270548   4.166   4.279  14.397  1.6345  0.3559 -0.6126
16353TIP3   OH270549   3.774   2.144   1.832  0.5633 -0.0760  0.2993
16353TIP3    H170550   3.754   2.178   1.919  0.0214  0.9183 -0.1955
16353TIP3    H270551   3.830   2.068   1.848 -0.6909 -0.7632  1.5718
16354TIP3   OH270552   3.302   4.640   1.061  0.4868  0.2407  0.0088
16354TIP3    H170553   3.219   4.636   1.109  1.5616  0.4272  2.0105
16354TIP3    H270554   3.319   4.549   1.036 -1.1183  0.4168 -1.9909
16355TIP3   OH270555   4.757   1.583  13.537  0.3124  0.2338  0.5647
16355TIP3    H170556   4.695   1.621  13.474 -2.3958 -0.5843  2.5685
16355TIP3    H270557   4.720   1.497  13.557  3.9963 -1.8233 -0.6613
16356TIP3   OH270558   4.648   2.549  14.796  0.5201 -0.3355  0.0595
16356TIP3    H170559   4.639   2.641  14.820 -1.0401 -0.4494  0.0355
16356TIP3    H270560   4.660   2.503  14.879 -2.5210 -0.4752  0.5302
16357TIP3   OH270561   5.190   0.967   4.004 -0.0726  0.1738 -0.0833
16357TIP3    H170562   5.155   0.992   3.918 -1.3002  1.5080  0.7701
16357TIP3    H270563   5.251   1.037   4.026 -0.1879  0.1340  0.3702
16358TIP3   OH270564   5.821   3.493   3.310  0.0980  0.0251 -0.2803
16358TIP3    H170565   5.832   3.450   3.226  0.5135  1.6637 -1.1035
16358TIP3    H270566   5.827   3.586   3.291 -2.4995  0.6056  1.1311
16359TIP3   OH270567   1.257   5.450   2.717  0.1681  0.0761 -0.0459
16359TIP3    H170568   1.262   5.536   2.760 -0.5160  0.0798  0.0436
16359TIP3    H270569   1.175   5.413   2.750 -0.4034  0.1036 -1.3958
16360TIP3   OH270570   1.323   0.592   6.356 -0.9812 -0.2991 -0.1528
16360TIP3    H170571   1.251   0.535   6.380  0.5989 -3.0433 -1.4970
16360TIP3    H270572   1.397   0.562   6.409  0.1749 -0.2710 -1.6711
16361TIP3   OH270573   0.764   0.476   1.139  0.1453 -0.4711 -0.4841
16361TIP3    H170574   0.768   0.481   1.043 -0.2774 -1.3045 -0.5584
16361TIP3    H270575   0.675   0.445   1.158 -0.5828  1.9350  0.3002
16362TIP3   OH270576   5.238   3.161   0.639  0.3538  0.4050 -0.6566
16362TIP3    H170577   5.153   3.205   0.630  1.2156  2.1840 -0.4908
16362TIP3    H270578   5.216   3.067   0.640 -1.6401  0.8199 -0.1967
16363TIP3   OH270579   3.667   6.639   2.988 -0.2931  0.5773 -0.2287
16363TIP3    H170580   3.699   6.640   3.078 -0.8980  1.7263 -0.0101
16363TIP3    H270581   3.608   6.714   2.982 -1.8350 -0.6296 -1.0161
16364TIP3   OH270582   3.454   0.586  13.991  0.4107 -0.0249  0.3863
16364TIP3    H170583   3.471   0.570  13.898  0.4882  0.1569  0.3673
16364TIP3    H270584   3.499   0.515  14.036 -3.2101 -2.7551  0.1224
16365TIP3   OH270585   3.453   4.919  11.930  0.5684 -0.0835  0.1989
16365TIP3    H170586   3.395   4.852  11.968  0.7082 -0.8210 -0.8283
16365TIP3    H270587   3.394   4.977  11.882  0.5610 -0.2172  0.0420
16366TIP3   OH270588   4.873   2.352   4.212 -0.0464 -0.1948 -0.6915
16366TIP3    H170589   4.835   2.270   4.182 -2.0262 -0.0916  1.3158
16366TIP3    H270590   4.807   2.418   4.191 -0.1706  0.2970  1.0800
16367TIP3   OH270591   3.703   5.806  11.234  0.2439  0.1606  0.0123
16367TIP3    H170592   3.673   5.894  11.211  1.3156  1.1693  2.1884
16367TIP3    H270593   3.787   5.797  11.190 -1.1106 -1.0027 -2.5819
16368TIP3   OH270594   3.446   0.136  16.501  0.0282 -0.0900 -0.9227
16368TIP3    H170595   3.492   0.059  16.467 -0.0305 -1.8641  2.4935
16368TIP3    H270596   3.512   0.183  16.552 -0.8424 -0.1819  0.3386
16369TIP3   OH270597   6.603   4.834   4.387 -0.6399  0.1933  0.0625
16369TIP3    H170598   6.639   4.913   4.428 -0.9834  0.6704 -0.5481
16369TIP3    H270599   6.678   4.775   4.380 -0.7770 -0.3494  2.3723
16370TIP3   OH270600   2.661   4.080  15.248  0.1915 -0.0231 -0.2334
16370TIP3    H170601   2.588   4.124  15.204  0.7455  0.0146 -1.1377
16370TIP3    H270602   2.636   3.988  15.249 -0.5475  0.1742  0.8262
16371TIP3   OH270603   3.948   2.578  17.124  0.4636  0.3774 -0.3525
16371TIP3    H170604   3.976   2.668  17.143  0.7959  0.0754  0.6890
16371TIP3    H270605   4.027   2.526  17.138 -0.1105 -0.2549  0.6193
16372TIP3   OH270606   1.230   4.139   5.953  0.6547 -0.0034  0.0859
16372TIP3    H170607   1.286   4.132   5.875  0.1683  0.7699 -0.3395
16372TIP3    H270608   1.151   4.092   5.929  0.5835  0.0640  0.1905
16373TIP3   OH270609   1.391   6.695  15.290 -0.4900  0.3020 -0.9756
16373TIP3    H170610   1.451   6.637  15.242  0.3726 -1.1633  1.6682
16373TIP3    H270611   1.399   6.779  15.246  0.2481 -0.8897 -3.3283
16374TIP3   OH270612   4.285   1.080  15.258 -0.1471 -0.2538 -0.5607
16374TIP3    H170613   4.333   1.153  15.297 -0.3259 -0.6187  0.3673
16374TIP3    H270614   4.214   1.121  15.210 -0.3437  0.1865  0.0884
16375TIP3   OH270615   1.317   5.244   0.580  0.6076  0.4690  0.4037
16375TIP3    H170616   1.394   5.200   0.545 -0.8830 -0.4850 -1.8802
16375TIP3    H270617   1.335   5.252   0.674  2.4032 -1.9700  0.3704
16376TIP3   OH270618   3.204   6.391   3.806 -0.4384 -0.0725 -0.1558
16376TIP3    H170619   3.126   6.438   3.777 -0.7022  0.6922  1.6590
16376TIP3    H270620   3.177   6.345   3.885  0.6350 -0.8319 -0.2099
16377TIP3   OH270621   4.856   6.578  14.729 -0.0175  0.4265 -0.3322
16377TIP3    H170622   4.798   6.616  14.795 -0.8930  0.6053 -1.1843
16377TIP3    H270623   4.823   6.612  14.646  0.6405 -0.3518 -0.9237
16378TIP3   OH270624   5.351   6.714   5.608  0.0921  0.1423  0.0574
16378TIP3    H170625   5.368   6.627   5.573 -1.1881 -0.4787  0.8797
16378TIP3    H270626   5.371   6.707   5.701 -2.4427 -0.0649  0.6583
16379TIP3   OH270627   6.803   3.323  15.746 -0.1887 -0.0185  0.1886
16379TIP3    H170628   6.840   3.350  15.830  0.6001  0.5652 -0.3356
16379TIP3    H270629   6.827   3.231  15.737  0.6951  0.2134  0.1016
16380TIP3   OH270630   4.755   1.902   0.828  0.5923  0.1781  0.2869
16380TIP3    H170631   4.733   1.989   0.795 -0.8024 -0.2263  0.0879
16380TIP3    H270632   4.730   1.904   0.920 -0.2451 -0.2591  0.0801
16381TIP3   OH270633   4.638   3.513   2.003 -0.3544  0.7318 -0.2949
16381TIP3    H170634   4.559   3.542   2.047  0.8902  2.3532  0.9953
16381TIP3    H270635   4.667   3.437   2.054 -0.6077  0.6705 -0.2405
16382TIP3   OH270636   5.186   4.720   5.295  0.1678  0.3398  0.2788
16382TIP3    H170637   5.250   4.708   5.224  1.7707 -1.4131  1.8963
16382TIP3    H270638   5.101   4.705   5.253  0.8480  1.6046 -1.6987
16383TIP3   OH270639   4.070   0.153  15.751 -0.0173  0.6822 -0.2228
16383TIP3    H170640   4.014   0.088  15.793  1.3238  0.0008  0.6184
16383TIP3    H270641   4.063   0.230  15.806  0.9255  0.1317  0.7141
16384TIP3   OH270642   6.590   0.432   0.404 -0.1414 -0.2068 -0.4261
16384TIP3    H170643   6.590   0.454   0.497 -0.2051  0.9073 -0.6805
16384TIP3    H270644   6.501   0.451   0.375  0.1302  0.3423 -0.9120
16385TIP3   OH270645   5.236   4.420   4.448  0.1424 -0.1914  0.2245
16385TIP3    H170646   5.193   4.401   4.365 -1.0904  0.8597  0.5918
16385TIP3    H270647   5.310   4.476   4.425 -1.8279  2.5295  0.0167
16386TIP3   OH270648   0.442   4.985  16.820 -0.1520 -0.1244 -0.2274
16386TIP3    H170649   0.394   5.063  16.847 -0.7216 -0.6890  0.4068
16386TIP3    H270650   0.533   5.014  16.813 -0.4032  0.6637 -0.2859
16387TIP3   OH270651   1.373   3.884  12.647 -0.2360 -0.1532 -0.1647
16387TIP3    H170652   1.277   3.890  12.643 -0.2692 -1.1247 -2.6654
16387TIP3    H270653   1.404   3.966  12.608 -0.0833 -0.3353 -0.4306
16388TIP3   OH270654   2.923   4.562  12.538 -0.2913 -0.1899 -1.2069
16388TIP3    H170655   2.923   4.503  12.462 -2.3371  0.7461 -2.0031
16388TIP3    H270656   2.966   4.642  12.505  1.1498 -0.6613 -0.5637
16389TIP3   OH270657   4.741   2.649  14.229  0.4976  0.3433 -0.0871
16389TIP3    H170658   4.742   2.562  14.189  1.0668 -0.6047  1.8608
16389TIP3    H270659   4.804   2.643  14.301  0.5693  2.3864  0.0797
16390TIP3   OH270660   3.591   4.144  17.250 -0.1671  0.3372 -0.0130
16390TIP3    H170661   3.621   4.136  17.341 -0.1555 -0.4883 -0.0872
16390TIP3    H270662   3.563   4.235  17.243 -0.3411  0.3668  0.8756
16391TIP3   OH270663   6.642   3.347  13.638  0.1741  0.2737 -0.4123
16391TIP3    H170664   6.622   3.333  13.731  1.8246  3.1306  0.5031
16391TIP3    H270665   6.586   3.421  13.612  0.4993  0.1864 -1.3943
16392TIP3   OH270666   5.345   3.009  13.742  0.0724  0.0093  0.2425
16392TIP3    H170667   5.392   2.946  13.797 -0.5088 -0.5099  0.1549
16392TIP3    H270668   5.280   2.956  13.696 -1.1870  0.8373  1.0116
16393TIP3   OH270669   6.492   3.806   3.035 -0.2580  0.2324  0.3987
16393TIP3    H170670   6.421   3.870   3.036 -1.5590 -1.1265 -0.7583
16393TIP3    H270671   6.557   3.843   2.975 -1.0945  0.3957 -0.4314
16394TIP3   OH270672   6.532   3.339  10.553 -0.0127  0.1212 -0.1786
16394TIP3    H170673   6.608   3.371  10.505 -0.3409  1.2518 -0.0002
16394TIP3    H270674   6.555   3.354  10.645 -0.7042  1.1604 -0.1471
16395TIP3   OH270675   0.840   4.173   5.930  0.4746  0.5987  0.2462
16395TIP3    H170676   0.906   4.213   5.986 -1.7004  2.3700  1.7134
16395TIP3    H270677   0.819   4.090   5.973  1.7463 -0.0277 -0.2878
16396TIP3   OH270678   3.325   1.761  17.086 -0.3119  0.4106 -0.2971
16396TIP3    H170679   3.394   1.714  17.041 -1.0096  1.2843 -2.4208
16396TIP3    H270680   3.246   1.711  17.068 -0.5954  0.7432  0.0085
16397TIP3   OH270681   3.535   3.754   1.816  0.5838 -0.5020 -0.0898
16397TIP3    H170682   3.491   3.829   1.776  0.7691  0.0041  0.6408
16397TIP3    H270683   3.561   3.699   1.741  1.9008  0.9550 -0.7700
16398TIP3   OH270684   6.102   3.511  16.520 -0.3417  0.0585 -0.7409
16398TIP3    H170685   6.159   3.587  16.529  0.8217 -0.6336 -1.9017
16398TIP3    H270686   6.099   3.472  16.607  0.0193  0.7662 -0.4064
16399TIP3   OH270687   3.761   5.753   4.047  0.1492  0.1398  0.1952
16399TIP3    H170688   3.680   5.755   3.997 -0.1504 -2.0979  0.4702
16399TIP3    H270689   3.821   5.810   3.999 -1.5107  1.7174 -0.0879
16400TIP3   OH270690   5.410   2.491   5.869 -0.0158 -0.0300  0.0322
16400TIP3    H170691   5.358   2.475   5.947 -0.0627 -1.5264 -0.2756
16400TIP3    H270692   5.419   2.586   5.865 -1.6341  0.1903  0.7937
16401TIP3   OH270693   4.766   5.118   0.493  0.4846 -0.5470  0.0566
16401TIP3    H170694   4.672   5.135   0.497  0.7936  1.1998  2.1720
16401TIP3    H270695   4.801   5.189   0.438  0.7466  0.1583  1.0841
16402TIP3   OH270696   3.871   1.500   1.342 -0.1493 -0.6259  0.6087
16402TIP3    H170697   3.942   1.538   1.291  0.7896 -2.6723  0.2844
16402TIP3    H270698   3.906   1.417   1.374 -1.1135  0.0024  3.6133
16403TIP3   OH270699   6.038   4.137  14.353 -0.0964 -0.4186 -0.0532
16403TIP3    H170700   5.984   4.216  14.350  0.5130 -0.0165 -0.4977
16403TIP3    H270701   6.106   4.151  14.287  1.4659 -0.2522  1.5252
16404TIP3   OH270702   3.894   3.868   0.005  0.2418  0.2082  0.0211
16404TIP3    H170703   3.869   3.945   0.057 -0.3608 -0.1841  0.3262
16404TIP3    H270704   3.895   3.900  -0.085 -1.0875  0.3319  0.0235
16405TIP3   OH270705   6.269   3.905  11.064 -0.1893 -0.1965 -0.4683
16405TIP3    H170706   6.233   3.944  10.985  0.2116  0.6830 -0.2318
16405TIP3    H270707   6.338   3.847  11.033  0.2465  0.4619 -0.7491
16406TIP3   OH270708   1.936   0.814   0.858 -0.3271 -0.0996 -0.5784
16406TIP3    H170709   1.902   0.902   0.846  0.1124  0.3419  1.1668
16406TIP3    H270710   2.030   0.826   0.870 -0.4235 -0.6536  0.9060
16407TIP3   OH270711   0.767   0.860   5.492 -0.3128 -0.3339 -0.0882
16407TIP3    H170712   0.820   0.852   5.571  0.0345  2.7513  0.1183
16407TIP3    H270713   0.830   0.860   5.420 -0.1425  1.5342  0.0264
16408TIP3   OH270714   5.156   4.213   3.115  0.7065 -0.0200  0.4925
16408TIP3    H170715   5.123   4.216   3.205 -0.1737 -1.1864  0.2325
16408TIP3    H270716   5.156   4.120   3.093  0.1642  0.3130 -0.9855
16409TIP3   OH270717   6.225   2.669  13.419 -0.1034  0.6897 -0.3975
16409TIP3    H170718   6.228   2.727  13.495 -0.8518  0.8618 -0.4932
16409TIP3    H270719   6.136   2.636  13.417  0.7254 -1.8150  0.6142
16410TIP3   OH270720   5.453   2.771   5.879 -0.5954 -0.0837  0.5017
16410TIP3    H170721   5.479   2.855   5.841 -0.0220 -0.7703 -0.6448
16410TIP3    H270722   5.449   2.789   5.974 -2.8365  1.8545  0.1588
16411TIP3   OH270723   5.234   4.980   1.898 -0.2683  0.0423 -0.1440
16411TIP3    H170724   5.140   4.969   1.884 -0.7340  1.7040  1.2976
16411TIP3    H270725   5.252   4.932   1.979  0.3031 -0.9203 -0.8247
16412TIP3   OH270726   0.893   5.637  16.207  0.0458  0.2010 -0.1755
16412TIP3    H170727   0.881   5.611  16.298  1.3060 -1.5822 -0.4620
16412TIP3    H270728   0.979   5.679  16.205  0.1033  0.0687 -0.5712
16413TIP3   OH270729   6.503   5.585  15.712 -0.3337 -0.4150  0.0797
16413TIP3    H170730   6.484   5.674  15.682  0.2830  0.1717  1.3443
16413TIP3    H270731   6.417   5.547  15.728 -0.6023 -0.0306 -0.4079
16414TIP3   OH270732   1.358   5.003   4.611  0.2854 -0.5002  0.9085
16414TIP3    H170733   1.407   5.011   4.693 -2.5203 -1.9923  2.9118
16414TIP3    H270734   1.298   5.078   4.611  0.4407 -0.3617  0.0418
16415TIP3   OH270735   6.615   6.496   4.408  0.3330 -0.2402  0.9140
16415TIP3    H170736   6.605   6.525   4.318 -0.7965 -0.9066  0.8102
16415TIP3    H270737   6.665   6.566   4.451  0.9811  0.0227 -0.2437
16416TIP3   OH270738   1.763   6.562  15.886  0.3671  0.9035 -0.2476
16416TIP3    H170739   1.775   6.647  15.843 -2.6896  0.7172 -1.6864
16416TIP3    H270740   1.723   6.507  15.820 -0.4948 -0.7578  1.5676
16417TIP3   OH270741   1.829   3.095  13.512  0.4254  0.0467 -0.1001
16417TIP3    H170742   1.815   3.161  13.579  1.0854 -0.6323  0.7272
16417TIP3    H270743   1.901   3.041  13.545  0.6945 -0.3645 -1.3075
16418TIP3   OH270744   5.507   6.219   5.030 -0.2070 -0.7974  0.8834
16418TIP3    H170745   5.556   6.300   5.036 -0.7057 -0.3674 -0.4880
16418TIP3    H270746   5.468   6.207   5.117  0.5444 -0.0146  1.3320
16419TIP3   OH270747   4.211   1.332   2.957 -0.3540 -0.0119 -0.6355
16419TIP3    H170748   4.229   1.301   3.046  0.5815 -0.7681 -1.0787
16419TIP3    H270749   4.199   1.427   2.967 -0.3447 -0.0970  0.3020
16420TIP3   OH270750   4.181   0.372  13.299  0.0468  0.0424  0.4421
16420TIP3    H170751   4.111   0.420  13.254  0.5028  0.3470  0.0586
16420TIP3    H270752   4.248   0.437  13.316  0.2744 -0.2702  0.7399
16421TIP3   OH270753   3.900   1.478   4.524 -0.3904 -0.3274 -0.0814
16421TIP3    H170754   3.807   1.499   4.528 -0.4480 -0.7816  1.6626
16421TIP3    H270755   3.904   1.383   4.536  0.3274 -0.1985  0.8560
16422TIP3   OH270756   0.838   1.531   5.779 -0.1833  0.6579 -0.0963
16422TIP3    H170757   0.889   1.463   5.824 -0.1009 -0.6065 -1.9401
16422TIP3    H270758   0.898   1.605   5.772  1.5074 -0.7465 -2.0913
16423TIP3   OH270759   2.956   2.500   3.048  0.0488 -0.4308 -0.5553
16423TIP3    H170760   3.015   2.448   3.103 -0.3459  0.4623  0.7746
16423TIP3    H270761   2.997   2.498   2.961  1.0434 -1.3582 -0.0976
16424TIP3   OH270762   2.799   6.354  13.834  0.4263  0.1986 -0.0185
16424TIP3    H170763   2.888   6.329  13.811  0.8355  2.0627 -0.6599
16424TIP3    H270764   2.801   6.364  13.929  0.7419 -0.2941  0.0301
16425TIP3   OH270765   0.925   5.768   2.129 -0.3056 -0.3865  0.4729
16425TIP3    H170766   0.971   5.684   2.139  1.0071  0.5119  3.3188
16425TIP3    H270767   0.836   5.744   2.103  0.0962 -2.6415  0.9147
16426TIP3   OH270768   2.205   2.531  14.956 -0.3804  0.0184 -0.4947
16426TIP3    H170769   2.159   2.488  15.028 -0.3341 -0.3018 -0.6544
16426TIP3    H270770   2.154   2.510  14.878  0.0098 -0.3088 -0.6679
16427TIP3   OH270771   1.016   4.509  13.579  0.1200  0.2039  0.5124
16427TIP3    H170772   1.080   4.480  13.644 -0.7774 -1.6323  0.6547
16427TIP3    H270773   0.949   4.554  13.630  0.3375  0.4082  0.6187
16428TIP3   OH270774   2.994   6.602   1.957 -1.0419 -0.0793 -0.3150
16428TIP3    H170775   3.080   6.586   1.994 -0.3191  2.9619 -0.3774
16428TIP3    H270776   2.961   6.516   1.931  1.3722 -1.4627  0.9651
16429TIP3   OH270777   6.083   4.335  14.681  0.0736 -0.2905 -0.1000
16429TIP3    H170778   6.012   4.318  14.619 -0.3732  2.0127 -0.3209
16429TIP3    H270779   6.044   4.392  14.747  0.6261 -2.3982  2.2120
16430TIP3   OH270780   2.436   2.707   0.803  0.4025 -0.2464 -0.6152
16430TIP3    H170781   2.458   2.784   0.856  0.5381 -0.8376  0.2044
16430TIP3    H270782   2.468   2.633   0.854  1.5127 -0.7748 -2.0368
16431TIP3   OH270783   6.483   4.827  15.799 -0.4061  0.0147  0.2400
16431TIP3    H170784   6.524   4.852  15.716  0.2137  0.3643  0.6393
16431TIP3    H270785   6.416   4.893  15.814 -1.0334 -0.4807 -0.3521
16432TIP3   OH270786   6.417   6.224   1.407  0.3244  0.0205  0.3240
16432TIP3    H170787   6.456   6.267   1.332 -0.7672 -0.3041 -0.4507
16432TIP3    H270788   6.373   6.147   1.371 -2.5770  1.3072  0.8624
16433TIP3   OH270789   3.022   1.594  11.274  0.5212  0.3451  0.4393
16433TIP3    H170790   3.054   1.667  11.221 -2.2680  2.1001  0.9584
16433TIP3    H270791   3.001   1.633  11.359 -1.3175 -0.9720  0.6493
16434TIP3   OH270792   5.565   0.953  11.089 -0.0855  0.0327 -0.0391
16434TIP3    H170793   5.486   0.912  11.054 -0.3053  1.6790 -1.5642
16434TIP3    H270794   5.608   0.992  11.013  2.3860 -1.0485  0.6830
16435TIP3   OH270795   5.857   4.732  14.075  0.1985  0.3149 -0.5467
16435TIP3    H170796   5.866   4.774  14.160 -1.1999  0.5645 -0.5037
16435TIP3    H270797   5.843   4.639  14.096  3.2931 -0.2846 -0.6418
16436TIP3   OH270798   0.049   5.404  11.468  0.0995 -0.1008 -0.3264
16436TIP3    H170799  -0.019   5.444  11.523 -0.6916  0.0603 -1.3986
16436TIP3    H270800   0.127   5.406  11.523 -0.4520  0.8719  0.4688
16437TIP3   OH270801   5.288   3.938   2.350 -0.2126 -0.4479  0.4833
16437TIP3    H170802   5.354   3.883   2.392 -0.7048 -0.2881  1.4897
16437TIP3    H270803   5.304   4.026   2.385  0.1809 -0.0490 -0.6478
16438TIP3   OH270804   6.087   4.583  11.829 -0.2230  0.1284 -0.0975
16438TIP3    H170805   6.116   4.619  11.913 -0.3787 -3.1126  1.4975
16438TIP3    H270806   6.026   4.513  11.853 -1.8695  0.3873 -3.0410
16439TIP3   OH270807   0.355   3.278  17.020  0.4415  0.5081  0.3667
16439TIP3    H170808   0.363   3.271  16.925 -3.5581  0.9745 -0.1856
16439TIP3    H270809   0.365   3.188  17.052  0.9120  0.2184 -0.5745
16440TIP3   OH270810   3.063   5.064   3.918 -0.3428  0.3019  0.0149
16440TIP3    H170811   3.087   5.101   4.003 -2.8541 -0.7230  1.2680
16440TIP3    H270812   2.987   5.115   3.890 -0.4728 -0.3640 -0.8953
16441TIP3   OH270813   2.601   6.641   5.536 -0.1911  0.0519  0.1740
16441TIP3    H170814   2.649   6.678   5.610  0.4390  1.2219 -0.7758
16441TIP3    H270815   2.562   6.561   5.570  2.5104 -1.0288  0.9953
16442TIP3   OH270816   5.580   4.438  14.009  0.4084 -0.4272 -0.1340
16442TIP3    H170817   5.607   4.479  13.927  2.6721  0.2866  0.8885
16442TIP3    H270818   5.517   4.371  13.983 -1.0617  1.5898 -2.1586
16443TIP3   OH270819   1.509   0.674  13.560  0.4949 -0.0168  0.6386
16443TIP3    H170820   1.525   0.692  13.467 -0.5493  1.1553  0.6612
16443TIP3    H270821   1.591   0.698  13.604  1.1613 -1.0204 -0.0095
16444TIP3   OH270822   3.146   4.566  15.342  0.4370 -0.0920  0.8345
16444TIP3    H170823   3.222   4.609  15.304 -0.8099  0.9732 -0.5261
16444TIP3    H270824   3.118   4.503  15.276 -2.6192  2.7801 -0.8494
16445TIP3   OH270825   1.025   1.573   2.680  0.0813 -0.6368 -0.1572
16445TIP3    H170826   1.045   1.593   2.588  1.4752 -1.7471 -0.1357
16445TIP3    H270827   0.970   1.494   2.675  0.6030 -1.0146 -0.0380
16446TIP3   OH270828   0.378   1.359  11.225 -0.2796 -0.0105 -0.2149
16446TIP3    H170829   0.303   1.351  11.165 -0.0743  1.0337 -0.6349
16446TIP3    H270830   0.371   1.283  11.282 -1.0200 -0.5294 -0.9728
16447TIP3   OH270831   3.154   6.426   6.414 -0.0897  0.7150  0.1699
16447TIP3    H170832   3.153   6.518   6.388 -2.2925  0.2971 -1.5330
16447TIP3    H270833   3.118   6.425   6.503 -2.2631  1.3533 -0.6516
16448TIP3   OH270834   3.094   2.322  17.051  0.6087  0.2279  0.0855
16448TIP3    H170835   3.185   2.295  17.036  0.2578 -0.1758 -1.5931
16448TIP3    H270836   3.088   2.410  17.013  0.1807  0.0516 -0.2621
16449TIP3   OH270837   4.258   2.086  15.725 -0.4004 -0.4528  0.6960
16449TIP3    H170838   4.199   2.151  15.687 -0.9222 -0.9574  0.6323
16449TIP3    H270839   4.345   2.124  15.714 -0.5652 -0.4258 -0.6975
16450TIP3   OH270840   2.508   1.695  13.425  0.3267  0.2609  0.5336
16450TIP3    H170841   2.494   1.709  13.518  2.9718  0.6864  0.9392
16450TIP3    H270842   2.528   1.781  13.390 -1.8777  0.3282 -0.7492
16451TIP3   OH270843   5.065   2.718   2.989 -0.0488 -0.3569  0.1875
16451TIP3    H170844   5.028   2.762   3.065  1.0200  0.2849  0.3681
16451TIP3    H270845   5.155   2.751   2.984 -0.4937  0.7099 -2.1840
16452TIP3   OH270846   5.259   5.826  14.343  0.5526  0.3408  0.1617
16452TIP3    H170847   5.310   5.884  14.286 -1.9154  0.3192 -2.2980
16452TIP3    H270848   5.210   5.886  14.400  0.1501  0.5766 -0.4180
16453TIP3   OH270849   3.070   6.273  13.842  0.0733 -0.8433 -0.2261
16453TIP3    H170850   3.108   6.233  13.764  4.2045  0.5327  0.8025
16453TIP3    H270851   3.105   6.222  13.915 -1.4663 -0.4589  0.8246
16454TIP3   OH270852   6.149   3.981  10.831  0.2727 -0.6485 -0.5222
16454TIP3    H170853   6.079   4.046  10.835 -1.5520 -2.6096  1.2335
16454TIP3    H270854   6.190   3.997  10.746 -2.6388  0.2483 -1.8960
16455TIP3   OH270855   6.503   4.275  10.725 -0.4047  0.2332  0.2827
16455TIP3    H170856   6.510   4.365  10.695 -0.0109  0.5497  1.2791
16455TIP3    H270857   6.496   4.223  10.645  2.0958  0.9117 -0.4719
16456TIP3   OH270858   5.311   3.194  12.739  0.8848 -0.4063 -0.2843
16456TIP3    H170859   5.317   3.152  12.825 -0.3221 -0.1627 -0.0636
16456TIP3    H270860   5.302   3.287  12.758 -1.0688 -0.4946 -0.5769
16457TIP3   OH270861   3.071   4.264   4.295  0.7606  0.0483  0.3891
16457TIP3    H170862   3.007   4.227   4.234 -0.9037  1.2516  1.3277
16457TIP3    H270863   3.119   4.329   4.244 -0.1948  0.6024  0.1635
16458TIP3   OH270864   3.214   2.800   1.896 -0.6380  0.6020  0.1588
16458TIP3    H170865   3.162   2.838   1.968 -0.2277 -1.3112  1.5375
16458TIP3    H270866   3.168   2.719   1.874  0.9127 -0.3821  0.4030
16459TIP3   OH270867   1.910   5.817   4.808 -0.6265  0.0380  0.1489
16459TIP3    H170868   1.987   5.873   4.796  0.9914 -2.0372  0.2637
16459TIP3    H270869   1.907   5.764   4.728 -1.7283 -0.1703  0.3199
16460TIP3   OH270870   0.813   5.208   5.380  0.4270  0.1876  0.7396
16460TIP3    H170871   0.864   5.161   5.314 -2.5391 -1.0745 -0.8350
16460TIP3    H270872   0.808   5.148   5.454  0.7632  0.1004  0.6926
16461TIP3   OH270873   5.997   3.550   0.665  0.5278 -0.3753  0.0003
16461TIP3    H170874   6.079   3.517   0.703  1.5578  2.3623  0.3830
16461TIP3    H270875   5.930   3.528   0.729  1.2431 -1.1528  0.5053
16462TIP3   OH270876   3.881   4.816  13.583  0.1757  0.1793 -0.1755
16462TIP3    H170877   3.788   4.805  13.601  0.3436 -1.9570 -0.3487
16462TIP3    H270878   3.907   4.891  13.636 -1.2509 -0.3899  1.4158
16463TIP3   OH270879   5.991   3.559   5.630  0.4216 -0.0769  0.5238
16463TIP3    H170880   5.993   3.630   5.693  0.2095  0.9685 -0.6152
16463TIP3    H270881   6.072   3.569   5.580  0.0031 -0.1325 -0.1795
16464TIP3   OH270882   4.103   1.420   6.322 -0.4637 -0.2817  0.0923
16464TIP3    H170883   4.180   1.475   6.339 -1.5189  1.2585  0.1186
16464TIP3    H270884   4.133   1.354   6.260  1.3330 -0.8550  1.4645
16465TIP3   OH270885   1.561   1.752   4.604 -0.3238  0.1482 -0.3535
16465TIP3    H170886   1.608   1.831   4.578 -0.7806 -0.0656 -1.8976
16465TIP3    H270887   1.589   1.686   4.541 -4.0494  0.4573 -2.6527
16466TIP3   OH270888   0.629   3.558  16.005 -0.5013 -0.3062  0.0103
16466TIP3    H170889   0.540   3.545  16.037 -0.9420 -1.0365 -1.3989
16466TIP3    H270890   0.674   3.605  16.075 -2.3744  1.2960  0.2201
16467TIP3   OH270891   5.410   4.024  11.231 -0.3286 -0.1021  0.5739
16467TIP3    H170892   5.460   4.009  11.311  1.4598  0.1912 -0.4457
16467TIP3    H270893   5.444   3.961  11.168  0.1717  1.3974 -0.7296
16468TIP3   OH270894   1.142   6.798  11.205 -0.1108  0.2252  0.5794
16468TIP3    H170895   1.167   6.782  11.114 -0.4573  0.3948  0.4507
16468TIP3    H270896   1.223   6.789  11.255 -0.0506 -0.5833  0.3465
16469TIP3   OH270897   2.114   3.355   1.032 -0.1680 -0.0463 -0.4180
16469TIP3    H170898   2.053   3.281   1.029  1.9555 -1.9452  0.2364
16469TIP3    H270899   2.092   3.401   1.112 -0.3521 -1.0883  0.1501
16470TIP3   OH270900   3.216   2.717   4.735 -0.5890 -0.1191 -0.0993
16470TIP3    H170901   3.183   2.795   4.780 -1.2804  0.6864 -1.8953
16470TIP3    H270902   3.233   2.654   4.805 -0.2267  1.5536  1.3846
16471TIP3   OH270903   5.829   4.175  10.436 -0.1496 -0.1264  0.0063
16471TIP3    H170904   5.875   4.092  10.450  0.1692  0.0701  0.1275
16471TIP3    H270905   5.897   4.236  10.409 -0.6229 -0.3066 -1.7428
16472TIP3   OH270906   2.468   5.422   1.631  0.2645 -0.9349  0.4206
16472TIP3    H170907   2.550   5.380   1.655  0.4839 -0.4162  0.5842
16472TIP3    H270908   2.454   5.398   1.539  0.7110 -0.8447  0.3278
16473TIP3   OH270909   6.673   6.138  15.512 -0.6386  0.4190  0.5448
16473TIP3    H170910   6.584   6.102  15.513 -0.3743 -0.3821 -1.1711
16473TIP3    H270911   6.667   6.218  15.460 -0.5065  0.8521  1.1810
16474TIP3   OH270912   3.761   3.645  14.307 -0.1195  0.0811  0.4715
16474TIP3    H170913   3.697   3.705  14.269  0.1162  0.2862  0.3977
16474TIP3    H270914   3.813   3.699  14.366 -0.9190 -0.3698  1.6335
16475TIP3   OH270915   1.258   6.418   6.286 -0.0977  0.0939 -0.0967
16475TIP3    H170916   1.296   6.363   6.354  0.3629  0.3738 -0.1284
16475TIP3    H270917   1.212   6.487   6.334 -0.7901 -0.3855 -0.0545
16476TIP3   OH270918   1.830   5.521  14.674  0.0265  0.0888  0.5532
16476TIP3    H170919   1.881   5.572  14.737 -1.5107  0.7326  1.3324
16476TIP3    H270920   1.742   5.516  14.712 -0.1082 -2.4576  0.0917
16477TIP3   OH270921   5.721   5.088  16.168 -0.0601 -0.2935  0.4206
16477TIP3    H170922   5.737   4.997  16.194  0.9200 -0.0327  0.7895
16477TIP3    H270923   5.787   5.104  16.100  0.1552  0.3075  0.7658
16478TIP3   OH270924   3.897   1.749   1.063  0.2648 -0.7833  0.1063
16478TIP3    H170925   3.927   1.756   1.153 -0.4600  0.1845  0.2947
16478TIP3    H270926   3.817   1.697   1.068 -0.7078  0.6604  0.2821
16479TIP3   OH270927   3.288   2.709   2.176 -0.5420  0.3314  0.0144
16479TIP3    H170928   3.343   2.711   2.097  0.9395  0.5186  1.0191
16479TIP3    H270929   3.223   2.641   2.158  0.0338  0.0638 -1.1870
16480TIP3   OH270930   6.518   6.196  11.805  0.0090  0.4187 -0.2196
16480TIP3    H170931   6.612   6.206  11.820 -0.0537 -1.1092  1.6128
16480TIP3    H270932   6.478   6.268  11.853  0.2159  1.0093 -0.9142
16481TIP3   OH270933   4.998   5.115   1.633  0.6296  0.1362 -0.9725
16481TIP3    H170934   4.962   5.065   1.706  2.9172  0.6435  0.6209
16481TIP3    H270935   4.937   5.188   1.622 -0.0128 -0.1996  0.1348
16482TIP3   OH270936   0.514   3.727  12.846 -0.4310 -0.0236  0.0529
16482TIP3    H170937   0.452   3.791  12.878  0.0240  0.5330 -0.1567
16482TIP3    H270938   0.530   3.753  12.755 -1.2274 -1.2033 -0.4441
16483TIP3   OH270939   2.584   6.570   1.704  0.0405 -0.0014  0.1261
16483TIP3    H170940   2.670   6.562   1.662  0.3262 -0.8323  0.8417
16483TIP3    H270941   2.603   6.606   1.790 -0.3059 -0.3151  0.3376
16484TIP3   OH270942   2.916   5.424  10.643  0.3763 -0.0397  0.2900
16484TIP3    H170943   2.953   5.452  10.559 -0.9730 -2.0056 -1.0241
16484TIP3    H270944   2.855   5.495  10.666  0.9713  0.6613 -0.2219
16485TIP3   OH270945   4.402   6.313   0.939 -0.0042 -0.0289 -0.7668
16485TIP3    H170946   4.395   6.309   0.844 -0.6039  0.6655 -0.7695
16485TIP3    H270947   4.439   6.229   0.965  1.2456  0.2083 -1.6987
16486TIP3   OH270948   1.922   3.491   3.959  0.2615  0.3873 -0.0047
16486TIP3    H170949   1.875   3.564   4.000 -3.0718 -0.7993 -1.3713
16486TIP3    H270950   1.879   3.413   3.993  1.2342 -0.8064 -1.3997
16487TIP3   OH270951   1.232   3.417   5.933  0.0223 -0.1882  0.1636
16487TIP3    H170952   1.215   3.483   5.866 -2.0127 -0.5083  0.3050
16487TIP3    H270953   1.289   3.460   5.996  1.4871  0.3237 -1.4281
16488TIP3   OH270954   1.420   6.026   2.800  0.6063 -0.0440  0.0294
16488TIP3    H170955   1.363   5.950   2.811  2.1468 -1.0886  1.2846
16488TIP3    H270956   1.368   6.100   2.832 -0.6402 -0.6889 -0.4607
16489TIP3   OH270957   5.573   6.549  11.098  0.3648  0.2999  0.2016
16489TIP3    H170958   5.548   6.529  11.008 -0.4872  2.0938  0.0073
16489TIP3    H270959   5.652   6.603  11.090 -0.3052  1.3426  0.4654
16490TIP3   OH270960   0.606   2.307   3.141 -0.2602  0.1047  0.0547
16490TIP3    H170961   0.676   2.371   3.152  0.8424 -1.0828  0.1840
16490TIP3    H270962   0.646   2.223   3.165 -1.3168 -0.8177 -1.2766
16491TIP3   OH270963   3.700   0.992   5.043 -0.3159  0.1393 -0.5987
16491TIP3    H170964   3.631   1.020   4.982 -0.3213  2.0452  0.1999
16491TIP3    H270965   3.654   0.975   5.125 -0.0428 -0.3504 -0.5410
16492TIP3   OH270966   1.337   0.824   1.274 -0.2008  0.0090  0.3629
16492TIP3    H170967   1.386   0.901   1.244 -2.2384  1.1226 -0.2940
16492TIP3    H270968   1.330   0.767   1.198 -0.8619  0.3870  0.1294
16493TIP3   OH270969   0.445   2.875  15.248 -0.0391  0.4422  0.1066
16493TIP3    H170970   0.359   2.838  15.268 -0.0046  0.8778  1.1402
16493TIP3    H270971   0.428   2.968  15.235  0.3870  0.6716  1.1430
16494TIP3   OH270972   2.270   6.131  15.889 -0.5870 -0.1898  0.3500
16494TIP3    H170973   2.280   6.155  15.797  3.5350 -1.7187  0.1948
16494TIP3    H270974   2.348   6.166  15.931 -1.7100 -0.7020  3.0359
16495TIP3   OH270975   5.587   5.997   6.845  0.1761 -0.9785 -0.4489
16495TIP3    H170976   5.521   5.937   6.810 -0.7975 -0.0891 -0.1997
16495TIP3    H270977   5.628   5.949   6.917  0.4959 -1.9066 -1.2292
16496TIP3   OH270978   5.837   3.547  11.924 -0.3282  0.0337  0.1527
16496TIP3    H170979   5.867   3.541  12.015 -0.5164 -1.6781  0.1386
16496TIP3    H270980   5.790   3.630  11.920 -0.0149  0.3072  1.5281
16497TIP3   OH270981   5.695   6.504   1.144  0.0032  0.1599  0.4552
16497TIP3    H170982   5.654   6.480   1.062 -0.7705  1.4955  0.4239
16497TIP3    H270983   5.789   6.504   1.125 -0.0844 -0.8251 -0.0477
16498TIP3   OH270984   1.536   5.466   4.385 -0.3616 -0.4789 -0.2634
16498TIP3    H170985   1.444   5.483   4.369 -0.4813 -0.6403  0.2491
16498TIP3    H270986   1.579   5.551   4.375 -0.6199 -0.3303 -0.0876
16499TIP3   OH270987   1.712   6.264   0.105  0.0062 -0.2500 -0.6513
16499TIP3    H170988   1.630   6.230   0.070 -0.8728  1.0037  0.0899
16499TIP3    H270989   1.762   6.293   0.028 -0.3358 -0.8153 -1.0881
16500TIP3   OH270990   1.721   3.721   2.300  0.3524  0.1112  0.6746
16500TIP3    H170991   1.638   3.676   2.315 -0.2347  1.0336  0.3036
16500TIP3    H270992   1.698   3.795   2.243  1.7000 -0.5771 -0.8429
16501TIP3   OH270993   1.263   5.870   4.955 -0.0690  0.6512 -0.1915
16501TIP3    H170994   1.306   5.818   4.886 -1.2771 -0.5722 -0.0605
16501TIP3    H270995   1.332   5.928   4.988  1.2089 -0.5438 -0.6776
16502TIP3   OH270996   4.147   5.688  17.077 -0.7751  1.1758  0.0323
16502TIP3    H170997   4.176   5.687  16.986 -0.5808  0.4168  0.0951
16502TIP3    H270998   4.052   5.692  17.072 -0.7705  1.0257 -0.2036
16503TIP3   OH270999   0.963   5.963  15.570 -0.5794 -0.5377 -0.6362
16503TIP3    H171000   0.914   5.939  15.492 -0.5692 -2.9409  0.0345
16503TIP3    H271001   1.022   5.889  15.586  2.2030  1.5095 -0.4935
16504TIP3   OH271002   0.430   4.306  12.577 -0.3152 -0.1114 -0.0082
16504TIP3    H171003   0.395   4.393  12.598 -0.4939  0.1905 -1.4644
16504TIP3    H271004   0.524   4.318  12.571 -0.0081 -0.6456  2.5779
16505TIP3   OH271005   0.225   1.179  16.720  0.3594  0.5140  0.0590
16505TIP3    H171006   0.183   1.099  16.687 -0.0721  1.0959 -0.8233
16505TIP3    H271007   0.153   1.240  16.735  0.4564  0.0825  2.7531
16506TIP3   OH271008   6.423   5.588  13.140 -0.2167  0.0803 -0.2030
16506TIP3    H171009   6.507   5.623  13.112  0.3965 -1.0580  0.1645
16506TIP3    H271010   6.433   5.572  13.234 -0.7149 -0.4086 -0.2271
16507TIP3   OH271011   6.289   5.925   5.444  0.1014  0.5221 -0.0784
16507TIP3    H171012   6.303   5.865   5.517 -1.9667 -0.2565 -0.2292
16507TIP3    H271013   6.239   5.998   5.482 -0.2028  0.5536 -0.5263
16508TIP3   OH271014   0.932   2.895   5.232 -0.1509 -0.4506  0.2596
16508TIP3    H171015   1.012   2.876   5.282  0.7952  2.6670  0.1498
16508TIP3    H271016   0.961   2.900   5.141 -0.8900 -1.2823 -0.0317
16509TIP3   OH271017   3.362   6.266  16.518  0.8766  0.0782 -0.1635
16509TIP3    H171018   3.285   6.213  16.497  0.6483  0.7361 -1.0776
16509TIP3    H271019   3.434   6.203  16.520  0.2461 -0.6389  1.2977
16510TIP3   OH271020   5.535   4.502  15.028 -0.0708 -0.3544  0.4473
16510TIP3    H171021   5.574   4.475  14.945  2.3417 -0.0377  1.4079
16510TIP3    H271022   5.585   4.579  15.054 -2.6341  1.2923  0.8829
16511TIP3   OH271023   6.741   5.933  15.108 -0.1388  0.0890  0.0000
16511TIP3    H171024   6.729   5.928  15.013  0.5820  1.4278 -0.2008
16511TIP3    H271025   6.703   5.853  15.142  1.0475 -1.2031 -1.5717
16512TIP3   OH271026   6.652   5.763  13.118 -0.6011  0.1805  0.4127
16512TIP3    H171027   6.740   5.771  13.156 -0.6266 -2.1783  1.1648
16512TIP3    H271028   6.596   5.817  13.175  0.1014  0.3400  0.9652
16513TIP3   OH271029   3.457   2.116  13.924  0.2811  0.3556 -0.5316
16513TIP3    H171030   3.457   2.197  13.975  2.2962 -0.1012  0.2683
16513TIP3    H271031   3.501   2.052  13.979  0.3064 -0.8291 -1.8703
16514TIP3   OH271032   1.222   2.674  14.259 -0.0785  0.3617 -0.3683
16514TIP3    H171033   1.145   2.680  14.316  0.2971  0.2713  0.1496
16514TIP3    H271034   1.290   2.637  14.315 -0.2474 -1.6515 -1.4027
16515TIP3   OH271035   5.673   2.147   2.637  0.1664  0.1388 -0.1442
16515TIP3    H171036   5.662   2.076   2.701  1.7252  0.2298  0.2503
16515TIP3    H271037   5.749   2.122   2.585  1.0409  1.7177  0.3099
16516TIP3   OH271038   0.883   3.487  16.585  0.0093  0.3431  0.5108
16516TIP3    H171039   0.834   3.407  16.567  0.5289 -0.1810  1.3470
16516TIP3    H271040   0.959   3.483  16.527 -1.3435  1.6160 -1.4807
16517TIP3   OH271041   1.222   5.236   4.644 -0.2801 -0.2577 -0.6075
16517TIP3    H171042   1.268   5.271   4.721 -0.6256 -1.2288  0.0550
16517TIP3    H271043   1.152   5.299   4.628 -0.7618 -0.4981  0.4361
16518TIP3   OH271044   1.672   3.863  14.177  0.1704  0.1759 -0.2430
16518TIP3    H171045   1.587   3.889  14.142  0.0528  0.5421  0.3121
16518TIP3    H271046   1.652   3.794  14.241  0.1092  1.4437  1.1658
16519TIP3   OH271047   1.206   4.042  10.462 -0.2300 -0.2228  0.8416
16519TIP3    H171048   1.252   4.063  10.543  0.0800 -1.7413  1.1022
16519TIP3    H271049   1.257   3.971  10.424 -0.9954 -0.2718 -0.1258
16520TIP3   OH271050   6.043   2.960  16.449  0.2750  0.3594 -0.2485
16520TIP3    H171051   6.003   3.047  16.455 -1.2924 -0.4058  1.4073
16520TIP3    H271052   6.037   2.937  16.356 -1.4587  1.0956 -0.3533
16521TIP3   OH271053   4.206   5.637   2.562  0.0500  0.1703 -0.0182
16521TIP3    H171054   4.232   5.704   2.627 -0.1198  0.9972 -0.7854
16521TIP3    H271055   4.197   5.557   2.613  0.3958  0.7019  0.9073
16522TIP3   OH271056   1.491   0.428   5.115  0.6296  0.0112 -0.3858
16522TIP3    H171057   1.455   0.341   5.131  0.9764 -0.0806 -0.0908
16522TIP3    H271058   1.433   0.487   5.165  1.4609 -0.2353  0.9326
16523TIP3   OH271059   3.727   5.030   2.651 -0.0487 -0.3081  0.5978
16523TIP3    H171060   3.700   5.113   2.691 -1.0412  0.7306 -2.0265
16523TIP3    H271061   3.647   4.977   2.651  0.4175 -1.0571  1.6408
16524TIP3   OH271062   4.422   5.798   1.630  0.5357  0.2426  0.1030
16524TIP3    H171063   4.417   5.780   1.536 -0.8948  2.4383 -0.3082
16524TIP3    H271064   4.341   5.760   1.665  0.8242 -0.1196  0.3918
16525TIP3   OH271065   2.807   3.362  14.868  0.4773  0.0266  0.4018
16525TIP3    H171066   2.876   3.321  14.921  1.9243 -0.0662 -1.4666
16525TIP3    H271067   2.838   3.452  14.855  0.7105 -0.2617 -1.1844
16526TIP3   OH271068   3.544   1.146  14.302  0.4230 -0.5125 -0.2466
16526TIP3    H171069   3.486   1.072  14.320 -1.8225  0.4438 -2.9184
16526TIP3    H271070   3.629   1.105  14.285 -0.1416 -2.2331  0.7326
16527TIP3   OH271071   5.784   2.462  16.616 -1.0992  0.1564 -0.2660
16527TIP3    H171072   5.735   2.433  16.692  0.3615  0.4645  0.8412
16527TIP3    H271073   5.832   2.539  16.647 -0.2369  0.1025 -1.4036
16528TIP3   OH271074   2.489   6.539   2.542 -0.1266  0.7556  0.5671
16528TIP3    H171075   2.571   6.572   2.507  0.6576 -0.2817  1.3668
16528TIP3    H271076   2.515   6.473   2.606 -1.5897 -1.2960 -0.8253
16529TIP3   OH271077   2.997   0.194   4.322 -0.5702 -0.2657 -0.2575
16529TIP3    H171078   2.958   0.183   4.235  2.4602  0.8340 -1.8933
16529TIP3    H271079   2.995   0.107   4.360  1.9372 -1.8943 -3.3127
16530TIP3   OH271080   2.223   3.900  15.998  0.3786  0.2080  0.3122
16530TIP3    H171081   2.140   3.868  16.032 -1.3223  2.7538 -1.1344
16530TIP3    H271082   2.209   3.910  15.903  2.1666  1.1350  0.0861
16531TIP3   OH271083   5.853   5.966   0.492  0.0600  0.2722 -0.5246
16531TIP3    H171084   5.902   6.025   0.436 -0.3392  0.8502 -0.2771
16531TIP3    H271085   5.913   5.893   0.509  1.9245  2.1794  1.9726
16532TIP3   OH271086   2.307   4.560  16.309  0.5175 -0.0840 -0.2320
16532TIP3    H171087   2.371   4.533  16.243 -0.3456  0.0643 -1.1446
16532TIP3    H271088   2.344   4.640  16.347  1.0828 -0.2455 -0.4348
16533TIP3   OH271089   1.631   3.158   1.650  0.5232  0.0976 -0.1954
16533TIP3    H171090   1.670   3.222   1.710 -2.0175  1.2526  0.3670
16533TIP3    H271091   1.635   3.075   1.697  0.8152  0.5129  0.5304
16534TIP3   OH271092   4.918   0.441  14.702  0.3335 -0.1561  0.2854
16534TIP3    H171093   5.006   0.449  14.666 -0.3762  0.5737 -1.3838
16534TIP3    H271094   4.874   0.379  14.645 -0.3361 -0.2827  0.9195
16535TIP3   OH271095   5.750   4.802   0.775 -0.8413  0.3631  0.1217
16535TIP3    H171096   5.826   4.775   0.723  0.0364  1.9863  0.4952
16535TIP3    H271097   5.688   4.836   0.710 -0.8349 -0.0400 -0.0970
16536TIP3   OH271098   4.848   4.841  11.141  0.0199  0.2529  0.0129
16536TIP3    H171099   4.826   4.934  11.142 -0.0913  0.2264  0.2329
16536TIP3    H271100   4.827   4.811  11.230  1.1935  0.2802  0.3234
16537TIP3   OH271101   3.670   6.533   3.953  0.0269  0.2994  0.3224
16537TIP3    H171102   3.636   6.570   4.035  0.5032 -0.9736  1.1126
16537TIP3    H271103   3.692   6.443   3.975 -0.3393 -0.2210 -1.3611
16538TIP3   OH271104   4.935   2.794   4.493 -0.3144  0.4453  0.3602
16538TIP3    H171105   4.930   2.724   4.558  0.5115  0.1170  0.0725
16538TIP3    H271106   4.972   2.868   4.541  1.2398 -0.0902  0.0471
16539TIP3   OH271107   4.234   3.540  16.437  0.5400  0.1161 -0.2629
16539TIP3    H171108   4.303   3.601  16.464  1.1795 -0.2186 -1.1007
16539TIP3    H271109   4.278   3.456  16.425 -0.7276 -1.2762  3.3573
16540TIP3   OH271110   5.179   3.370   4.918  0.4107 -0.5216 -0.2033
16540TIP3    H171111   5.173   3.308   4.845  1.6056 -1.4571  0.4544
16540TIP3    H271112   5.186   3.314   4.995  2.8658  0.3843  0.3051
16541TIP3   OH271113   4.491   4.226  13.757  0.8100  0.2809 -0.2456
16541TIP3    H171114   4.399   4.232  13.782  0.7574 -0.3420 -0.2658
16541TIP3    H271115   4.494   4.151  13.697  1.3472  0.2287 -0.1540
16542TIP3   OH271116   2.168   0.695   2.406  0.6437  0.8361  0.0392
16542TIP3    H171117   2.194   0.782   2.435  2.1720 -0.1139  1.7494
16542TIP3    H271118   2.157   0.645   2.487  2.9532 -1.3825 -0.8850
16543TIP3   OH271119   0.312   0.793  16.955  0.1701  0.5062 -0.5131
16543TIP3    H171120   0.347   0.797  17.044 -0.7205 -2.4995  0.0884
16543TIP3    H271121   0.306   0.699  16.936 -2.3387  0.9931 -2.6592
16544TIP3   OH271122   6.637   3.941  10.953 -0.5534 -0.1538 -0.4269
16544TIP3    H171123   6.635   3.883  11.029 -1.5169 -0.6543 -0.8146
16544TIP3    H271124   6.551   3.929  10.912  0.4598 -1.0191 -2.4201
16545TIP3   OH271125   6.275   0.112  11.987 -0.0052  0.2756 -0.3882
16545TIP3    H171126   6.184   0.140  11.987 -0.0647  0.3468  2.3345
16545TIP3    H271127   6.274   0.026  11.946 -1.5548 -0.3717  0.9256
16546TIP3   OH271128   0.122   6.715   4.109 -0.5589 -0.3428  0.1809
16546TIP3    H171129   0.146   6.640   4.163  1.2896  0.0330 -0.0546
16546TIP3    H271130   0.121   6.789   4.169  0.0570 -0.1636 -0.0224
16547TIP3   OH271131   3.466   5.109   1.280 -0.3262 -0.5267 -0.8344
16547TIP3    H171132   3.458   5.195   1.320 -1.7374 -0.9635 -0.1270
16547TIP3    H271133   3.522   5.059   1.340  3.7264  0.8771 -3.0335
16548TIP3   OH271134   4.802   6.705   2.748 -0.8432  0.6325 -0.0300
16548TIP3    H171135   4.875   6.764   2.728 -1.1163  1.5722  1.5574
16548TIP3    H271136   4.843   6.621   2.768 -0.2812  0.8658 -0.2031
16549TIP3   OH271137   3.768   2.607   3.868 -0.1382 -0.0853 -0.2814
16549TIP3    H171138   3.778   2.663   3.945  0.7471 -1.4491  0.6393
16549TIP3    H271139   3.690   2.555   3.886  1.5825 -2.3998  1.0983
16550TIP3   OH271140   2.307   3.454  11.043 -0.2306 -0.1823 -0.3523
16550TIP3    H171141   2.269   3.396  10.977  1.1159  0.6165 -1.9080
16550TIP3    H271142   2.402   3.444  11.033  0.0100  0.1495  1.3128
16551TIP3   OH271143   2.077   1.933  15.056 -0.5656  0.4889 -0.2175
16551TIP3    H171144   1.991   1.926  15.014  0.4020 -1.3993 -2.0708
16551TIP3    H271145   2.097   1.844  15.085  1.6501  0.3667 -1.8199
16552TIP3   OH271146   4.380   0.146  15.905 -0.1545 -0.2297 -0.0746
16552TIP3    H171147   4.426   0.192  15.835  0.0854  0.1741  0.3457
16552TIP3    H271148   4.355   0.062  15.865  0.2967 -0.1553 -0.5337
16553TIP3   OH271149   2.802   5.788  14.132 -0.8588  0.5475  0.2024
16553TIP3    H171150   2.742   5.714  14.144 -0.5208  0.5047  1.7852
16553TIP3    H271151   2.790   5.842  14.210  0.8235  0.7645  0.3460
16554TIP3   OH271152   3.287   0.309   3.013  1.0810  0.3503  0.2608
16554TIP3    H171153   3.211   0.362   2.988 -0.1939 -0.0883  2.8045
16554TIP3    H271154   3.262   0.220   2.990  1.6795  0.4147 -0.6771
16555TIP3   OH271155   4.168   1.681  17.246  0.1388  0.4965 -0.1477
16555TIP3    H171156   4.179   1.586  17.250 -0.5747  0.3401 -1.2094
16555TIP3    H271157   4.223   1.716  17.316 -0.5490 -0.7739  1.0731
16556TIP3   OH271158   1.506   4.610   4.042  0.1622 -0.0939  0.5334
16556TIP3    H171159   1.599   4.601   4.063  0.3506 -0.3815 -0.3845
16556TIP3    H271160   1.463   4.620   4.127  1.1031  0.7678  0.9377
16557TIP3   OH271161   5.622   0.850   3.921  0.5245  0.1880  0.2981
16557TIP3    H171162   5.695   0.852   3.859  1.7513 -0.9749  1.6461
16557TIP3    H271163   5.614   0.940   3.952  2.2250  0.1058  1.0425
16558TIP3   OH271164   1.940   2.162   3.474 -0.2631 -0.2203  0.0116
16558TIP3    H171165   1.956   2.126   3.387  0.9068  0.0798  0.0964
16558TIP3    H271166   1.929   2.085   3.530 -0.7007 -0.4155 -0.3325
16559TIP3   OH271167   0.231   6.180   5.544  0.3395  0.0663  0.0429
16559TIP3    H171168   0.234   6.178   5.639 -1.4791 -0.0430  0.1282
16559TIP3    H271169   0.322   6.169   5.517  0.9100  0.3236  1.7591
16560TIP3   OH271170   3.157   2.896  16.624  0.1933 -0.0657 -0.3926
16560TIP3    H171171   3.187   2.968  16.569 -0.5885  2.2297  1.9729
16560TIP3    H271172   3.064   2.887  16.602  0.1336  0.1300 -0.2296
16561TIP3   OH271173   0.769   6.159  16.078 -0.2186 -0.4309 -0.8567
16561TIP3    H171174   0.844   6.218  16.071 -0.4037 -0.1601 -0.5738
16561TIP3    H271175   0.698   6.207  16.035 -0.9632  0.5569  1.3112
16562TIP3   OH271176   5.359   2.194  15.928 -0.2834  0.7653  0.3679
16562TIP3    H171177   5.432   2.236  15.975  0.0185 -0.3671  0.9542
16562TIP3    H271178   5.281   2.221  15.977 -0.1470  1.0717  0.4189
16563TIP3   OH271179   2.795   1.085   5.318  0.1828  0.0639  0.7099
16563TIP3    H171180   2.874   1.140   5.317 -1.1036  1.9949  0.0386
16563TIP3    H271181   2.815   1.016   5.382  2.2429  0.7381  0.8738
16564TIP3   OH271182   3.908   6.822  11.902 -0.4590  0.2250  0.5082
16564TIP3    H171183   3.985   6.795  11.952 -0.8274 -2.6514 -0.3085
16564TIP3    H271184   3.942   6.884  11.837  1.4200 -1.7176 -0.4703
16565TIP3   OH271185   2.485   0.700   6.228 -0.4462 -0.0161 -0.4557
16565TIP3    H171186   2.429   0.771   6.195  0.8606  1.3394  0.1421
16565TIP3    H271187   2.437   0.666   6.304 -0.1764  1.6133  0.4958
16566TIP3   OH271188   6.138   2.691   2.070 -0.1308  0.1725  0.0855
16566TIP3    H171189   6.120   2.696   2.164 -0.8184 -2.6204  0.2034
16566TIP3    H271190   6.231   2.673   2.064 -0.3338 -1.0560  0.3510
16567TIP3   OH271191   2.045   4.112   3.664 -0.1423  0.4967  0.1486
16567TIP3    H171192   1.968   4.056   3.675 -0.5816  1.2711  1.1706
16567TIP3    H271193   2.098   4.066   3.599 -0.7852 -0.7765  0.4760
16568TIP3   OH271194   5.574   5.884   3.560  0.0488 -0.1710  0.5342
16568TIP3    H171195   5.605   5.796   3.541 -2.3316 -0.9265 -0.1412
16568TIP3    H271196   5.566   5.886   3.655 -1.7129 -1.3923  0.4461
16569TIP3   OH271197   5.221   6.268  15.016  0.0748  0.4069  0.3958
16569TIP3    H171198   5.141   6.296  14.972 -0.3340  1.2857  1.6214
16569TIP3    H271199   5.261   6.349  15.048  2.1319  0.1213 -1.2348
16570TIP3   OH271200   5.804   0.549  12.788  0.2204  0.3592 -0.9713
16570TIP3    H171201   5.734   0.498  12.748 -1.4129 -1.5169  3.6121
16570TIP3    H271202   5.764   0.633  12.810  0.3698  0.4910 -1.2075
16571TIP3   OH271203   3.031   0.492   3.650  0.0189  0.1971 -0.5228
16571TIP3    H171204   3.080   0.430   3.597 -0.8496 -0.4765 -0.5528
16571TIP3    H271205   3.022   0.570   3.594  0.8120  0.2266 -0.6129
16572TIP3   OH271206   2.371   4.881   4.182  0.2077 -0.2221  0.0512
16572TIP3    H171207   2.426   4.804   4.169  0.5649 -0.1036  0.7924
16572TIP3    H271208   2.399   4.943   4.114  0.7827 -0.2778  0.2324
16573TIP3   OH271209   0.115   4.761   1.662  0.0319  0.2486  0.4312
16573TIP3    H171210   0.035   4.811   1.676  0.1253  0.8616 -1.0246
16573TIP3    H271211   0.092   4.698   1.593  0.9913  0.9793 -0.5975
16574TIP3   OH271212   3.241   6.348  14.760  0.1555  0.4927 -0.1242
16574TIP3    H171213   3.304   6.277  14.752  0.4483  0.2699  2.9377
16574TIP3    H271214   3.166   6.321  14.708  1.4578 -0.5477 -1.5405
16575TIP3   OH271215   6.316   5.257  15.919  0.4879  0.0492  0.4324
16575TIP3    H171216   6.283   5.308  15.846  0.5446 -0.8197 -0.2166
16575TIP3    H271217   6.284   5.303  15.997 -0.9534  0.0973 -0.1517
16576TIP3   OH271218   5.781   2.563   1.538 -0.0309  0.3089 -0.1462
16576TIP3    H171219   5.852   2.628   1.534  1.3715 -1.0714  1.1076
16576TIP3    H271220   5.825   2.479   1.528 -1.3370 -0.6656  1.6511
16577TIP3   OH271221   2.259   2.981  14.862  0.5735  0.4430 -0.1154
16577TIP3    H171222   2.296   2.901  14.901  0.6901  0.9958  0.9294
16577TIP3    H271223   2.254   3.043  14.934 -0.5791  1.0268 -0.6745
16578TIP3   OH271224   3.185   3.171  17.086  0.3180 -0.2711 -0.7728
16578TIP3    H171225   3.206   3.132  17.001  0.1507 -1.5152 -0.2642
16578TIP3    H271226   3.260   3.150  17.142 -0.4049 -1.1662 -0.0934
16579TIP3   OH271227   3.637   6.078   2.296  0.5986  0.4624 -0.1282
16579TIP3    H171228   3.588   6.111   2.221  0.2233  0.5205  0.1419
16579TIP3    H271229   3.592   5.997   2.320 -0.4735  1.3959  1.2155
16580TIP3   OH271230   3.195   6.747  11.798 -0.7935  0.0265 -0.0762
16580TIP3    H171231   3.237   6.804  11.862 -3.1939  0.4300  1.2549
16580TIP3    H271232   3.242   6.764  11.716 -0.5194  2.8590  0.5735
16581TIP3   OH271233   0.461   2.389   1.819  0.1067  0.7617  0.3557
16581TIP3    H171234   0.395   2.332   1.858  1.9652 -1.9324 -0.1449
16581TIP3    H271235   0.440   2.476   1.851 -1.1258 -0.6145  3.7316
16582TIP3   OH271236   4.992   0.370   2.419 -0.1002  0.0080 -0.1616
16582TIP3    H171237   4.990   0.428   2.343 -0.7123  0.8638  0.4908
16582TIP3    H271238   5.083   0.373   2.448 -0.4818  2.2988  1.0726
16583TIP3   OH271239   3.631   5.106  13.818 -0.4130  0.6096  0.6581
16583TIP3    H171240   3.608   5.014  13.807 -0.2210  0.8176 -2.5476
16583TIP3    H271241   3.552   5.147  13.853 -1.1044 -0.4876  0.4154
16584TIP3   OH271242   0.394   0.436   2.107 -0.0478  0.0856  0.6675
16584TIP3    H171243   0.394   0.398   2.195  0.9265  0.6365  0.9141
16584TIP3    H271244   0.462   0.503   2.110 -1.8937  2.0884  0.3343
16585TIP3   OH271245   1.890   6.585  15.203 -0.0606  0.6454 -0.1252
16585TIP3    H171246   1.961   6.587  15.139  1.0507  1.4683  1.0793
16585TIP3    H271247   1.821   6.639  15.164  0.9668  1.9361 -0.2365
16586TIP3   OH271248   4.132   3.023  11.789 -0.0762 -0.6551 -0.1013
16586TIP3    H171249   4.051   3.011  11.741 -0.4831  0.7902  0.1679
16586TIP3    H271250   4.183   2.944  11.770 -1.9732 -2.1458  0.6402
16587TIP3   OH271251   5.349   0.615   1.638  0.0710  0.5024  0.4275
16587TIP3    H171252   5.298   0.536   1.653  1.4402 -0.0597  2.4243
16587TIP3    H271253   5.421   0.587   1.581 -1.4264  1.1748 -1.9237
16588TIP3   OH271254   4.168   3.284  11.907  0.3013  0.9094 -0.0331
16588TIP3    H171255   4.160   3.342  11.831 -1.2373  0.1500 -0.5012
16588TIP3    H271256   4.140   3.198  11.874  1.3103  0.1760  0.9611
16589TIP3   OH271257   1.438   5.326   1.063 -0.1471 -0.5000  0.9087
16589TIP3    H171258   1.378   5.270   1.014 -0.3762  0.8018 -0.3503
16589TIP3    H271259   1.507   5.266   1.092  0.2648 -1.2758 -1.4465
16590TIP3   OH271260   5.443   5.809  14.576  0.5970 -0.7257  0.6382
16590TIP3    H171261   5.517   5.809  14.515  0.7968 -0.3688  0.8789
16590TIP3    H271262   5.372   5.853  14.528  0.4601 -1.2953  0.3146
16591TIP3   OH271263   3.784   6.612  14.723  0.7738 -0.0342  0.0225
16591TIP3    H171264   3.728   6.537  14.743 -1.0649  1.6632  1.7027
16591TIP3    H271265   3.857   6.575  14.673  0.8660 -3.2384  2.2092
16592TIP3   OH271266   0.600   6.489   0.235 -0.3162 -0.3129 -0.3950
16592TIP3    H171267   0.650   6.557   0.190 -0.2489  0.6225  1.0264
16592TIP3    H271268   0.666   6.426   0.265 -0.0195  0.5193  0.7965
16593TIP3   OH271269   5.653   4.892   4.047 -0.1137 -0.6722 -0.1736
16593TIP3    H171270   5.618   4.850   3.969  1.0488  0.9514 -1.6501
16593TIP3    H271271   5.745   4.866   4.050  0.6783  1.7570 -1.2245
16594TIP3   OH271272   4.462   3.335   5.152 -0.3814  0.1140 -0.3632
16594TIP3    H171273   4.525   3.362   5.218  0.1951  0.2673 -0.9665
16594TIP3    H271274   4.376   3.348   5.193 -0.0498  0.7717  0.1314
16595TIP3   OH271275   2.400   4.147   2.687 -0.1688  0.1421 -0.7405
16595TIP3    H171276   2.407   4.199   2.767 -2.9243 -0.6489  0.1349
16595TIP3    H271277   2.433   4.061   2.713 -0.5865  0.0256 -0.5835
16596TIP3   OH271278   5.149   2.870  12.961 -0.0357 -0.5757  0.1842
16596TIP3    H171279   5.082   2.889  12.896  1.2888 -0.1806 -1.1248
16596TIP3    H271280   5.232   2.877  12.913  1.2762  2.8335  2.4810
16597TIP3   OH271281   1.322   4.847   1.357  0.3124  0.2468 -0.8591
16597TIP3    H171282   1.404   4.798   1.354  0.2429  0.0815 -0.2455
16597TIP3    H271283   1.270   4.811   1.285 -0.4311 -1.8418  0.6221
16598TIP3   OH271284   6.648   6.247   2.792  0.2170  0.2193  0.0256
16598TIP3    H171285   6.632   6.278   2.881  0.2081  1.2818 -0.3327
16598TIP3    H271286   6.643   6.325   2.737  0.9827 -0.2949 -0.8210
16599TIP3   OH271287   5.018   5.813  15.164 -0.6187 -0.3506  0.3106
16599TIP3    H171288   5.078   5.861  15.107 -1.1527  0.6382  0.5712
16599TIP3    H271289   5.063   5.730  15.180  0.6963  0.3682  0.5078
16600TIP3   OH271290   2.681   5.581  13.501  0.3421  0.1832  0.1171
16600TIP3    H171291   2.650   5.592  13.411 -0.2027 -0.9152  0.1487
16600TIP3    H271292   2.771   5.613  13.500 -0.2850  2.0664 -0.3317
16601TIP3   OH271293   0.120   2.457  10.974  0.1323  0.1712  0.0470
16601TIP3    H171294   0.118   2.429  10.883 -1.2180  4.0266 -1.3189
16601TIP3    H271295   0.156   2.546  10.971 -1.3489  1.0085  3.0486
16602TIP3   OH271296   3.779   4.291  12.896 -0.2448  0.2331  0.2415
16602TIP3    H171297   3.765   4.386  12.891 -1.2561  0.2205  1.9851
16602TIP3    H271298   3.696   4.257  12.929  0.6996 -1.0482  1.4016
16603TIP3   OH271299   2.113   6.555  12.491  0.3688  0.1888  0.2876
16603TIP3    H171300   2.185   6.508  12.449 -1.1949 -1.0160 -1.1386
16603TIP3    H271301   2.055   6.486  12.524 -0.8560  1.1137  0.1327
16604TIP3   OH271302   4.508   2.763  13.444  0.1053  0.0375 -0.3584
16604TIP3    H171303   4.591   2.792  13.483 -0.5001  1.5106 -0.1135
16604TIP3    H271304   4.491   2.827  13.375 -2.1047  1.3322  1.2720
16605TIP3   OH271305   0.207   4.715  15.512 -0.9908 -0.0428  0.3342
16605TIP3    H171306   0.275   4.707  15.579 -1.5508 -1.2931  0.7788
16605TIP3    H271307   0.142   4.774  15.551 -1.8091 -1.5680  1.3479
16606TIP3   OH271308   5.569   0.980  13.637  0.1820 -0.6590  0.5154
16606TIP3    H171309   5.586   0.887  13.649 -1.8405 -1.3640 -1.4452
16606TIP3    H271310   5.502   0.984  13.568 -0.4102  2.2020  1.1161
16607TIP3   OH271311   3.972   4.285  15.340 -0.4342  0.1345 -0.2699
16607TIP3    H171312   4.015   4.336  15.408 -1.0531  1.0989 -0.5856
16607TIP3    H271313   3.973   4.195  15.373 -0.5465  0.5556  0.9230
16608TIP3   OH271314   6.575   6.526  11.128  0.4210  0.4743  0.1009
16608TIP3    H171315   6.535   6.440  11.140 -0.2780  0.8063  0.1926
16608TIP3    H271316   6.623   6.519  11.046  1.8863 -0.5636  1.0025
16609TIP3   OH271317   1.483   3.265   3.907 -0.0649 -0.2224 -0.0993
16609TIP3    H171318   1.531   3.339   3.870 -0.1340  0.7156  1.5395
16609TIP3    H271319   1.396   3.272   3.869  0.3070 -0.2492 -0.9628
16610TIP3   OH271320   6.638   2.570  14.803 -0.2192  0.4186 -0.7146
16610TIP3    H171321   6.626   2.485  14.845  1.4894  0.4498 -0.0597
16610TIP3    H271322   6.569   2.625  14.841 -1.5210 -0.7115 -1.3544
16611TIP3   OH271323   0.813   3.072  13.751 -0.5652 -0.0601  0.0315
16611TIP3    H171324   0.807   2.998  13.811 -1.8003 -0.3310 -0.3880
16611TIP3    H271325   0.855   3.036  13.673 -0.2006 -0.0497  0.2209
16612TIP3   OH271326   2.848   4.067  11.933 -0.4197 -0.2715  0.1606
16612TIP3    H171327   2.853   4.034  12.023 -0.4682 -0.5120  0.0760
16612TIP3    H271328   2.888   3.998  11.880  0.2789  0.1889  0.0721
16613TIP3   OH271329   4.815   4.877  12.035  0.4288 -0.1296  0.4852
16613TIP3    H171330   4.899   4.856  12.075  1.8680  0.2817 -2.0676
16613TIP3    H271331   4.765   4.796  12.040  0.2435  0.0535  3.4793
16614TIP3   OH271332   6.283   2.033   5.633 -0.3819 -0.2467 -0.1699
16614TIP3    H171333   6.231   2.063   5.708 -1.1922  1.1790 -1.2387
16614TIP3    H271334   6.222   2.037   5.559  1.1522  1.2354 -1.4363
16615TIP3   OH271335   3.291   0.337   1.808 -0.2862 -0.7629  0.4011
16615TIP3    H171336   3.333   0.416   1.841 -1.5408 -0.3540  1.1183
16615TIP3    H271337   3.356   0.295   1.753  0.4349  0.7309  0.0907
16616TIP3   OH271338   6.596   4.326  14.953  0.2156 -0.3971 -0.0675
16616TIP3    H171339   6.540   4.250  14.934  0.8292 -1.5005  2.2327
16616TIP3    H271340   6.548   4.400  14.917 -1.4132 -1.6254 -0.5655
16617TIP3   OH271341   2.552   5.476  11.832  0.6634  0.4137 -0.1501
16617TIP3    H171342   2.490   5.407  11.807  1.3989  0.3000 -1.7655
16617TIP3    H271343   2.513   5.515  11.910 -2.1403  1.1959 -1.8091
16618TIP3   OH271344   4.852   6.596  13.655  0.3223  0.4111 -0.7426
16618TIP3    H171345   4.885   6.507  13.670 -1.5888  0.0463  2.0597
16618TIP3    H271346   4.907   6.651  13.709  0.2124  0.6426 -0.8667
16619TIP3   OH271347   3.657   4.721   3.088 -0.1168  0.2033  0.1211
16619TIP3    H171348   3.705   4.735   3.170  0.6145  0.3513 -0.3220
16619TIP3    H271349   3.650   4.625   3.081 -1.1767  0.2054  0.9085
16620TIP3   OH271350   2.508   3.107  12.307  0.1816  0.3571  0.8385
16620TIP3    H171351   2.534   3.016  12.299  0.9692  0.6113  0.4189
16620TIP3    H271352   2.521   3.144  12.219  0.0005  0.9079  1.0365
16621TIP3   OH271353   4.927   2.183   2.230  0.0271 -0.3466  0.3720
16621TIP3    H171354   4.877   2.264   2.225  0.2129 -0.1731  1.2797
16621TIP3    H271355   4.995   2.192   2.164 -0.9394 -0.4584 -0.6695
16622TIP3   OH271356   1.334   4.204   0.135  0.0642  0.0101 -0.3184
16622TIP3    H171357   1.428   4.202   0.154  0.2041 -0.0959 -0.9723
16622TIP3    H271358   1.292   4.207   0.220  0.6374 -0.8502  0.0151
16623TIP3   OH271359   1.094   6.488  11.273 -0.7259  0.2570  0.1155
16623TIP3    H171360   1.124   6.538  11.348 -1.4656 -0.7504  1.1194
16623TIP3    H271361   1.168   6.487  11.213  0.4252 -0.2257  1.5038
16624TIP3   OH271362   3.227   4.406  10.490  0.2950 -0.2769 -0.6357
16624TIP3    H171363   3.277   4.438  10.566  0.8956 -0.1003 -1.0972
16624TIP3    H271364   3.141   4.385  10.526  0.6925 -0.5791  0.1811
16625TIP3   OH271365   2.275   4.844  13.987 -0.5127 -0.1490 -0.3184
16625TIP3    H171366   2.208   4.860  13.920 -0.4221 -1.1744 -0.6672
16625TIP3    H271367   2.238   4.775  14.042 -1.5049  2.0784  2.0173
16626TIP3   OH271368   4.352   1.098   1.925 -0.0175  0.0489  0.1011
16626TIP3    H171369   4.440   1.099   1.886 -0.4635  0.2184 -0.9321
16626TIP3    H271370   4.350   1.016   1.975  0.5069 -0.2882 -0.4106
16627TIP3   OH271371   1.985   5.896  11.178  0.4583 -0.0387 -0.0608
16627TIP3    H171372   2.045   5.856  11.241  0.0091 -0.9474 -0.1982
16627TIP3    H271373   2.042   5.929  11.108  0.7276 -3.1886 -1.5179
16628TIP3   OH271374   6.572   3.299  15.566 -0.0836  0.6903  0.3459
16628TIP3    H171375   6.627   3.294  15.644 -0.8751 -0.7248  0.8531
16628TIP3    H271376   6.629   3.335  15.499  1.5913 -1.0401  0.7607
16629TIP3   OH271377   5.001   5.787   0.417  0.5317  0.4688 -1.0747
16629TIP3    H171378   5.067   5.729   0.455 -0.1051  0.3510 -0.1114
16629TIP3    H271379   5.046   5.870   0.405  1.1247  0.1190 -1.3673
16630TIP3   OH271380   1.210   2.707   2.722 -0.1319 -0.0692 -0.3434
16630TIP3    H171381   1.143   2.738   2.783 -1.2116 -0.7288 -1.1472
16630TIP3    H271382   1.229   2.783   2.667  0.0629  0.2244  0.1185
16631TIP3   OH271383   4.812   6.227   3.640  0.2420 -0.5604 -0.3405
16631TIP3    H171384   4.738   6.283   3.619 -0.4090 -0.9613  0.7674
16631TIP3    H271385   4.772   6.142   3.663  0.9932 -0.6508  0.7012
16632TIP3   OH271386   0.097   2.664   1.086  0.3171  0.6035  0.6094
16632TIP3    H171387   0.105   2.581   1.133 -0.5404  0.8632  1.2383
16632TIP3    H271388   0.073   2.637   0.997  2.4932  0.0908  0.1134
16633TIP3   OH271389   5.902   5.139   5.582  0.2328 -0.8766 -0.0142
16633TIP3    H171390   5.865   5.070   5.637 -1.6945  0.1188  0.0291
16633TIP3    H271391   5.893   5.219   5.634  0.3667 -0.2571 -0.9241
16634TIP3   OH271392   0.799   0.094  16.629 -0.0498 -0.1700 -0.3078
16634TIP3    H171393   0.730   0.142  16.584 -1.4146 -0.4619  1.3490
16634TIP3    H271394   0.784   0.002  16.605  0.6466 -0.0939 -1.0511
16635TIP3   OH271395   6.178   3.391  17.206 -0.1783 -0.2409  0.6359
16635TIP3    H171396   6.139   3.325  17.149 -0.2307 -0.3545  0.8033
16635TIP3    H271397   6.269   3.362  17.217 -0.4949 -0.9146  1.6349
16636TIP3   OH271398   2.205   2.250   2.380 -0.5699 -0.5310  0.1007
16636TIP3    H171399   2.136   2.298   2.335 -0.7780 -0.4509  0.5025
16636TIP3    H271400   2.241   2.313   2.443 -0.4522 -0.7169  0.2214
16637TIP3   OH271401   0.618   3.526  13.928 -0.0477 -0.1115  0.2882
16637TIP3    H171402   0.687   3.479  13.975  0.1638  0.3254  0.4196
16637TIP3    H271403   0.598   3.471  13.852 -0.5519 -0.9479  1.0031
16638TIP3   OH271404   0.764   4.480  11.107 -0.2044 -0.1017 -0.0215
16638TIP3    H171405   0.675   4.504  11.080  0.2139 -0.4558 -1.8940
16638TIP3    H271406   0.781   4.397  11.062  1.6687  0.8030 -1.1080
16639TIP3   OH271407   3.091   4.317   0.428  0.2631  0.1671  0.1745
16639TIP3    H171408   3.037   4.363   0.492  0.3362  2.3638 -1.2364
16639TIP3    H271409   3.041   4.323   0.346  1.1824 -0.5756 -0.4615
16640TIP3   OH271410   3.520   3.474  13.513  0.1241  0.8655 -0.0075
16640TIP3    H171411   3.427   3.453  13.514  0.4983 -1.9122 -3.7254
16640TIP3    H271412   3.525   3.563  13.478 -1.1019  1.4301  1.1910
16641TIP3   OH271413   2.293   2.617   0.075  0.2331 -0.1503 -0.2260
16641TIP3    H171414   2.256   2.592  -0.009  2.3834 -0.2400 -1.2055
16641TIP3    H271415   2.345   2.542   0.103 -0.2099 -0.0130  1.0693
16642TIP3   OH271416   3.923   4.960  17.032 -0.2166  0.2151 -0.1289
16642TIP3    H171417   3.912   5.009  16.951  1.9861  0.0696 -0.5899
16642TIP3    H271418   3.919   5.027  17.101 -1.9428  0.3586 -0.3238
16643TIP3   OH271419   5.306   0.262   2.691  0.2897  0.8118  0.8592
16643TIP3    H171420   5.277   0.223   2.773 -1.4533 -1.5479 -0.7439
16643TIP3    H271421   5.352   0.191   2.646 -1.6268  0.9750 -1.5390
16644TIP3   OH271422   2.947   5.523   6.527  0.3065 -0.1958 -0.0507
16644TIP3    H171423   2.902   5.607   6.541 -0.7576 -0.7904  0.1288
16644TIP3    H271424   3.018   5.545   6.466  0.1292  0.8594  0.0892
16645TIP3   OH271425   5.599   4.748  11.690  0.3454 -0.2870 -0.1139
16645TIP3    H171426   5.544   4.690  11.638 -0.1065  0.1960 -0.1863
16645TIP3    H271427   5.684   4.746  11.646  0.1134 -0.2836 -0.5709
16646TIP3   OH271428   5.821   0.394   4.840  0.2663  0.1629 -0.1227
16646TIP3    H171429   5.748   0.352   4.888 -0.5242  1.4960 -0.1130
16646TIP3    H271430   5.893   0.394   4.902  0.5843 -1.9534 -0.4142
16647TIP3   OH271431   6.152   0.674   0.564 -0.1484 -0.5779  0.1859
16647TIP3    H171432   6.236   0.649   0.603 -0.1412  0.5553  0.9627
16647TIP3    H271433   6.112   0.732   0.629 -0.9864 -0.1304 -0.7052
16648TIP3   OH271434   5.517   2.211   0.410 -0.1498  0.2325 -0.3179
16648TIP3    H171435   5.508   2.199   0.315  0.3763  0.5191 -0.4057
16648TIP3    H271436   5.427   2.205   0.443 -0.2570 -0.7153 -0.7324
16649TIP3   OH271437   2.653   4.537  14.123 -0.0927  0.6383  0.0716
16649TIP3    H171438   2.563   4.530  14.092 -0.1665 -1.2697  0.5854
16649TIP3    H271439   2.697   4.461  14.085  1.6434  2.1700 -1.1522
16650TIP3   OH271440   6.066   6.429   5.862  0.4260  1.4329 -0.5392
16650TIP3    H171441   5.994   6.462   5.916  0.9349 -0.5782  1.4848
16650TIP3    H271442   6.145   6.460   5.906  0.9199 -2.0245  1.3358
16651TIP3   OH271443   0.079   2.587  14.311 -0.2653  0.2410 -0.0497
16651TIP3    H171444   0.121   2.558  14.230  0.0228  0.4921  0.0105
16651TIP3    H271445   0.015   2.518  14.330 -0.6755  0.4216 -0.7489
16652TIP3   OH271446   3.360   2.628  12.233  0.1060  0.0288 -0.2285
16652TIP3    H171447   3.331   2.559  12.174  1.1476  1.4800 -2.6151
16652TIP3    H271448   3.454   2.611  12.245  0.7276  1.7409 -2.0733
16653TIP3   OH271449   5.562   1.873   0.386  0.0686  0.5177  0.1436
16653TIP3    H171450   5.486   1.827   0.422 -0.5307  1.4454  0.1017
16653TIP3    H271451   5.635   1.813   0.398 -1.0260 -1.3613 -1.8378
16654TIP3   OH271452   5.988   1.684   5.588 -0.1323  0.1141 -0.3849
16654TIP3    H171453   6.034   1.741   5.649 -2.1249  0.8893  0.4954
16654TIP3    H271454   6.015   1.714   5.502  1.7412 -0.1458  0.0702
16655TIP3   OH271455   4.376   5.793  14.078  0.2733  0.4917  0.4867
16655TIP3    H171456   4.290   5.835  14.076  0.7259  1.4445  0.5438
16655TIP3    H271457   4.383   5.748  13.993 -0.2801  0.4135  0.4832
16656TIP3   OH271458   1.141   4.902   3.413 -0.1660 -0.3730  0.0914
16656TIP3    H171459   1.208   4.959   3.375 -0.0762 -0.7683 -0.3428
16656TIP3    H271460   1.162   4.900   3.507 -1.9575  2.7893  0.7211
16657TIP3   OH271461   0.676   2.354  10.902 -0.6034  0.4206 -0.1920
16657TIP3    H171462   0.601   2.313  10.943 -0.3880 -0.3255 -0.5298
16657TIP3    H271463   0.752   2.305  10.934 -0.2026  1.4951  0.5535
16658TIP3   OH271464   2.956   2.833  12.561  0.1391  0.6587  0.1611
16658TIP3    H171465   3.030   2.813  12.504 -0.2425 -0.2262 -0.0302
16658TIP3    H271466   2.915   2.748  12.579 -1.0387  1.1721 -0.0131
16659TIP3   OH271467   5.955   5.717  10.792 -0.6483  0.3210 -0.2969
16659TIP3    H171468   5.999   5.654  10.735  1.7484  1.7039 -0.1415
16659TIP3    H271469   5.948   5.673  10.877 -1.6604 -0.7441 -0.9203
16660TIP3   OH271470   5.664   0.218   5.399 -0.6047 -0.0832 -0.7441
16660TIP3    H171471   5.753   0.221   5.362  0.6836  1.2333  2.0981
16660TIP3    H271472   5.627   0.303   5.376  0.5328  1.1180  1.4286
16661TIP3   OH271473   1.652   5.728   4.454  0.6797 -0.5486 -0.2044
16661TIP3    H171474   1.736   5.757   4.491  0.2542  0.2590  0.1588
16661TIP3    H271475   1.640   5.784   4.377  0.5484 -0.7807 -0.3548
16662TIP3   OH271476   6.747   5.046  11.692 -0.6800 -0.5258  0.1899
16662TIP3    H171477   6.716   5.085  11.775 -1.0519 -0.2713 -0.0641
16662TIP3    H271478   6.742   4.952  11.707 -0.0755 -0.4843  0.7031
16663TIP3   OH271479   3.542   2.015   1.673 -0.4929 -0.0519  0.2515
16663TIP3    H171480   3.615   2.072   1.700 -0.4444 -0.0416  0.0956
16663TIP3    H271481   3.575   1.968   1.597 -0.5158 -0.3253  0.4110
16664TIP3   OH271482   2.330   1.914  11.753  0.1169 -0.0458  0.6611
16664TIP3    H171483   2.353   1.880  11.839 -1.3899 -1.7044  0.4518
16664TIP3    H271484   2.319   1.836  11.698  0.7983  0.9590 -0.9996
16665TIP3   OH271485   0.357   2.478  11.657 -0.1239  0.2733 -0.1991
16665TIP3    H171486   0.318   2.563  11.637 -0.8786  1.0814  3.8526
16665TIP3    H271487   0.429   2.470  11.595 -1.1159  2.9951 -1.9005
16666TIP3   OH271488   5.718   5.395  16.152 -0.1706  0.1014 -0.6013
16666TIP3    H171489   5.622   5.401  16.160 -0.0300  0.9767  0.7925
16666TIP3    H271490   5.751   5.445  16.226  1.3802 -0.6818 -0.7232
16667TIP3   OH271491   3.411   0.858  16.033  0.2969  0.2671  0.2664
16667TIP3    H171492   3.487   0.834  16.086  0.9329  1.8018  0.0978
16667TIP3    H271493   3.408   0.792  15.964  0.1571 -1.0741  1.4859
16668TIP3   OH271494   0.562   4.344   6.559 -0.0705  0.1718 -0.2154
16668TIP3    H171495   0.508   4.397   6.500 -1.0764 -0.2215  0.3301
16668TIP3    H271496   0.595   4.406   6.623 -1.4118  0.1527  0.5451
16669TIP3   OH271497   1.458   5.828   1.891 -0.2224 -0.2278  0.4980
16669TIP3    H171498   1.373   5.784   1.898 -0.3464 -0.0521  0.1360
16669TIP3    H271499   1.467   5.848   1.798 -0.5600  1.2649  0.7535
16670TIP3   OH271500   1.478   6.564   4.297  0.2496 -0.3599  0.3901
16670TIP3    H171501   1.481   6.649   4.340 -0.2717  0.9392 -1.9252
16670TIP3    H271502   1.399   6.522   4.332 -1.7916  1.8303 -1.1602
16671TIP3   OH271503   4.268   6.435   1.282 -0.1123  0.6810 -0.2109
16671TIP3    H171504   4.305   6.514   1.322 -0.8528  0.0451  1.8471
16671TIP3    H271505   4.204   6.467   1.219  0.1566  1.7283  0.0360
16672TIP3   OH271506   0.229   2.577   3.399 -0.4213 -0.6157 -0.2994
16672TIP3    H171507   0.240   2.496   3.350 -2.7657  0.6439 -3.1538
16672TIP3    H271508   0.298   2.635   3.366  0.7335 -1.0885  1.1514
16673TIP3   OH271509   4.653   3.174   1.068  0.0450 -0.3824 -0.5513
16673TIP3    H171510   4.633   3.266   1.048 -2.2236 -0.6242  0.2748
16673TIP3    H271511   4.654   3.171   1.164 -1.1800 -1.4210 -0.5464
16674TIP3   OH271512   5.666   1.482   0.479 -0.0957 -0.3049  0.3910
16674TIP3    H171513   5.695   1.549   0.417 -2.8959  1.1494  0.5040
16674TIP3    H271514   5.611   1.423   0.427 -0.3088 -0.6233  0.9611
16675TIP3   OH271515   5.652   2.413  13.733  0.7564 -0.2527 -0.3479
16675TIP3    H171516   5.568   2.369  13.746  1.2130 -0.4864  2.3575
16675TIP3    H271517   5.686   2.375  13.652 -1.6238 -0.2703 -1.4368
16676TIP3   OH271518   0.344   5.549  15.021  0.0527 -0.0104 -0.0022
16676TIP3    H171519   0.249   5.540  15.029 -0.1047  1.9566  0.9404
16676TIP3    H271520   0.360   5.642  15.033  2.0995 -0.2653 -0.4054
16677TIP3   OH271521   1.885   4.776  14.450 -0.3638 -0.1251  0.2195
16677TIP3    H171522   1.848   4.865  14.445  0.2716  0.1993  1.0543
16677TIP3    H271523   1.977   4.787  14.429 -0.2229 -0.5434  0.6080
16678TIP3   OH271524   1.370   2.456  13.507 -0.4460 -0.2857 -0.3061
16678TIP3    H171525   1.361   2.383  13.447  2.0011 -1.8860  1.1104
16678TIP3    H271526   1.294   2.449  13.565 -0.8389 -1.0016 -0.8948
16679TIP3   OH271527   5.445   1.848   3.953 -0.1662 -0.6840  0.1651
16679TIP3    H171528   5.466   1.939   3.931  0.8045 -0.2751  2.5435
16679TIP3    H271529   5.351   1.849   3.970  0.0275  0.1417  1.2740
16680TIP3   OH271530   0.295   3.374  10.913  0.5382  0.1639 -0.9512
16680TIP3    H171531   0.350   3.314  10.862  0.9078  0.0141 -0.3976
16680TIP3    H271532   0.316   3.352  11.004 -0.4877  0.0682 -0.7275
16681TIP3   OH271533   1.988   1.723  15.811 -0.4104 -0.1789 -0.7076
16681TIP3    H171534   1.999   1.811  15.776 -0.4687 -0.6582 -1.9576
16681TIP3    H271535   1.903   1.725  15.855 -0.1469  0.5453 -0.2131
16682TIP3   OH271536   2.476   0.579  15.514  0.3937  0.1137 -0.6879
16682TIP3    H171537   2.420   0.518  15.561 -1.8994  1.8824 -0.9936
16682TIP3    H271538   2.553   0.589  15.571  0.4712 -2.3361 -0.2427
16683TIP3   OH271539   6.658   0.074  12.301 -0.0403  0.0424 -0.2956
16683TIP3    H171540   6.722   0.076  12.373 -0.0485  0.5207 -0.3014
16683TIP3    H271541   6.702   0.119  12.229 -0.5197  0.7068 -0.1818
16684TIP3   OH271542   0.867   5.831  11.687 -0.4655 -0.1545 -0.0043
16684TIP3    H171543   0.920   5.791  11.618 -0.0990 -1.0344  0.7636
16684TIP3    H271544   0.863   5.924  11.665  1.6882 -0.0095  0.0935
16685TIP3   OH271545   4.492   4.314  12.471 -0.4573  0.1622  0.0988
16685TIP3    H171546   4.533   4.233  12.501 -1.8970 -0.1666  1.3372
16685TIP3    H271547   4.442   4.289  12.394  1.4980  0.5463 -1.3596
16686TIP3   OH271548   0.675   2.672  13.136  0.2645 -0.3494  0.3063
16686TIP3    H171549   0.643   2.740  13.077  4.0435 -0.3143 -2.0328
16686TIP3    H271550   0.745   2.715  13.186 -0.3012 -1.4051  2.0771
16687TIP3   OH271551   2.666   6.375   6.594  0.1015  0.0907  0.5882
16687TIP3    H171552   2.754   6.410   6.584 -0.2739  0.7199 -0.7578
16687TIP3    H271553   2.613   6.451   6.618 -0.4336  0.1447 -0.7211
16688TIP3   OH271554   3.251   4.739   4.234  0.0686  0.4180 -0.3766
16688TIP3    H171555   3.293   4.677   4.294  1.0691  0.7745 -0.6854
16688TIP3    H271556   3.324   4.778   4.186 -0.6817  0.6083 -1.3727
16689TIP3   OH271557   6.111   2.519   2.759  0.2184 -0.0489 -0.2094
16689TIP3    H171558   6.091   2.426   2.772  1.1676 -0.3502 -0.8154
16689TIP3    H271559   6.084   2.561   2.840 -1.7541 -0.5916 -0.5388
16690TIP3   OH271560   4.731   5.915   0.426 -0.3999  0.2759  0.0409
16690TIP3    H171561   4.762   5.968   0.499  0.4639 -1.4704  1.0062
16690TIP3    H271562   4.809   5.873   0.392 -1.2290 -1.8749  0.5824
16691TIP3   OH271563   2.543   4.948  14.727 -0.0779  0.1430 -0.6863
16691TIP3    H171564   2.554   4.867  14.677  0.7711 -0.2202  0.0616
16691TIP3    H271565   2.472   4.929  14.788  1.1195 -0.5957  0.5328
16692TIP3   OH271566   0.994   6.026  15.123  0.4944 -0.3778 -0.1935
16692TIP3    H171567   1.049   6.104  15.129  0.5495 -0.4726  0.6507
16692TIP3    H271568   0.919   6.045  15.180 -0.2717 -0.3194 -1.1860
16693TIP3   OH271569   5.251   6.157  15.604 -0.3943  0.1854  0.1978
16693TIP3    H171570   5.168   6.135  15.562  0.0446  0.9694 -1.1350
16693TIP3    H271571   5.305   6.080  15.592 -0.6956 -0.0760  0.4838
16694TIP3   OH271572   2.888   2.275  17.237 -0.3473 -0.3686 -0.6901
16694TIP3    H171573   2.934   2.197  17.268  0.7017  0.9983  1.4285
16694TIP3    H271574   2.946   2.313  17.171 -0.4426 -0.8936 -1.0795
16695TIP3   OH271575   5.682   1.127  10.891 -0.5617 -0.1908  0.1183
16695TIP3    H171576   5.744   1.198  10.873  0.3247 -1.5247 -2.6473
16695TIP3    H271577   5.603   1.151  10.842 -1.4103  0.2882  1.6366
16696TIP3   OH271578   6.001   5.392  17.129  0.5919  0.6251 -0.0834
16696TIP3    H171579   5.911   5.357  17.127  0.7415  0.2536 -0.6555
16696TIP3    H271580   5.993   5.477  17.170 -0.2220  1.1327 -1.2313
16697TIP3   OH271581   1.080   3.064  14.071  0.3785 -0.0016  0.2375
16697TIP3    H171582   1.082   3.031  14.160  1.8399 -0.2700  0.1277
16697TIP3    H271583   1.117   2.994  14.018 -0.5039  0.1343 -0.6097
16698TIP3   OH271584   3.967   1.769   6.086  0.0433 -0.6889  0.1045
16698TIP3    H171585   4.035   1.702   6.085  0.6598 -0.0855 -0.9877
16698TIP3    H271586   3.985   1.820   6.165 -0.0433 -1.4226  0.6021
16699TIP3   OH271587   2.065   0.309  13.609 -0.5569 -0.1765 -0.6501
16699TIP3    H171588   2.096   0.242  13.548  0.2034  0.1115 -0.5951
16699TIP3    H271589   2.145   0.352  13.638 -0.7996 -0.9381  1.2979
16700TIP3   OH271590   5.324   0.691   4.756  0.4195  0.3462 -0.4792
16700TIP3    H171591   5.290   0.676   4.668 -0.8087  0.1480  0.0092
16700TIP3    H271592   5.417   0.666   4.751  0.4644  0.6957 -1.7963
16701TIP3   OH271593   0.059   1.650  16.643  0.2076  0.6831 -0.0033
16701TIP3    H171594   0.136   1.606  16.607 -0.5071  0.5748 -1.4672
16701TIP3    H271595  -0.014   1.615  16.593 -0.8123  0.8579  1.2983
16702TIP3   OH271596   2.623   2.540   5.561  0.0004 -0.0516 -0.2526
16702TIP3    H171597   2.696   2.504   5.611  0.8795 -0.9660 -2.1109
16702TIP3    H271598   2.546   2.519   5.614  0.7232 -2.4439 -0.0072
16703TIP3   OH271599   6.240   0.006  12.520 -0.1830 -0.3540  0.3018
16703TIP3    H171600   6.188   0.050  12.587  1.2919 -1.1903  2.0602
16703TIP3    H271601   6.325   0.048  12.524  0.1188 -0.8389 -0.6459
16704TIP3   OH271602   1.883   2.436  10.308 -0.1310  0.1245 -0.0825
16704TIP3    H171603   1.922   2.349  10.317 -0.3900  0.0435  0.2930
16704TIP3    H271604   1.932   2.491  10.368 -1.0387 -0.1365  0.9466
16705TIP3   OH271605   0.940   1.585  13.148 -0.4786 -0.1959 -0.5692
16705TIP3    H171606   0.864   1.638  13.173 -0.1202 -0.7913  2.0024
16705TIP3    H271607   0.903   1.499  13.129 -0.8900  0.4873 -3.5216
16706TIP3   OH271608   1.399   1.599   5.846 -0.6229 -1.2680  0.2770
16706TIP3    H171609   1.463   1.658   5.807 -0.4036 -1.0128  1.0131
16706TIP3    H271610   1.316   1.647   5.844 -1.0331 -1.9757 -1.5951
16707TIP3   OH271611   1.992   4.155  14.973  0.3836  0.0444  0.1984
16707TIP3    H171612   2.068   4.098  14.985 -0.0193 -0.3715  0.8074
16707TIP3    H271613   2.008   4.229  15.031  1.6631  1.3753 -1.7259
16708TIP3   OH271614   6.251   4.479   5.458  0.1256 -0.4316  0.1692
16708TIP3    H171615   6.264   4.396   5.504  0.8720  0.1298  1.0134
16708TIP3    H271616   6.242   4.455   5.366 -1.4843 -1.6016  0.5778
16709TIP3   OH271617   2.136   3.250   5.898 -0.5660 -0.0459 -0.1874
16709TIP3    H171618   2.130   3.255   5.802 -1.2702 -0.6715 -0.1821
16709TIP3    H271619   2.230   3.250   5.916 -0.3832 -1.6185 -0.9899
16710TIP3   OH271620   2.890   4.775  14.463 -0.2710  0.1756  0.1426
16710TIP3    H171621   2.968   4.816  14.426 -0.1455 -1.2107 -1.2414
16710TIP3    H271622   2.911   4.764  14.556 -0.0157  2.4382  0.3915
16711TIP3   OH271623   1.827   0.952  10.982 -0.2820  0.0629 -0.2861
16711TIP3    H171624   1.878   1.016  10.932  0.0308 -0.5451 -0.7480
16711TIP3    H271625   1.869   0.868  10.965 -0.7961 -0.2977  0.1800
16712TIP3   OH271626   0.447   4.630   3.086 -0.6788  0.1839  0.4101
16712TIP3    H171627   0.451   4.616   3.180 -1.4324  1.8685  0.7366
16712TIP3    H271628   0.383   4.701   3.075  0.2646  0.8346 -1.2572
16713TIP3   OH271629   4.542   5.490   0.305 -0.7287  0.5043  0.1693
16713TIP3    H171630   4.598   5.458   0.234 -1.4708  1.7262 -1.0166
16713TIP3    H271631   4.590   5.468   0.385 -0.6837 -2.4977 -0.5815
16714TIP3   OH271632   5.603   1.967  15.947  0.3279 -0.0089  0.8354
16714TIP3    H171633   5.557   1.963  16.031 -0.5036  0.8481  0.4398
16714TIP3    H271634   5.638   1.879  15.935  0.8549 -0.0232  2.2927
16715TIP3   OH271635   0.296   0.853  15.374 -0.1185  0.1549 -0.4511
16715TIP3    H171636   0.220   0.907  15.397 -0.4507 -1.4177  2.7299
16715TIP3    H271637   0.354   0.860  15.450  0.8861 -2.0796 -0.9396
16716TIP3   OH271638   5.584   4.419  12.790  0.2303 -0.4044  0.6326
16716TIP3    H171639   5.662   4.441  12.841  0.6878 -1.3747  0.3684
16716TIP3    H271640   5.608   4.439  12.699  0.1763 -0.6994  0.5517
16717TIP3   OH271641   0.866   3.843   5.192 -0.7554  0.1013  0.6124
16717TIP3    H171642   0.914   3.768   5.157  0.1331  0.8350  0.2141
16717TIP3    H271643   0.912   3.864   5.274 -0.2919  0.9009  0.1562
16718TIP3   OH271644   6.409   5.268  15.663  0.2891 -0.2520 -0.1040
16718TIP3    H171645   6.447   5.265  15.751 -0.7835 -1.2532  0.3655
16718TIP3    H271646   6.480   5.296  15.606  0.8412  1.0470  1.1703
16719TIP3   OH271647   4.578   2.903  16.694  0.5182 -0.4956 -0.6751
16719TIP3    H171648   4.600   2.883  16.785 -1.2954  0.8456  0.1241
16719TIP3    H271649   4.538   2.823  16.660  1.6004 -1.1483 -0.4442
16720TIP3   OH271650   3.135   3.773  11.366  0.2502  0.0693 -0.1457
16720TIP3    H171651   3.102   3.863  11.372  0.2088  0.0263  0.4110
16720TIP3    H271652   3.168   3.755  11.454 -1.4132 -1.0792  0.2830
16721TIP3   OH271653   1.775   0.198   3.591 -0.1827  0.4819 -0.5459
16721TIP3    H171654   1.742   0.129   3.534  1.2829 -1.4521  0.8135
16721TIP3    H271655   1.842   0.243   3.539 -0.2504  0.0253 -1.0287
16722TIP3   OH271656   4.693   3.213  13.798 -0.3832 -0.5208  0.4965
16722TIP3    H171657   4.649   3.298  13.800 -0.4543 -0.5330 -0.2485
16722TIP3    H271658   4.786   3.234  13.796 -0.4013 -0.4562  0.2982
16723TIP3   OH271659   5.906   4.326  14.221 -0.0014 -0.1174  0.2052
16723TIP3    H171660   5.855   4.390  14.271 -2.9027  1.5193 -4.1960
16723TIP3    H271661   5.987   4.373  14.200 -0.0712  0.3077  0.8367
16724TIP3   OH271662   2.800   5.173  13.579  0.5423  0.3166 -0.7589
16724TIP3    H171663   2.743   5.225  13.523  1.1489  1.8698  0.0068
16724TIP3    H271664   2.743   5.107  13.618 -0.3652  0.7439 -1.3452
16725TIP3   OH271665   3.730   5.756  14.748  0.0026  0.2537 -0.5651
16725TIP3    H171666   3.812   5.732  14.706 -0.3996  1.5697 -2.1833
16725TIP3    H271667   3.670   5.684  14.726  0.2504  0.1264 -0.8246
16726TIP3   OH271668   4.734   2.163   4.080 -0.4480  0.1117 -0.5378
16726TIP3    H171669   4.698   2.120   4.158  1.3898  0.9901  0.8929
16726TIP3    H271670   4.792   2.098   4.040  1.2319  0.6820  0.8227
16727TIP3   OH271671   0.341   5.303  14.511 -0.9898 -0.0179  0.3190
16727TIP3    H171672   0.355   5.267  14.424 -0.1138  1.4535 -0.1885
16727TIP3    H271673   0.401   5.377  14.516 -0.7770 -0.2812  2.3087
16728TIP3   OH271674   1.417   4.784  12.496  0.0813  0.1217  0.1004
16728TIP3    H171675   1.346   4.789  12.559 -1.1642  0.5330 -1.2674
16728TIP3    H271676   1.480   4.723  12.535 -1.4088 -0.9119  1.0000
16729TIP3   OH271677   1.480   0.418   1.096  0.5117  0.4815  0.4256
16729TIP3    H171678   1.484   0.353   1.026 -0.1278  0.0639  0.7680
16729TIP3    H271679   1.571   0.428   1.124  0.8549  1.1122 -0.8666
16730TIP3   OH271680   0.801   3.882  10.992  0.4332 -0.2153 -0.5260
16730TIP3    H171681   0.742   3.897  10.918  1.4667  2.1657 -0.9845
16730TIP3    H271682   0.809   3.787  10.998 -3.1274 -0.6659 -0.6148
16731TIP3   OH271683   0.031   4.764  15.773  0.5161  0.1308  0.5285
16731TIP3    H171684   0.023   4.677  15.811 -1.7088  0.3758  0.8032
16731TIP3    H271685   0.123   4.787  15.783  0.9080 -1.6981  1.5377
16732TIP3   OH271686   6.265   3.067   1.878 -0.1576  0.1269 -0.1106
16732TIP3    H171687   6.356   3.049   1.902 -0.4968  1.0514  2.0270
16732TIP3    H271688   6.229   3.115   1.952 -2.0415  0.9442 -1.4689
16733TIP3   OH271689   0.659   0.149   1.743 -0.1478  0.1314  0.2293
16733TIP3    H171690   0.687   0.224   1.691 -1.0475  1.5180  1.6513
16733TIP3    H271691   0.577   0.121   1.702  0.1524 -0.0460 -0.2618
16734TIP3   OH271692   2.870   5.707  14.688 -0.1110 -0.0174  0.9498
16734TIP3    H171693   2.890   5.693  14.780 -0.2290  2.2623  1.3897
16734TIP3    H271694   2.775   5.704  14.683 -0.1971  1.4184  1.2475
16735TIP3   OH271695   5.561   3.651  12.013  0.1757  0.3508 -0.3601
16735TIP3    H171696   5.509   3.693  12.082  0.3134 -1.4444  0.9396
16735TIP3    H271697   5.643   3.627  12.057  1.2866  1.2986 -1.8306
16736TIP3   OH271698   3.061   3.702   2.085  0.0064  0.3277 -0.3019
16736TIP3    H171699   3.042   3.786   2.127  0.4613 -0.0847  0.7637
16736TIP3    H271700   3.132   3.721   2.024 -1.8472  1.3070 -2.2868
16737TIP3   OH271701   5.742   2.592  15.837  0.1407  0.4463  0.2361
16737TIP3    H171702   5.763   2.582  15.744  0.2189 -1.6300  0.4318
16737TIP3    H271703   5.817   2.555  15.883  1.0892  3.3352  1.2575
16738TIP3   OH271704   6.010   1.890  13.101  0.0231 -0.0107  0.0183
16738TIP3    H171705   5.932   1.907  13.154  0.8300 -0.0624  1.2423
16738TIP3    H271706   6.017   1.795  13.098 -0.0975 -0.0124 -0.3222
16739TIP3   OH271707   4.716   2.576   4.235 -0.3931 -1.2646 -0.0307
16739TIP3    H171708   4.712   2.544   4.325  1.1816 -0.3123  0.4062
16739TIP3    H271709   4.625   2.599   4.214 -0.7170 -1.0344  1.4869
16740TIP3   OH271710   2.532   2.123  11.180  0.4737 -0.7670  0.0957
16740TIP3    H171711   2.524   2.215  11.155 -1.2093 -1.0779 -0.6796
16740TIP3    H271712   2.553   2.125  11.273  0.6691  0.4043  0.0424
16741TIP3   OH271713   1.665   6.390   4.423  0.6666  0.1434 -0.5521
16741TIP3    H171714   1.673   6.430   4.510 -2.6284 -0.8199  0.3380
16741TIP3    H271715   1.624   6.457   4.369 -1.1204 -0.5875 -0.1641
16742TIP3   OH271716   6.045   4.001  10.485  0.0420 -0.0554  0.0615
16742TIP3    H171717   6.109   3.933  10.463  1.5503  1.2113  0.3051
16742TIP3    H271718   6.087   4.083  10.458 -0.8892  0.9496  1.5010
16743TIP3   OH271719   3.655   0.276   3.770 -0.4137 -0.5627 -0.1384
16743TIP3    H171720   3.596   0.211   3.732 -0.3736 -0.8394  0.2740
16743TIP3    H271721   3.619   0.360   3.741  0.0082 -0.7802 -1.3740
16744TIP3   OH271722   5.791   3.263  10.335 -0.3815  0.3269 -0.5893
16744TIP3    H171723   5.864   3.305  10.381 -1.0152 -1.7568  2.6201
16744TIP3    H271724   5.721   3.328  10.339 -0.9129 -0.2616  3.0565
16745TIP3   OH271725   2.320   5.817  11.554 -0.0739  0.0054  0.3123
16745TIP3    H171726   2.316   5.874  11.631  0.0876 -1.2670  1.2922
16745TIP3    H271727   2.411   5.788  11.550  0.6425  2.1846 -2.0093
16746TIP3   OH271728   6.546   2.153   1.008  0.0330  0.7532  0.3223
16746TIP3    H171729   6.606   2.222   1.036 -0.7613  1.2767  0.7391
16746TIP3    H271730   6.460   2.180   1.041 -0.5602  0.3523 -0.8587
16747TIP3   OH271731   4.051   1.657  11.549  0.2991 -0.4119  0.0507
16747TIP3    H171732   4.021   1.621  11.466 -0.1079 -0.8352  0.3708
16747TIP3    H271733   4.050   1.751  11.537 -0.7826 -0.4293 -0.0848
16748TIP3   OH271734   2.175   1.272   3.423 -0.2542 -0.2620 -0.4176
16748TIP3    H171735   2.124   1.202   3.382  0.1094 -1.8667  1.6877
16748TIP3    H271736   2.264   1.259   3.389 -0.4989  0.2748 -1.3107
16749TIP3   OH271737   6.091   5.439  10.404  0.0510  0.7683  0.4792
16749TIP3    H171738   6.144   5.409  10.330 -0.8368  0.7270 -0.1640
16749TIP3    H271739   6.010   5.388  10.397 -0.2236  1.0993  1.2075
16750TIP3   OH271740   5.169   5.593   0.522  0.3423 -0.2100 -0.2608
16750TIP3    H171741   5.221   5.555   0.451 -0.3415 -0.4011 -0.6674
16750TIP3    H271742   5.170   5.525   0.591  1.1004  0.0235 -0.0274
16751TIP3   OH271743   4.329   0.431   2.254 -0.1834 -0.3440  0.6191
16751TIP3    H171744   4.336   0.357   2.314 -0.1568  0.2927  1.4317
16751TIP3    H271745   4.288   0.500   2.306 -1.8760 -0.3310 -0.6508
16752TIP3   OH271746   1.905   5.154  11.360 -0.7805  0.4898  0.0003
16752TIP3    H171747   1.825   5.191  11.396 -0.8573  1.4759 -1.1319
16752TIP3    H271748   1.957   5.230  11.333 -0.4887 -0.1799 -1.4275
16753TIP3   OH271749   1.262   6.667  16.855  0.1126 -0.2371  0.2621
16753TIP3    H171750   1.310   6.588  16.830  0.6837  0.1371  0.1855
16753TIP3    H271751   1.173   6.635  16.873  0.6401 -1.1128  1.4516
16754TIP3   OH271752   3.185   4.489   0.094 -0.0248  0.1569 -0.2833
16754TIP3    H171753   3.098   4.487   0.133 -0.8981  1.8279 -1.9757
16754TIP3    H271754   3.169   4.486  -0.001  1.8171 -0.4602 -0.6205
16755TIP3   OH271755   4.098   6.046   3.366  0.2639 -0.2804  0.5600
16755TIP3    H171756   4.014   6.039   3.321  0.0237  1.6525  0.6400
16755TIP3    H271757   4.076   6.050   3.459  0.4963 -0.5206  0.6267
16756TIP3   OH271758   1.987   1.852   6.448  0.4044 -0.6249  0.3060
16756TIP3    H171759   1.980   1.934   6.495  0.9493 -0.5480  0.2542
16756TIP3    H271760   1.935   1.790   6.500 -0.7526 -0.0537 -0.1274
16757TIP3   OH271761   2.721   3.899   3.514 -0.1688 -0.3157  0.0701
16757TIP3    H171762   2.687   3.810   3.521  1.5092 -1.0869 -1.0211
16757TIP3    H271763   2.737   3.911   3.420 -1.0033  1.4119  0.1063
16758TIP3   OH271764   1.042   4.062  17.185 -0.1036  0.2432  0.0594
16758TIP3    H171765   0.994   4.144  17.189  0.8186  0.8542 -0.8069
16758TIP3    H271766   0.984   4.002  17.139 -0.5080  0.6169  0.0779
16759TIP3   OH271767   2.756   1.917  14.188  0.7129 -0.4629  0.5378
16759TIP3    H171768   2.763   1.920  14.093 -0.5910 -1.0360  0.3962
16759TIP3    H271769   2.663   1.929  14.206  1.1874  1.8432  1.8717
16760TIP3   OH271770   3.670   4.483  13.571 -0.4006  0.0131  0.1239
16760TIP3    H171771   3.594   4.525  13.530 -0.4125 -0.4641 -0.3550
16760TIP3    H271772   3.702   4.421  13.505  0.1907 -0.0445  0.4581
16761TIP3   OH271773   1.221   1.127   1.046 -0.7368 -0.6220  1.1024
16761TIP3    H171774   1.156   1.141   1.115 -1.4359 -3.2793  1.1020
16761TIP3    H271775   1.300   1.098   1.093 -0.5524 -0.4467  0.9022
16762TIP3   OH271776   2.650   1.913   3.387  0.4350  0.4328  0.1342
16762TIP3    H171777   2.579   1.956   3.340  0.3083 -1.2473 -1.3315
16762TIP3    H271778   2.710   1.883   3.318  0.4303 -1.7999  1.0051
16763TIP3   OH271779   6.172   1.310  14.824 -1.1058  0.4298  0.1946
16763TIP3    H171780   6.247   1.327  14.767 -0.2662  0.3221  1.2156
16763TIP3    H271781   6.143   1.397  14.852 -0.3195  0.4475  1.0472
16764TIP3   OH271782   2.974   6.735   6.432  0.3391 -0.0837  0.6859
16764TIP3    H171783   2.979   6.759   6.339 -0.5384 -2.9572 -0.2083
16764TIP3    H271784   3.058   6.764   6.468 -0.4541  3.8359 -0.1729
16765TIP3   OH271785   0.082   2.811   3.106  0.2899  0.3264  0.2539
16765TIP3    H171786   0.127   2.895   3.115  0.1368  0.2547  2.0473
16765TIP3    H271787   0.081   2.775   3.194 -1.2233 -0.7439 -0.1597
16766TIP3   OH271788   0.733   1.589  15.587  0.3949  0.5185 -0.0891
16766TIP3    H171789   0.705   1.499  15.569  1.8916  0.6627 -4.4540
16766TIP3    H271790   0.797   1.580  15.658 -1.3746 -1.4047  1.3981
16767TIP3   OH271791   2.477   0.971   6.419  0.0899 -0.5108  0.1436
16767TIP3    H171792   2.539   0.966   6.347  0.2978  2.0217  0.0869
16767TIP3    H271793   2.497   1.054   6.463 -1.0527 -1.2371  2.1816
16768TIP3   OH271794   3.928   2.179  15.983 -0.1116 -0.9075 -0.5471
16768TIP3    H171795   3.918   2.240  15.909 -1.6271 -0.2048  0.1964
16768TIP3    H271796   3.846   2.131  15.986  0.8069 -2.5482 -0.6875
16769TIP3   OH271797   5.540   5.669   1.702 -0.0772  0.2178  0.0324
16769TIP3    H171798   5.552   5.763   1.711 -0.0290  0.0894  1.5207
16769TIP3    H271799   5.597   5.631   1.769  0.5742 -0.9115 -1.1274
16770TIP3   OH271800   1.697   5.995   5.787 -0.5978  0.1724  0.2406
16770TIP3    H171801   1.756   5.959   5.853  1.0756  1.2135 -0.5950
16770TIP3    H271802   1.674   6.082   5.820 -2.2655 -0.4711  0.8737
16771TIP3   OH271803   0.337   5.747   4.078  0.1364  0.4539  0.3996
16771TIP3    H171804   0.256   5.796   4.091 -0.6399 -0.0998 -1.8366
16771TIP3    H271805   0.314   5.677   4.017  2.5021  0.9699 -1.2678
16772TIP3   OH271806   1.906   5.106  12.394  0.0587 -0.0273 -0.1576
16772TIP3    H171807   1.824   5.074  12.355  0.2148  1.3429 -1.7267
16772TIP3    H271808   1.879   5.143  12.478 -1.0430  0.8596 -0.8742
16773TIP3   OH271809   4.895   6.583   3.523 -0.7091 -0.2186  0.2267
16773TIP3    H171810   4.812   6.623   3.497  0.2501 -0.0846 -3.0504
16773TIP3    H271811   4.961   6.650   3.506  0.3810 -1.3730 -0.2769
16774TIP3   OH271812   6.138   4.568   4.117  0.5285  0.2584  0.0125
16774TIP3    H171813   6.130   4.662   4.134 -2.1577 -0.1044  1.2262
16774TIP3    H271814   6.221   4.543   4.158  1.3201  2.0810 -0.3926
16775TIP3   OH271815   4.139   1.490   0.969 -0.7656 -0.5222 -0.5277
16775TIP3    H171816   4.081   1.475   1.043  0.1882  0.9857  0.5856
16775TIP3    H271817   4.094   1.556   0.917 -0.2358  0.4138  0.1690
16776TIP3   OH271818   5.806   2.527   2.880 -0.6267  0.3772 -0.3026
16776TIP3    H171819   5.828   2.474   2.804 -0.8809  0.5564 -0.5063
16776TIP3    H271820   5.866   2.498   2.948  0.4685  1.0894 -0.9295
16777TIP3   OH271821   6.703   0.258  15.986  0.1427 -0.0607 -0.3689
16777TIP3    H171822   6.715   0.352  15.970  0.4697 -0.2465 -1.2850
16777TIP3    H271823   6.614   0.251  16.020  0.0405  0.5572 -0.4849
16778TIP3   OH271824   2.206   5.192   1.657  0.5079  0.4724 -0.5295
16778TIP3    H171825   2.160   5.230   1.732 -0.0275 -0.6720 -0.2495
16778TIP3    H271826   2.166   5.233   1.580  0.7921  1.3607 -0.2147
16779TIP3   OH271827   1.805   5.658  17.049  0.1964 -0.4777  0.3964
16779TIP3    H171828   1.737   5.651  16.981 -1.0610 -0.5089  1.6086
16779TIP3    H271829   1.796   5.748  17.081  1.5064 -0.1165 -0.1715
16780TIP3   OH271830   2.925   2.940   1.940  0.4025  0.5280  0.1177
16780TIP3    H171831   2.832   2.922   1.932  0.2714  1.1526  0.1408
16780TIP3    H271832   2.944   2.929   2.033  0.5870 -0.6368 -0.0447
16781TIP3   OH271833   6.110   3.135  12.357 -0.6455 -0.0149 -0.3960
16781TIP3    H171834   6.169   3.079  12.307 -0.1937  1.5851 -1.7531
16781TIP3    H271835   6.110   3.219  12.309 -0.4619  1.5100  2.0941
16782TIP3   OH271836   4.856   0.150   3.804  0.4587  0.0796  0.4344
16782TIP3    H171837   4.893   0.226   3.758 -0.9229  0.6808  0.2832
16782TIP3    H271838   4.775   0.183   3.843  1.0900 -0.6761  2.4975
16783TIP3   OH271839   3.816   6.168   0.089 -0.5918 -0.2934 -0.2218
16783TIP3    H171840   3.798   6.255   0.054  1.9569 -0.6094 -2.7189
16783TIP3    H271841   3.896   6.179   0.141 -0.9551 -0.9306  0.4863
16784TIP3   OH271842   3.700   0.463   1.355 -0.1413  0.1124 -0.3630
16784TIP3    H171843   3.659   0.392   1.305  1.3647 -0.0024 -1.5040
16784TIP3    H271844   3.716   0.425   1.441 -1.8984 -0.0010 -0.0483
16785TIP3   OH271845   2.198   1.845   1.293  0.0928 -0.0467 -0.5918
16785TIP3    H171846   2.225   1.913   1.353  0.9723 -1.0092  0.1331
16785TIP3    H271847   2.259   1.773   1.308 -2.0850 -1.8494  0.2268
16786TIP3   OH271848   6.088   3.474   1.947 -0.5593 -0.1130  0.3099
16786TIP3    H171849   6.047   3.481   1.861  0.8885  0.1430 -0.3805
16786TIP3    H271850   6.043   3.401   1.989 -3.2352  1.5070  0.4805
16787TIP3   OH271851   5.522   3.905  14.412 -0.0869  0.4786 -0.7477
16787TIP3    H171852   5.476   3.923  14.330 -1.2766  0.2693 -0.1413
16787TIP3    H271853   5.587   3.975  14.418 -0.4002  0.8546 -1.5676
16788TIP3   OH271854   5.965   2.369   3.634  0.1026 -0.0531  0.5730
16788TIP3    H171855   6.018   2.413   3.700 -1.9373  0.8261  1.6751
16788TIP3    H271856   6.025   2.357   3.560  1.2002  3.1244  0.8174
16789TIP3   OH271857   6.740   3.471   3.844 -0.0447  0.4464  0.2450
16789TIP3    H171858   6.806   3.437   3.785  0.2746 -1.4447  1.5899
16789TIP3    H271859   6.692   3.535   3.792  2.0266  0.9748 -1.1411
16790TIP3   OH271860   0.254   1.216   2.724 -0.1150  0.4754  0.2773
16790TIP3    H171861   0.215   1.218   2.636  1.7205 -1.1892 -0.6778
16790TIP3    H271862   0.336   1.167   2.712 -0.6762 -1.4843  3.2925
16791TIP3   OH271863   1.834   5.964   2.271  0.1637  0.0105  0.5925
16791TIP3    H171864   1.918   5.959   2.225  0.7130 -0.3524  1.6124
16791TIP3    H271865   1.835   6.048   2.315 -0.7632  0.7785 -0.7647
16792TIP3   OH271866   3.244   1.351  14.105 -0.4541 -0.2529  0.0771
16792TIP3    H171867   3.173   1.357  14.041 -0.8475  0.0951  0.5340
16792TIP3    H271868   3.254   1.258  14.123 -1.8974 -0.2365  1.1977
16793TIP3   OH271869   4.952   3.972   2.893  0.1259  0.0222 -0.0180
16793TIP3    H171870   4.874   3.973   2.949  0.9596 -0.3011  1.1867
16793TIP3    H271871   4.918   3.957   2.805 -1.3393  1.8393  0.1764
16794TIP3   OH271872   2.202   6.233   2.102  0.4719  0.4825 -0.1685
16794TIP3    H171873   2.247   6.315   2.082 -0.3540  1.3905  1.4541
16794TIP3    H271874   2.117   6.242   2.060  0.5054  0.3240 -0.2675
16795TIP3   OH271875   1.709   4.958   1.354  0.4493  0.1021  0.5241
16795TIP3    H171876   1.675   4.933   1.440  0.5239 -0.9096  0.2669
16795TIP3    H271877   1.796   4.919   1.351 -0.1717 -1.2329 -0.6384
16796TIP3   OH271878   6.413   4.550  15.175  0.7002  0.3377  0.0542
16796TIP3    H171879   6.340   4.609  15.194 -0.9978 -1.2706 -1.0784
16796TIP3    H271880   6.460   4.592  15.103  0.6374  1.1973  0.5078
16797TIP3   OH271881   3.408   6.733  15.687  0.2986  0.2429 -0.9481
16797TIP3    H171882   3.412   6.815  15.637 -2.0683  1.3345  0.5137
16797TIP3    H271883   3.315   6.711  15.690  0.6443 -1.1759  0.7648
16798TIP3   OH271884   1.065   1.393   2.956  0.0287 -0.8016  0.1951
16798TIP3    H171885   0.986   1.444   2.977  1.4449  0.8419  1.7825
16798TIP3    H271886   1.035   1.302   2.954 -2.0589 -0.1611 -0.1091
16799TIP3   OH271887   6.637   2.091   3.993 -0.0676  0.0800  0.4720
16799TIP3    H171888   6.667   2.128   3.910 -0.5741  2.6350  1.3340
16799TIP3    H271889   6.629   2.166   4.052 -1.2960 -1.4199  2.3702
16800TIP3   OH271890   5.488   3.338   4.846  0.0773  0.2077  0.2684
16800TIP3    H171891   5.397   3.313   4.835  0.0723  0.3324  0.0116
16800TIP3    H271892   5.492   3.381   4.931 -0.0299 -0.1324  0.4452
16801TIP3   OH271893   0.460   2.155  13.888 -0.0812 -0.2289 -0.2774
16801TIP3    H171894   0.480   2.211  13.963 -0.6309  1.0880 -1.0773
16801TIP3    H271895   0.519   2.080  13.897  0.6001  0.4218  0.8777
16802TIP3   OH271896   0.237   1.194  12.226  0.1417  0.8221 -0.2608
16802TIP3    H171897   0.250   1.140  12.304 -0.7187 -1.0022 -1.3254
16802TIP3    H271898   0.222   1.282  12.260  1.3834  0.3861  1.5491
16803TIP3   OH271899   4.982   5.168  15.173  0.1340 -0.3400 -0.0628
16803TIP3    H171900   4.955   5.076  15.171  0.6397 -0.5443  1.6315
16803TIP3    H271901   5.057   5.172  15.113  0.3575 -1.1121  0.1582
16804TIP3   OH271902   5.614   0.618  11.786 -0.2852 -0.6174 -0.9847
16804TIP3    H171903   5.543   0.639  11.846  0.0513 -0.1164 -0.7526
16804TIP3    H271904   5.600   0.526  11.763 -2.0797 -0.0341 -2.4247
16805TIP3   OH271905   0.125   0.382   1.423 -0.2640  0.6077 -0.3491
16805TIP3    H171906   0.149   0.452   1.362  1.1260  0.4055 -0.0713
16805TIP3    H271907   0.158   0.411   1.508 -1.0793  0.3164  0.0815
16806TIP3   OH271908   3.783   4.658  13.021  0.2366 -0.5920 -0.2724
16806TIP3    H171909   3.711   4.594  13.012 -1.5622  0.9073  2.1970
16806TIP3    H271910   3.816   4.644  13.110  0.0142  1.6455  0.2067
16807TIP3   OH271911   3.941   4.580  11.948  0.3256 -0.3218 -0.5939
16807TIP3    H171912   3.926   4.504  12.004  0.1997 -1.4170 -2.0710
16807TIP3    H271913   4.029   4.610  11.972  0.1069 -0.5015  0.4784
16808TIP3   OH271914   5.906   1.269  17.008  0.5089  0.1919 -0.2994
16808TIP3    H171915   5.864   1.346  16.970  3.0363  0.7031 -2.2854
16808TIP3    H271916   5.850   1.196  16.981  0.1004  0.9653 -1.5950
16809TIP3   OH271917   4.262   4.127   4.716 -0.1773 -0.3196  0.1896
16809TIP3    H171918   4.304   4.169   4.791  1.0836 -1.4651  0.1658
16809TIP3    H271919   4.311   4.160   4.640 -0.8802  0.1579 -0.0678
16810TIP3   OH271920   0.120   0.334   2.114 -0.3296  0.2596 -0.1480
16810TIP3    H171921   0.181   0.367   2.180 -1.2408  0.8025  0.4560
16810TIP3    H271922   0.047   0.298   2.165 -0.4871 -0.4383 -0.8455
16811TIP3   OH271923   0.754   5.147  11.109  0.3182 -0.6157  0.0147
16811TIP3    H171924   0.805   5.076  11.069  0.6840 -0.2861 -0.1105
16811TIP3    H271925   0.715   5.193  11.034  2.4676  1.1207 -0.1330
16812TIP3   OH271926   0.635   2.986   3.732  0.5136  0.0167  0.3887
16812TIP3    H171927   0.540   2.986   3.725  0.6158 -0.6125 -3.3808
16812TIP3    H271928   0.655   2.918   3.796 -1.6814 -5.8770 -4.2562
16813TIP3   OH271929   1.366   3.217   1.621  0.2678 -0.2797  1.3716
16813TIP3    H171930   1.338   3.308   1.609 -1.1653 -0.9907 -1.6953
16813TIP3    H271931   1.453   3.224   1.659  0.1812  2.3810  1.2931
16814TIP3   OH271932   2.202   0.720  13.641  0.0458  0.0109 -0.4859
16814TIP3    H171933   2.237   0.675  13.564 -0.0946  0.9705 -1.1312
16814TIP3    H271934   2.162   0.651  13.693  0.0287 -0.6384 -1.3348
16815TIP3   OH271935   1.701   0.769  14.612 -0.1763  0.3945  0.5397
16815TIP3    H171936   1.646   0.847  14.623 -1.8710 -0.6335 -0.1549
16815TIP3    H271937   1.664   0.705  14.672  0.5640 -0.1920  0.3810
16816TIP3   OH271938   0.938   5.736   2.824 -0.3543 -0.2226 -0.4976
16816TIP3    H171939   0.882   5.756   2.899  1.1275  2.6711 -0.0558
16816TIP3    H271940   0.889   5.766   2.748 -0.3007  0.3607 -0.3066
16817TIP3   OH271941   1.617   3.177  15.670  0.4659  0.3741 -0.6955
16817TIP3    H171942   1.689   3.148  15.614 -3.1150 -0.1105 -5.6512
16817TIP3    H271943   1.619   3.272  15.664  0.9075  0.3867 -0.4223
16818TIP3   OH271944   6.036   5.728  15.880  0.1666 -0.5830 -0.0712
16818TIP3    H171945   5.947   5.733  15.917 -0.9776  0.6917 -2.6940
16818TIP3    H271946   6.087   5.790  15.931 -0.9369  0.0187  0.3263
16819TIP3   OH271947   4.862   4.100   1.075  0.0045  0.2360  0.4170
16819TIP3    H171948   4.913   4.179   1.094  1.5514 -0.2142 -1.5622
16819TIP3    H271949   4.773   4.133   1.059  0.3240  1.3954  0.8879
16820TIP3   OH271950   2.948   2.000   5.811 -0.4818 -0.0162 -0.3292
16820TIP3    H171951   2.856   1.991   5.785 -0.2984  1.8462 -1.7861
16820TIP3    H271952   2.997   1.993   5.729  0.4393  1.8811  0.0178
16821TIP3   OH271953   5.970   5.953  13.780  0.0304  0.3110  0.8522
16821TIP3    H171954   6.012   6.027  13.737 -0.3224  0.4066  0.6731
16821TIP3    H271955   6.043   5.899  13.812  0.2852  0.8479  1.1870
16822TIP3   OH271956   0.148   6.342  14.651  0.2089  0.5805 -0.1351
16822TIP3    H171957   0.137   6.416  14.592 -1.5620  0.7793  0.4107
16822TIP3    H271958   0.225   6.296  14.617 -0.6574  0.7675 -2.5225
16823TIP3   OH271959   0.347   6.045   0.383  0.2758 -0.6153 -0.4210
16823TIP3    H171960   0.354   6.130   0.428  1.3370 -1.7199  1.6220
16823TIP3    H271961   0.253   6.031   0.373  0.0707  0.5330 -0.3033
16824TIP3   OH271962   0.691   3.927   0.507  0.2057 -0.9103 -0.6621
16824TIP3    H171963   0.711   3.880   0.588 -0.6639 -1.3979 -0.7246
16824TIP3    H271964   0.718   4.017   0.524 -0.6214 -0.8558  0.4341
16825TIP3   OH271965   3.789   2.534  13.390 -0.1424  0.2602  0.3233
16825TIP3    H171966   3.841   2.526  13.470  0.9771  2.0474 -0.1864
16825TIP3    H271967   3.701   2.556  13.422 -0.2813 -1.2710  1.1222
16826TIP3   OH271968   5.144   5.057   2.579 -0.4189  0.5878 -0.0571
16826TIP3    H171969   5.226   5.045   2.531 -1.7543 -0.8956 -2.1491
16826TIP3    H271970   5.091   5.114   2.523 -0.9096  1.3731  1.1620
16827TIP3   OH271971   4.822   5.805   4.911  0.1438  0.1216 -0.8530
16827TIP3    H171972   4.840   5.892   4.947  1.2315  0.0694 -1.2146
16827TIP3    H271973   4.789   5.754   4.985 -0.6207  0.8648 -0.6665
16828TIP3   OH271974   5.576   3.294  13.438 -0.1669  0.3480  0.3643
16828TIP3    H171975   5.602   3.235  13.509  0.0501  0.8529  0.7050
16828TIP3    H271976   5.505   3.247  13.394 -0.5380  0.1822  1.1247
16829TIP3   OH271977   4.760   0.759  15.556 -0.1478  0.2528  0.2798
16829TIP3    H171978   4.851   0.730  15.565  0.8326  3.2273  0.8750
16829TIP3    H271979   4.710   0.694  15.606  1.7819 -0.7885  0.9915
16830TIP3   OH271980   1.176   4.719  13.518 -0.0437  0.2434 -0.5377
16830TIP3    H171981   1.257   4.670  13.536  1.3568  3.0096  1.3872
16830TIP3    H271982   1.106   4.657  13.540  1.5179 -1.6933 -0.6562
16831TIP3   OH271983   6.064   1.747   5.058 -0.2870  0.4095 -0.5725
16831TIP3    H171984   6.107   1.740   4.973 -0.5026 -1.0153 -0.5910
16831TIP3    H271985   5.977   1.781   5.038  0.4447  2.4078 -0.6307
16832TIP3   OH271986   2.597   4.145  11.920 -0.2760  0.0220  0.1869
16832TIP3    H171987   2.692   4.132  11.926  0.1099  1.2547 -2.0723
16832TIP3    H271988   2.586   4.207  11.848 -2.6577  1.9385  2.0125
16833TIP3   OH271989   5.455   6.785   0.124 -0.6501  0.1484 -0.1852
16833TIP3    H171990   5.443   6.718   0.056 -0.5158  0.1674 -0.2285
16833TIP3    H271991   5.381   6.772   0.183 -1.1555  0.5797 -0.7126
16834TIP3   OH271992   3.701   3.197  16.837 -0.3599  0.2317 -0.5028
16834TIP3    H171993   3.610   3.225  16.851 -1.2083 -2.8884  1.2194
16834TIP3    H271994   3.752   3.251  16.897 -1.5132  0.0808  0.6749
16835TIP3   OH271995   0.651   4.372   1.536 -0.0387 -0.1515  0.0242
16835TIP3    H171996   0.682   4.382   1.446  0.7530  0.0485  0.3069
16835TIP3    H271997   0.557   4.360   1.528 -0.1759  1.1993 -0.7596
16836TIP3   OH271998   2.233   5.246  13.015 -0.1414  0.0341 -0.4125
16836TIP3    H171999   2.213   5.314  13.079 -1.2597 -1.4756  0.9320
16836TIP3    H272000   2.328   5.236  13.019 -0.2428 -0.5939  1.6894
16837TIP3   OH272001   2.299   5.660  12.385  1.2369  0.0025  0.0727
16837TIP3    H172002   2.318   5.647  12.477  1.6986  1.4358  0.1964
16837TIP3    H272003   2.385   5.660  12.342  1.0476 -0.3293 -0.3179
16838TIP3   OH272004   0.588   0.082  11.294  0.0291  0.1615 -0.4566
16838TIP3    H172005   0.605   0.176  11.309  2.7878 -0.3559  0.2869
16838TIP3    H272006   0.592   0.044  11.382 -1.0334 -0.6777 -0.7635
16839TIP3   OH272007   1.622   5.521  11.308 -0.1587 -0.0646  0.5658
16839TIP3    H172008   1.685   5.561  11.248  0.5984  0.8296  1.9093
16839TIP3    H272009   1.545   5.578  11.304 -0.3558 -0.3597 -0.0036
16840TIP3   OH272010   0.538   1.470  15.878 -0.2347 -0.2595  0.5720
16840TIP3    H172011   0.446   1.496  15.877 -0.5600 -1.3775  0.2608
16840TIP3    H272012   0.553   1.434  15.791  0.8617  1.0542  0.1782
16841TIP3   OH272013   2.909   5.309  15.363  0.1083  0.3752 -0.3096
16841TIP3    H172014   2.838   5.246  15.367  1.0395 -0.6351  1.5090
16841TIP3    H272015   2.987   5.260  15.391  1.3683  1.6621 -1.3770
16842TIP3   OH272016   2.715   6.678  16.689  0.3104  0.0983 -0.8682
16842TIP3    H172017   2.808   6.680  16.667  0.0245  0.4980 -2.0656
16842TIP3    H272018   2.701   6.757  16.741  0.2272  1.1578 -2.4463
16843TIP3   OH272019   1.049   3.742  12.203 -0.1737  0.2552 -0.2630
16843TIP3    H172020   1.049   3.647  12.191 -1.3031  0.1888  0.1673
16843TIP3    H272021   1.061   3.778  12.115 -0.2989 -0.2767 -0.4990
16844TIP3   OH272022   3.933   1.696   4.797 -0.0095  0.3252  0.2859
16844TIP3    H172023   3.862   1.633   4.810 -0.6053  1.3587  2.6592
16844TIP3    H272024   3.943   1.703   4.703 -1.9271 -1.1054 -0.0709
16845TIP3   OH272025   5.029   6.116  14.807  1.0071 -0.4943  0.2863
16845TIP3    H172026   4.971   6.188  14.829  1.7841  0.6056 -1.0431
16845TIP3    H272027   5.088   6.108  14.882 -0.4437 -1.2592  1.4028
16846TIP3   OH272028   6.596   2.624   4.060 -0.0212  0.1750 -0.2547
16846TIP3    H172029   6.507   2.658   4.071 -0.1710  0.3619 -1.8335
16846TIP3    H272030   6.611   2.572   4.138 -0.6287  2.0184  1.1600
16847TIP3   OH272031   5.618   3.049  16.617 -0.4107 -0.1333 -0.1798
16847TIP3    H172032   5.711   3.027  16.621 -0.8147 -1.7275  2.2594
16847TIP3    H272033   5.574   2.966  16.600 -1.4106  0.7372 -2.2099
16848TIP3   OH272034   0.126   3.162  11.930 -0.5507  0.1960  0.1651
16848TIP3    H172035   0.142   3.238  11.986  0.8884 -0.7233  1.0796
16848TIP3    H272036   0.056   3.114  11.974  0.2898 -0.3051  1.0219
16849TIP3   OH272037   4.844   1.965   3.413 -0.1415  0.0168 -0.3242
16849TIP3    H172038   4.914   1.954   3.479 -1.8360 -1.1582  1.3863
16849TIP3    H272039   4.816   2.056   3.424  0.5513  0.2576 -0.4539
16850TIP3   OH272040   3.552   6.208   2.043 -0.4665  0.1780  0.1055
16850TIP3    H172041   3.488   6.145   2.009 -0.6972  0.6884 -0.4338
16850TIP3    H272042   3.631   6.191   1.993  0.2730 -1.3707  1.7111
16851TIP3   OH272043   6.583   3.227   3.766 -0.3026  0.2643 -0.2131
16851TIP3    H172044   6.515   3.193   3.823 -0.5789  1.2214  0.0379
16851TIP3    H272045   6.643   3.274   3.824  0.0063  0.3161 -0.5652
16852TIP3   OH272046   0.447   3.650  14.894 -0.2966 -0.1771 -0.2673
16852TIP3    H172047   0.404   3.598  14.963 -0.1086 -1.0706 -0.8131
16852TIP3    H272048   0.435   3.741  14.923 -1.9516 -0.4216 -0.0409
16853TIP3   OH272049   1.500   1.812  13.532  0.1306  0.5415 -0.3434
16853TIP3    H172050   1.408   1.830  13.547  0.3162  0.2869  1.2868
16853TIP3    H272051   1.531   1.884  13.477 -1.1862  0.2293 -1.5363
16854TIP3   OH272052   4.907   2.349   2.987  0.3394 -0.0737 -0.3233
16854TIP3    H172053   4.881   2.269   2.940  0.6211  0.0911 -0.7576
16854TIP3    H272054   4.901   2.324   3.080 -1.4265 -0.0291 -0.3897
16855TIP3   OH272055   1.648   5.789  12.408  0.1361  0.4452 -0.0546
16855TIP3    H172056   1.707   5.786  12.484  0.9686 -0.9581 -0.7339
16855TIP3    H272057   1.561   5.795  12.446  0.5701  0.2013  1.0131
16856TIP3   OH272058   1.200   4.485   2.601  0.1383  0.1918 -0.2617
16856TIP3    H172059   1.212   4.426   2.527  2.6261 -1.9589  1.6565
16856TIP3    H272060   1.249   4.564   2.577 -0.1319  0.0426 -1.3614
16857TIP3   OH272061   3.192   6.288   5.773  0.2439 -0.0116  0.3317
16857TIP3    H172062   3.108   6.273   5.818  1.6256 -2.3943  2.4552
16857TIP3    H272063   3.241   6.344   5.833  0.2502  1.2643 -0.8384
16858TIP3   OH272064   6.448   4.367  14.466  0.5413 -0.6133 -0.8792
16858TIP3    H172065   6.404   4.353  14.550 -0.0735 -0.6047 -1.1903
16858TIP3    H272066   6.458   4.463  14.460 -1.8603 -0.3557 -1.9909
16859TIP3   OH272067   2.016   4.155  16.893  0.2415  0.2548 -0.2925
16859TIP3    H172068   1.965   4.103  16.956 -2.0860  1.8659 -0.7435
16859TIP3    H272069   2.105   4.155  16.929 -0.3993 -1.2400  1.4649
16860TIP3   OH272070   1.658   6.672  15.110 -0.2935 -0.2855 -0.0121
16860TIP3    H172071   1.607   6.627  15.043 -1.9270 -1.7259  2.0396
16860TIP3    H272072   1.608   6.751  15.129 -0.3685 -0.3732  0.1630
16861TIP3   OH272073   2.680   6.522   1.171 -0.2885  0.3097  0.6053
16861TIP3    H172074   2.585   6.526   1.167 -0.4050 -2.2730 -1.3834
16861TIP3    H272075   2.710   6.600   1.123 -1.4634 -0.0975 -0.8501
16862TIP3   OH272076   0.493   0.808  10.866  1.0597 -0.0766 -0.3283
16862TIP3    H172077   0.578   0.770  10.890  0.9159 -0.3495 -0.2404
16862TIP3    H272078   0.436   0.732  10.857  0.5871  0.1652  0.5368
16863TIP3   OH272079   5.611   5.247   3.745  0.6875  0.1597  0.0727
16863TIP3    H172080   5.670   5.172   3.745  1.5430  0.8026 -0.6035
16863TIP3    H272081   5.647   5.305   3.677 -0.4657  0.7735 -0.0297
16864TIP3   OH272082   1.374   4.895  13.746 -0.5455 -0.5396  0.0200
16864TIP3    H172083   1.445   4.918  13.686  0.1028 -0.9930  0.5955
16864TIP3    H272084   1.356   4.977  13.793 -1.1233 -0.1586 -0.8398
16865TIP3   OH272085   5.391   3.327   0.021 -0.5252 -0.1109  0.3764
16865TIP3    H172086   5.449   3.275   0.077 -0.1372 -0.0275  0.0659
16865TIP3    H272087   5.432   3.321  -0.066 -0.7383  0.3243  0.2442
16866TIP3   OH272088   1.249   3.297   0.378  0.2387 -0.6367  0.1090
16866TIP3    H172089   1.303   3.288   0.457  0.6021  0.3080 -0.0212
16866TIP3    H272090   1.181   3.360   0.403 -0.7536 -1.7205  0.2312
16867TIP3   OH272091   5.179   1.032   5.125 -0.6393  1.0512 -0.2181
16867TIP3    H172092   5.212   1.000   5.209 -1.8477  0.3148 -0.0023
16867TIP3    H272093   5.256   1.033   5.068 -0.3497 -1.4761  0.0041
16868TIP3   OH272094   3.720   4.614   4.411  0.2953  0.3540  0.3217
16868TIP3    H172095   3.645   4.614   4.352  0.9530  0.4984 -0.5467
16868TIP3    H272096   3.772   4.689   4.383  1.9454 -1.0832 -0.6913
16869TIP3   OH272097   6.466   0.747   1.559  0.2084  0.3720 -0.1276
16869TIP3    H172098   6.527   0.799   1.612  1.9538 -1.5031 -0.1545
16869TIP3    H272099   6.522   0.703   1.495 -1.4815  0.1752 -1.5273
16870TIP3   OH272100   5.140   2.727  14.972  0.2167  0.4804  0.5670
16870TIP3    H172101   5.130   2.814  15.009  1.5691  1.0730 -0.3772
16870TIP3    H272102   5.061   2.715  14.919  1.4183  2.5276 -1.9132
16871TIP3   OH272103   4.184   3.014  12.396  0.4545  0.5990 -0.1038
16871TIP3    H172104   4.191   3.015  12.300  1.2894 -1.4656 -0.1057
16871TIP3    H272105   4.246   2.948  12.424 -1.2288 -0.3045  1.7327
16872TIP3   OH272106   2.883   4.211   1.505  0.4370 -0.1294 -0.1192
16872TIP3    H172107   2.958   4.236   1.559  1.1126 -0.7661 -0.7471
16872TIP3    H272108   2.829   4.157   1.562  0.7178 -0.1015  0.1725
16873TIP3   OH272109   6.449   1.113   1.777  0.0815 -0.0328  0.8336
16873TIP3    H172110   6.504   1.182   1.814  0.5229 -0.7580  1.5568
16873TIP3    H272111   6.466   1.118   1.683  0.8055  0.2492  0.9694
16874TIP3   OH272112   3.119   1.718  14.858 -0.3537  0.0560 -0.6684
16874TIP3    H172113   3.078   1.779  14.798  0.0528  1.5116  0.4773
16874TIP3    H272114   3.113   1.761  14.944  0.5322 -1.2137  0.0627
16875TIP3   OH272115   6.427   2.282   4.569 -0.0633  0.2493  0.0036
16875TIP3    H172116   6.353   2.333   4.603  0.9585 -0.2648  3.3907
16875TIP3    H272117   6.439   2.211   4.632  2.0356 -0.9269 -1.5667
16876TIP3   OH272118   3.515   2.480  16.163  0.2894  0.7496  0.3987
16876TIP3    H172119   3.610   2.487  16.152  0.2499  0.6574 -0.0045
16876TIP3    H272120   3.500   2.388  16.183  0.2731  0.7490  0.3814
16877TIP3   OH272121   4.525   3.594   3.135 -0.2150 -0.1459 -0.6405
16877TIP3    H172122   4.525   3.661   3.067 -4.1050  0.8072  0.0417
16877TIP3    H272123   4.462   3.626   3.200  0.8202 -2.5907  1.7825
16878TIP3   OH272124   3.690   2.157  14.389  0.2808 -0.2710  0.7124
16878TIP3    H172125   3.598   2.132  14.390 -0.1704  1.2959  0.8429
16878TIP3    H272126   3.734   2.086  14.341 -1.0275 -0.8602  0.3476
16879TIP3   OH272127   1.342   5.486  16.699  0.0670 -0.3724  0.2077
16879TIP3    H172128   1.405   5.425  16.738 -0.0298 -0.3191  0.4516
16879TIP3    H272129   1.262   5.475  16.751 -0.0751 -0.3241  0.0043
16880TIP3   OH272130   3.496   2.773   4.309  0.1331 -0.3360  0.2841
16880TIP3    H172131   3.463   2.764   4.220 -0.1105  0.0380  0.3330
16880TIP3    H272132   3.455   2.854   4.342  0.1288 -0.5323  0.7730
16881TIP3   OH272133   3.852   2.702   0.781 -0.2164 -0.0277  0.1024
16881TIP3    H172134   3.815   2.702   0.692 -1.6828  1.0697  0.6591
16881TIP3    H272135   3.857   2.610   0.805 -2.0672 -0.2719 -0.2749
16882TIP3   OH272136   1.161   5.183   0.357 -0.1508  0.8232  0.1234
16882TIP3    H172137   1.214   5.210   0.282 -1.7265  1.2573 -0.8819
16882TIP3    H272138   1.221   5.186   0.431  2.0626 -1.6856 -1.3845
16883TIP3   OH272139   6.661   4.293   0.345 -0.1757  0.0352  0.4916
16883TIP3    H172140   6.704   4.241   0.413 -1.1536  1.0754  1.9479
16883TIP3    H272141   6.568   4.286   0.364 -0.5596 -0.4360 -1.3526
16884TIP3   OH272142   6.415   5.974  16.216  0.3679  0.6508 -0.0886
16884TIP3    H172143   6.371   5.979  16.131 -0.0944 -0.0472  0.0956
16884TIP3    H272144   6.507   5.989  16.197 -0.0478  3.2960 -0.3417
16885TIP3   OH272145   1.861   6.387   0.753  0.7597 -0.1344  0.2630
16885TIP3    H172146   1.806   6.323   0.798  0.1249  0.5452  0.4767
16885TIP3    H272147   1.834   6.472   0.789  1.7349  0.2463  0.1519
16886TIP3   OH272148   2.258   1.641   2.843  0.0997 -0.6718 -0.3021
16886TIP3    H172149   2.213   1.608   2.921 -2.2456 -0.4343 -1.4691
16886TIP3    H272150   2.271   1.734   2.860  0.7395 -0.8529  0.2745
16887TIP3   OH272151   4.033   3.832   1.190 -0.4177 -0.2791  0.0398
16887TIP3    H172152   4.128   3.834   1.176 -0.2546 -1.2699  0.9188
16887TIP3    H272153   3.997   3.867   1.108  0.6802 -0.5777 -0.5988
16888TIP3   OH272154   0.366   6.485  11.815  0.1065  0.3461  0.2969
16888TIP3    H172155   0.446   6.439  11.790 -0.8621 -0.8490 -0.7872
16888TIP3    H272156   0.347   6.542  11.740 -0.5035 -0.0424  0.1398
16889TIP3   OH272157   0.862   5.070  10.329 -0.2956  0.1265  0.7229
16889TIP3    H172158   0.810   4.999  10.367 -0.2640 -0.6385 -0.6235
16889TIP3    H272159   0.946   5.029  10.307  0.3795  1.0153  1.5576
16890TIP3   OH272160   4.388   0.878  12.676  0.1067 -0.0556 -0.1338
16890TIP3    H172161   4.428   0.898  12.761  1.2460 -0.9477 -0.4450
16890TIP3    H272162   4.448   0.914  12.611 -0.2050 -0.3446 -0.5886
16891TIP3   OH272163   3.740   3.307   0.822  0.1446 -0.4058 -0.2310
16891TIP3    H172164   3.663   3.251   0.824 -0.3340  0.2511  0.8639
16891TIP3    H272165   3.723   3.370   0.753  0.1647 -0.8918 -0.6816
16892TIP3   OH272166   6.074   2.942   6.613 -0.1035 -0.5702  0.3366
16892TIP3    H172167   6.156   2.929   6.564  0.2564 -0.6479  0.9462
16892TIP3    H272168   6.057   2.858   6.654 -1.0248 -0.8454 -0.5600
16893TIP3   OH272169   6.091   1.937   6.365 -0.0929 -0.4437  0.5613
16893TIP3    H172170   6.046   1.979   6.439 -0.6329 -1.3110  0.7292
16893TIP3    H272171   6.035   1.955   6.289  0.2365  0.0690  0.4357
16894TIP3   OH272172   2.834   2.043  12.135  0.5475  0.1932  0.2635
16894TIP3    H172173   2.897   1.978  12.168 -1.1487 -0.1366  3.2408
16894TIP3    H272174   2.757   1.991  12.110  0.5977  0.7814 -1.2613
16895TIP3   OH272175   5.592   4.507  13.731 -0.5251  0.3292 -0.7450
16895TIP3    H172176   5.654   4.575  13.705 -0.3856  2.2476  3.6652
16895TIP3    H272177   5.509   4.534  13.690  0.4886  0.3509 -2.9109
16896TIP3   OH272178   3.929   3.657   2.218  0.0170  0.4138 -0.1105
16896TIP3    H172179   3.885   3.584   2.262 -0.2145  1.1044  0.8459
16896TIP3    H272180   3.905   3.648   2.126 -0.5615 -0.3176  0.1009
16897TIP3   OH272181   2.891   1.129   2.214 -0.0915  0.4888  0.0336
16897TIP3    H172182   2.984   1.109   2.223  0.0114  0.6155 -0.7594
16897TIP3    H272183   2.849   1.043   2.205  0.0805  0.4948 -0.8384
16898TIP3   OH272184   6.003   2.178   4.200 -0.4898 -0.0169 -0.0324
16898TIP3    H172185   6.011   2.153   4.108 -0.1876  1.6117 -0.4863
16898TIP3    H272186   5.915   2.214   4.207 -0.0031  1.2422 -0.0756
16899TIP3   OH272187   0.448   1.495  13.219 -0.6894  0.2736 -0.6454
16899TIP3    H172188   0.478   1.573  13.173  0.3167  0.5851  0.4766
16899TIP3    H272189   0.367   1.522  13.262 -1.4646  0.0704 -1.9307
16900TIP3   OH272190   1.859   5.260   1.807  0.0193 -0.0260  0.0982
16900TIP3    H172191   1.873   5.209   1.887 -1.4407  0.8107  0.9436
16900TIP3    H272192   1.808   5.203   1.750  0.4629 -0.3676  0.0342
16901TIP3   OH272193   0.871   3.476   3.850  0.8634 -0.3640 -0.7400
16901TIP3    H172194   0.826   3.418   3.913 -0.0487 -0.6821 -1.6431
16901TIP3    H272195   0.847   3.440   3.764  1.1340  0.7551 -1.2963
16902TIP3   OH272196   0.277   4.519   3.798 -0.3135  0.0384  0.4917
16902TIP3    H172197   0.270   4.479   3.711 -0.2566  0.7763  0.1404
16902TIP3    H272198   0.368   4.505   3.824  0.2255  1.5737 -0.4518
16903TIP3   OH272199   3.139   5.648   1.500  0.2727 -0.0614 -0.3869
16903TIP3    H172200   3.091   5.566   1.512  0.1914 -0.1513 -1.2610
16903TIP3    H272201   3.099   5.688   1.422 -0.4697  1.3757  0.6811
16904TIP3   OH272202   2.687   3.416  14.028 -0.5399  0.1258 -0.1068
16904TIP3    H172203   2.735   3.345  14.070  0.6674  0.9823  0.0005
16904TIP3    H272204   2.600   3.413  14.068  0.3191  0.4130  1.9324
16905TIP3   OH272205   1.070   4.555  14.211  0.0142 -0.0556  0.2334
16905TIP3    H172206   1.117   4.616  14.155  1.6310 -1.4307 -0.0097
16905TIP3    H272207   1.045   4.606  14.288  0.9417  0.9914 -0.1459
16906TIP3   OH272208   0.850   0.549  12.300 -0.5929 -0.1041  0.2255
16906TIP3    H172209   0.805   0.583  12.223  0.8541 -0.3070 -0.7406
16906TIP3    H272210   0.813   0.462  12.313  1.1409 -1.2843 -2.0545
16907TIP3   OH272211   5.126   3.784  15.161  0.3777  0.7509 -0.1795
16907TIP3    H172212   5.107   3.698  15.123  0.2971  0.2329  0.9608
16907TIP3    H272213   5.221   3.788  15.166  0.3920  0.8750 -0.5514
16908TIP3   OH272214   1.898   6.454   2.827  0.8008 -0.1838  0.2502
16908TIP3    H172215   1.937   6.367   2.823  2.0049  0.3139  0.8365
16908TIP3    H272216   1.887   6.481   2.736 -0.1175 -1.1654  0.0520
16909TIP3   OH272217   3.330   2.976   4.395 -0.7319  0.5176 -0.1408
16909TIP3    H172218   3.303   2.987   4.486  1.2219 -1.1421  0.6985
16909TIP3    H272219   3.248   2.955   4.349 -1.4501 -0.8689  1.6421
16910TIP3   OH272220   0.744   4.221  15.484 -0.0503  0.1396 -0.3641
16910TIP3    H172221   0.741   4.316  15.475 -0.0660  0.0526 -1.4332
16910TIP3    H272222   0.704   4.203  15.569 -0.1560  1.0759 -0.2072
16911TIP3   OH272223   2.682   3.765   4.310  0.5300 -0.1682  0.4220
16911TIP3    H172224   2.697   3.859   4.304 -0.6948 -0.0053 -0.7594
16911TIP3    H272225   2.764   3.729   4.342  0.4760  1.4558  2.6276
16912TIP3   OH272226   1.675   1.592   4.415 -0.3774  0.0748 -0.6565
16912TIP3    H172227   1.707   1.508   4.382 -1.5163 -0.5259 -0.2950
16912TIP3    H272228   1.747   1.626   4.467 -0.1975 -1.0949 -0.1072
16913TIP3   OH272229   2.491   4.645  14.878 -0.4448 -0.4242 -0.0319
16913TIP3    H172230   2.525   4.595  14.803  1.0691 -1.8289  1.4787
16913TIP3    H272231   2.430   4.708  14.840  1.1057 -0.3097 -2.5608
16914TIP3   OH272232   6.262   1.384   5.711 -0.0417 -0.1473 -0.4137
16914TIP3    H172233   6.206   1.392   5.634 -1.0076 -2.1624  0.0210
16914TIP3    H272234   6.236   1.301   5.751  3.2437 -1.1756 -0.1575
16915TIP3   OH272235   2.245   6.221  16.168 -1.1017  0.8111 -0.5881
16915TIP3    H172236   2.182   6.180  16.109 -3.4835  1.1078  1.6021
16915TIP3    H272237   2.197   6.293  16.210  0.6379  1.0008  1.2532
16916TIP3   OH272238   0.164   5.575  13.199  0.1381  0.1249 -0.7403
16916TIP3    H172239   0.176   5.632  13.123  0.3355  1.7210  0.4290
16916TIP3    H272240   0.086   5.609  13.243 -0.9726 -1.8415 -1.1103
16917TIP3   OH272241   6.651   5.290   5.380  0.4523 -0.9549 -0.3925
16917TIP3    H172242   6.610   5.229   5.318  1.3333  0.4863 -2.5128
16917TIP3    H272243   6.641   5.248   5.465  1.2881 -4.1769 -1.7578
16918TIP3   OH272244   4.137   3.644   3.546  0.1653 -0.2595 -0.2953
16918TIP3    H172245   4.109   3.553   3.556 -0.5340  0.1458  1.9816
16918TIP3    H272246   4.231   3.642   3.564  0.4479 -0.7177 -1.7297
16919TIP3   OH272247   0.211   1.341  14.241  0.0292  0.3681  0.3211
16919TIP3    H172248   0.153   1.335  14.317 -1.0730  0.3502 -0.4948
16919TIP3    H272249   0.163   1.298  14.171  0.6566  1.1363 -0.6025
16920TIP3   OH272250   1.338   4.725  17.143 -0.7386 -0.4129 -0.2035
16920TIP3    H172251   1.380   4.643  17.169 -0.9652 -0.1502  1.0419
16920TIP3    H272252   1.262   4.698  17.091  1.0848 -0.8924 -2.8251
16921TIP3   OH272253   1.493   6.252  12.277 -0.4599  0.3524  0.6029
16921TIP3    H172254   1.453   6.309  12.211  0.1291  1.2379  1.0056
16921TIP3    H272255   1.421   6.195  12.306 -0.7866  0.1085 -0.6136
16922TIP3   OH272256   2.651   6.301   5.011  0.1414 -0.2180 -0.0655
16922TIP3    H172257   2.584   6.324   4.948 -1.1914 -2.8239  0.2484
16922TIP3    H272258   2.734   6.323   4.968 -0.7554 -1.1170 -2.3803
16923TIP3   OH272259   4.817   4.474  15.874 -0.2418  0.2865 -0.2574
16923TIP3    H172260   4.786   4.402  15.820  1.6620 -1.0170  0.2988
16923TIP3    H272261   4.742   4.498  15.927 -0.6780 -1.9674  0.2372
16924TIP3   OH272262   2.656   5.702   3.523 -0.1180  0.1839  0.6677
16924TIP3    H172263   2.675   5.748   3.605  2.4614  2.5322 -1.0856
16924TIP3    H272264   2.710   5.745   3.457 -0.6661 -2.7774 -1.9986
16925TIP3   OH272265   5.749   2.559  13.305  0.2601 -0.5105  0.1468
16925TIP3    H172266   5.774   2.535  13.216 -0.3973  1.3464 -0.5854
16925TIP3    H272267   5.656   2.535  13.311  0.1598 -0.1268  0.1361
16926TIP3   OH272268   4.086   1.327   1.266 -0.5205 -0.3899 -0.5318
16926TIP3    H172269   4.072   1.233   1.253 -0.3428 -0.5052  0.0679
16926TIP3    H272270   4.171   1.344   1.226  0.1874 -0.8124  0.7064
16927TIP3   OH272271   6.737   1.967   4.251 -0.0171 -0.9245 -0.1097
16927TIP3    H172272   6.732   1.882   4.205 -1.6088 -0.5564 -0.7047
16927TIP3    H272273   6.662   2.016   4.217  0.0703  0.2129  1.2658
16928TIP3   OH272274   5.570   5.370   3.462 -0.0817 -0.5189  0.1617
16928TIP3    H172275   5.487   5.331   3.435 -0.5289  1.0997 -0.9584
16928TIP3    H272276   5.633   5.338   3.397  0.1636 -1.5675  0.8825
16929TIP3   OH272277   0.752   4.041  12.078  0.1204  0.3051  0.1572
16929TIP3    H172278   0.687   4.090  12.127 -1.0531 -0.0811 -0.9680
16929TIP3    H272279   0.703   3.995  12.010  1.6560  0.7300 -1.3305
16930TIP3   OH272280   5.508   0.509  15.244 -0.4723 -0.4019 -0.2849
16930TIP3    H172281   5.532   0.578  15.305  0.3135 -0.3634 -0.6362
16930TIP3    H272282   5.585   0.453  15.239 -0.9549 -1.0758 -0.3254
16931TIP3   OH272283   3.979   2.584   5.642  0.3341 -0.4350  0.3506
16931TIP3    H172284   4.020   2.497   5.635 -0.7179 -0.9625  0.6120
16931TIP3    H272285   4.053   2.644   5.654  1.0204 -1.3960  1.0987
16932TIP3   OH272286   0.495   6.532   5.170  1.0730  0.2686  0.3133
16932TIP3    H172287   0.409   6.532   5.129  2.0244  0.2002 -1.8599
16932TIP3    H272288   0.553   6.569   5.103  3.2603 -2.5963  0.4321
16933TIP3   OH272289   0.095   1.956   5.771 -0.1594  0.0843 -0.1778
16933TIP3    H172290   0.109   1.922   5.859  0.3543 -0.8667 -0.6140
16933TIP3    H272291   0.105   2.051   5.779  0.0243 -0.0111  0.7493
16934TIP3   OH272292   5.024   4.230  16.412 -0.2212 -0.4475  0.1223
16934TIP3    H172293   5.104   4.258  16.456  0.3368 -1.9425  0.1181
16934TIP3    H272294   4.953   4.265  16.465  0.4101  1.3750 -0.1788
16935TIP3   OH272295   4.322   4.955   3.859 -0.2318  0.4349  0.1667
16935TIP3    H172296   4.314   4.860   3.845  0.1451  0.3049  0.7856
16935TIP3    H272297   4.409   4.966   3.897 -0.4598  0.9843  0.5389
16936TIP3   OH272298   4.126   0.364   6.343 -0.5402  0.5683 -0.1447
16936TIP3    H172299   4.214   0.337   6.316 -0.4607 -0.1831  0.8109
16936TIP3    H272300   4.067   0.303   6.298 -0.6969  1.9171 -1.8745
16937TIP3   OH272301   3.455   3.228  17.175 -0.2022  0.3137  0.1097
16937TIP3    H172302   3.544   3.233  17.211  0.1867  1.1199 -0.8978
16937TIP3    H272303   3.450   3.302  17.115 -1.7288  0.5496  0.4884
16938TIP3   OH272304   2.521   6.735   0.685  0.6244 -0.1545 -0.2835
16938TIP3    H172305   2.487   6.649   0.660 -1.1712  0.6298 -0.6659
16938TIP3    H272306   2.460   6.768   0.751  0.4836  1.3915 -1.1259
16939TIP3   OH272307   3.483   5.084   5.128  0.2783 -0.0017  0.1710
16939TIP3    H172308   3.542   5.049   5.061  2.3374  1.5980  1.0573
16939TIP3    H272309   3.497   5.028   5.204  1.0611  0.6781  0.5380
16940TIP3   OH272310   3.868   4.537   6.195  0.2248  0.2414 -0.2264
16940TIP3    H172311   3.877   4.620   6.242  0.1317  1.2276 -1.8793
16940TIP3    H272312   3.785   4.545   6.148  0.3317 -0.6965 -0.5989
16941TIP3   OH272313   4.288   5.015  16.288  0.0747  0.3981 -0.6462
16941TIP3    H172314   4.224   5.015  16.360 -1.9734  0.3418 -2.3698
16941TIP3    H272315   4.262   5.090  16.234  0.7498 -0.3289 -2.0093
16942TIP3   OH272316   6.171   1.627   0.938  1.1725 -0.3251 -0.2177
16942TIP3    H172317   6.200   1.671   0.858 -0.3007 -1.4166 -1.4073
16942TIP3    H272318   6.143   1.540   0.909  2.4648 -1.5111  1.7990
16943TIP3   OH272319   5.298   2.755  16.566 -0.2912 -0.2883  0.7304
16943TIP3    H172320   5.297   2.809  16.646  0.9895  0.3531  0.3377
16943TIP3    H272321   5.236   2.685  16.584 -2.4675  1.6061  1.0547
16944TIP3   OH272322   4.491   5.391  17.061  0.3690 -0.3648 -0.7924
16944TIP3    H172323   4.578   5.389  17.021  0.2833 -0.2480 -0.9834
16944TIP3    H272324   4.462   5.300  17.057  0.2155 -0.2968 -1.3180
16945TIP3   OH272325   4.516   3.821  16.725  0.2618 -0.3106 -0.5450
16945TIP3    H172326   4.487   3.787  16.640 -0.6004 -1.6420  0.2313
16945TIP3    H272327   4.499   3.915  16.721 -0.7015 -0.5034 -1.4994
16946TIP3   OH272328   0.614   2.926   6.057  0.0097  0.2281  0.2099
16946TIP3    H172329   0.540   2.960   6.108  0.7947  0.3882  1.2651
16946TIP3    H272330   0.662   2.871   6.118  0.6475 -0.0471 -0.5319
16947TIP3   OH272331   4.569   1.268  13.089  0.2572 -0.3163 -0.4527
16947TIP3    H172332   4.611   1.341  13.135 -0.4975 -0.2656  0.1807
16947TIP3    H272333   4.537   1.306  13.007 -0.1970  0.0906 -0.0950
16948TIP3   OH272334   6.046   1.019  13.050  0.3388  0.2503  0.7999
16948TIP3    H172335   6.140   1.011  13.036  0.0326 -0.1565 -1.4988
16948TIP3    H272336   6.025   0.949  13.111  1.3034 -0.7297  0.0463
16949TIP3   OH272337   1.468   4.619  11.300  0.3431  0.3521  0.0051
16949TIP3    H172338   1.425   4.587  11.221  0.2946  1.8442 -0.5872
16949TIP3    H272339   1.396   4.646  11.357  0.3920 -0.3689  0.4200
16950TIP3   OH272340   2.054   5.612  16.322 -0.6412 -0.0928 -0.8681
16950TIP3    H172341   2.134   5.651  16.286 -0.4769 -0.3680 -0.7998
16950TIP3    H272342   2.006   5.581  16.246  0.4695 -2.1818 -0.7980
16951TIP3   OH272343   1.355   6.475  15.825  0.0825  0.6715 -0.0207
16951TIP3    H172344   1.318   6.550  15.779  0.2266  0.6296 -0.2063
16951TIP3    H272345   1.280   6.433  15.868 -0.0504  0.7213 -0.2014
16952TIP3   OH272346   3.174   1.080   2.270  0.1073  0.5762  0.1121
16952TIP3    H172347   3.198   1.074   2.362 -0.4634 -0.8316  0.1954
16952TIP3    H272348   3.239   1.139   2.232  3.4940 -2.5518  0.4166
16953TIP3   OH272349   1.451   0.410   4.039 -0.0598  1.0347 -0.1348
16953TIP3    H172350   1.476   0.405   3.947  1.4749 -0.9593  0.3307
16953TIP3    H272351   1.533   0.403   4.087 -0.8109  2.2952  1.4229
16954TIP3   OH272352   6.372   4.165   0.461  0.6957 -0.0426 -0.1440
16954TIP3    H172353   6.451   4.162   0.514  0.2239  0.6852  0.6207
16954TIP3    H272354   6.332   4.079   0.472  1.1399 -0.2588 -0.1796
16955TIP3   OH272355   2.009   1.687   4.252 -0.1366  0.4369  0.6492
16955TIP3    H172356   1.977   1.637   4.327  0.7190  1.7757  1.9731
16955TIP3    H272357   2.104   1.688   4.263 -0.0381  1.0645 -0.1958
16956TIP3   OH272358   1.055   4.787  11.142  0.1520 -0.8635 -0.1066
16956TIP3    H172359   1.136   4.837  11.145 -0.1997 -0.3197  1.0114
16956TIP3    H272360   1.083   4.696  11.134  0.8826 -0.7042  0.5818
16957TIP3   OH272361   5.018   6.751  15.393 -0.6687 -0.3077 -0.5255
16957TIP3    H172362   5.111   6.730  15.404 -0.9289 -0.8404  0.7857
16957TIP3    H272363   4.982   6.677  15.344 -0.6263 -0.6478 -0.0469
16958TIP3   OH272364   3.721   1.658  15.928 -0.6092  0.2067  0.0307
16958TIP3    H172365   3.801   1.710  15.938 -0.7026  0.1960  0.9580
16958TIP3    H272366   3.710   1.647  15.834  0.2531  0.5687 -0.1164
16959TIP3   OH272367   6.361   1.115  14.640 -0.2265 -0.0956 -0.3061
16959TIP3    H172368   6.326   1.103  14.729  0.7025 -0.4152  0.0278
16959TIP3    H272369   6.407   1.199  14.643 -1.2313  0.4913 -0.8402
16960TIP3   OH272370   5.101   4.848   1.557  0.3156 -0.0550  0.3342
16960TIP3    H172371   5.193   4.854   1.530 -0.1338 -0.6684 -1.5446
16960TIP3    H272372   5.084   4.929   1.604  1.1996  1.2742 -1.4859
16961TIP3   OH272373   4.288   3.574   1.150  0.5982  0.6697 -0.8911
16961TIP3    H172374   4.213   3.570   1.209  0.3474  2.7212 -0.9832
16961TIP3    H272375   4.355   3.521   1.192 -0.1896  0.5890  0.3074
16962TIP3   OH272376   5.568   0.087  13.265  0.0510  0.3201 -0.8642
16962TIP3    H172377   5.488   0.034  13.263  0.2463 -0.0810  0.5407
16962TIP3    H272378   5.603   0.081  13.176 -0.2989 -1.3815 -0.9322
16963TIP3   OH272379   5.629   0.597   4.284  0.4283 -0.0929 -0.2260
16963TIP3    H172380   5.558   0.660   4.272 -0.1064 -0.5367  0.5983
16963TIP3    H272381   5.690   0.642   4.342  0.2814 -0.1516 -0.0274
16964TIP3   OH272382   4.871   6.679  11.882 -0.0782 -0.2739  0.5766
16964TIP3    H172383   4.888   6.707  11.792 -3.2511 -1.1762 -0.4670
16964TIP3    H272384   4.940   6.615  11.900  1.3760  0.8472 -0.6982
16965TIP3   OH272385   2.085   6.241   2.837  0.3310  0.6372 -0.3328
16965TIP3    H172386   2.010   6.192   2.803  0.3613 -0.8145  1.5421
16965TIP3    H272387   2.151   6.175   2.856  1.1942  1.6378  0.2393
16966TIP3   OH272388   6.220   4.348   5.712  0.1125  0.5243  0.0537
16966TIP3    H172389   6.291   4.412   5.703  1.4336 -0.8051  0.6113
16966TIP3    H272390   6.165   4.383   5.782 -0.8843  2.5024 -1.6019
16967TIP3   OH272391   5.358   4.692   5.052 -0.3702 -0.0669 -0.4480
16967TIP3    H172392   5.451   4.690   5.077 -0.5922  1.8902  0.7732
16967TIP3    H272393   5.358   4.726   4.963  0.0908 -0.2527 -0.5237
16968TIP3   OH272394   4.402   4.058   1.427 -0.5887  0.4438 -0.2642
16968TIP3    H172395   4.423   4.018   1.342  2.2453  1.1662 -0.0207
16968TIP3    H272396   4.387   3.984   1.485 -3.7796 -0.0644 -1.5415
16969TIP3   OH272397   6.442   6.725   4.611 -0.0482  0.1599  0.1803
16969TIP3    H172398   6.384   6.704   4.538 -0.2052 -0.9605  0.5906
16969TIP3    H272399   6.511   6.779   4.574  0.4368 -1.2283 -1.0343
16970TIP3   OH272400   1.025   3.228   1.806 -0.0960 -0.2091  0.4303
16970TIP3    H172401   1.072   3.247   1.725 -0.3073  0.3707  0.4443
16970TIP3    H272402   0.932   3.228   1.781 -0.1793  0.2457  0.7234
16971TIP3   OH272403   5.395   2.342   3.300  0.0766 -0.2430  0.0803
16971TIP3    H172404   5.465   2.404   3.321 -1.0140  0.6649  1.1224
16971TIP3    H272405   5.439   2.274   3.248  1.5669  0.6956  0.0431
16972TIP3   OH272406   0.593   2.791  11.410  0.9363  0.4177  0.4282
16972TIP3    H172407   0.656   2.841  11.358 -0.6515  2.0109 -0.0206
16972TIP3    H272408   0.517   2.781  11.354  0.7675 -1.5777  0.9287
16973TIP3   OH272409   0.146   6.150  16.449 -0.3945  0.0286 -0.2379
16973TIP3    H172410   0.129   6.233  16.494 -2.0377  1.4634 -3.1739
16973TIP3    H272411   0.067   6.098  16.464 -0.8868  0.4562 -1.2114
16974TIP3   OH272412   0.379   6.425  10.655  0.6546  0.7537 -0.5210
16974TIP3    H172413   0.308   6.487  10.668  0.1681  0.3859 -1.3487
16974TIP3    H272414   0.343   6.341  10.681  1.1521  0.7228  0.1124
16975TIP3   OH272415   5.411   0.203   5.701 -0.2238 -0.3289 -0.3589
16975TIP3    H172416   5.339   0.140   5.701  0.0896 -0.6990 -0.6886
16975TIP3    H272417   5.378   0.276   5.649 -0.0987 -0.8280 -1.1749
16976TIP3   OH272418   5.352   4.883   0.814 -0.1355 -0.2404 -0.4752
16976TIP3    H172419   5.378   4.883   0.722  1.3071 -0.6711 -0.0974
16976TIP3    H272420   5.414   4.824   0.856  1.1338  2.1789  1.2884
16977TIP3   OH272421   0.420   4.484  12.995 -0.3531  0.6515  0.3337
16977TIP3    H172422   0.339   4.466  13.043 -0.4232 -0.6757 -0.2466
16977TIP3    H272423   0.410   4.574  12.964 -1.0121  0.9625  1.4143
16978TIP3   OH272424   5.419   5.230  13.975 -0.4813 -0.2579 -0.0623
16978TIP3    H172425   5.469   5.244  14.056  1.9147 -2.7297 -0.9656
16978TIP3    H272426   5.461   5.287  13.911 -0.5890 -0.3427 -0.2091
16979TIP3   OH272427   6.179   3.003  10.805 -0.1610  0.1115  0.2237
16979TIP3    H172428   6.215   2.948  10.735 -2.6776 -2.4687  0.7729
16979TIP3    H272429   6.131   3.072  10.760  0.4504  0.0676 -0.5243
16980TIP3   OH272430   0.930   4.545  11.963 -0.2233 -0.3824  0.1980
16980TIP3    H172431   0.869   4.509  11.899 -0.1990 -1.4737  0.7748
16980TIP3    H272432   1.000   4.480  11.969  0.9328  0.7655 -0.3264
16981TIP3   OH272433   5.537   5.967  16.857  0.6621  0.2545  0.4640
16981TIP3    H172434   5.458   5.914  16.849  0.4769  0.1399  2.5280
16981TIP3    H272435   5.555   5.997  16.768 -1.7771  0.3952 -0.0547
16982TIP3   OH272436   5.563   6.319  11.292 -0.3374  0.3198  0.6085
16982TIP3    H172437   5.634   6.350  11.348 -0.2533  2.0330 -0.3789
16982TIP3    H272438   5.557   6.384  11.222  1.0136 -2.6701 -2.6717
16983TIP3   OH272439   3.201   3.926   0.251  0.4012  0.0223  0.1274
16983TIP3    H172440   3.142   3.859   0.217  0.3362 -0.7861  1.7245
16983TIP3    H272441   3.203   3.993   0.183 -1.4281 -0.4674 -0.4692
16984TIP3   OH272442   0.729   4.981  14.014  0.1541 -0.4531 -0.0964
16984TIP3    H172443   0.798   4.919  14.037 -0.1186 -0.9992 -0.7012
16984TIP3    H272444   0.693   5.010  14.098 -0.0803 -1.5488  0.1986
16985TIP3   OH272445   6.170   6.268   1.581  0.0302 -0.5301  0.5238
16985TIP3    H172446   6.216   6.342   1.541 -0.1005 -1.0629 -0.6535
16985TIP3    H272447   6.143   6.214   1.507 -0.0182 -1.6799  1.3567
16986TIP3   OH272448   4.611   0.774   2.931 -0.1509  0.3362  0.6584
16986TIP3    H172449   4.655   0.783   2.846  0.5792  0.6066  1.0549
16986TIP3    H272450   4.679   0.741   2.990  0.2620  3.0816  1.8815
16987TIP3   OH272451   6.658   0.624   4.385  0.4232  0.8012 -0.1451
16987TIP3    H172452   6.568   0.619   4.416  0.5314  0.0028  0.0561
16987TIP3    H272453   6.712   0.604   4.461  0.7519  0.6206 -0.4205
16988TIP3   OH272454   4.031   6.259  16.536 -0.5095 -0.3096 -0.6415
16988TIP3    H172455   4.030   6.272  16.630  0.5742 -2.3497 -0.2897
16988TIP3    H272456   3.961   6.195  16.520  1.8156 -3.0857 -0.5730
16989TIP3   OH272457   5.948   1.401   5.292  0.4700 -0.3550  0.0320
16989TIP3    H172458   5.971   1.407   5.199 -1.0788 -3.5649 -0.7000
16989TIP3    H272459   5.863   1.445   5.298 -0.6788 -2.3366 -0.7160
16990TIP3   OH272460   3.605   2.568  10.855  0.4144  0.0369  0.0042
16990TIP3    H172461   3.624   2.475  10.871 -0.6723 -0.1235  0.4372
16990TIP3    H272462   3.516   2.568  10.819  0.6671  0.8642 -0.6534
16991TIP3   OH272463   1.478   4.165   2.670  1.1226  0.2959  0.1207
16991TIP3    H172464   1.420   4.089   2.680  1.0607 -0.6086 -4.6042
16991TIP3    H272465   1.565   4.131   2.690  0.7509 -0.0436  1.2572
16992TIP3   OH272466   6.734   5.453   2.163 -0.5104  0.3472  0.2470
16992TIP3    H172467   6.806   5.459   2.100 -0.9348 -0.6970 -0.3626
16992TIP3    H272468   6.761   5.384   2.224 -0.5284  0.6846  0.6388
16993TIP3   OH272469   2.075   1.548  17.184 -0.1177 -0.0961 -0.3730
16993TIP3    H172470   2.084   1.467  17.134 -0.6413  1.4478 -3.1949
16993TIP3    H272471   2.127   1.612  17.136  0.1239  1.3407  1.6415
16994TIP3   OH272472   2.014   0.255   5.803  0.4394  0.4983  0.4923
16994TIP3    H172473   2.092   0.249   5.748 -0.3554 -2.7183 -0.4903
16994TIP3    H272474   1.941   0.238   5.743 -0.8043  0.8261  1.8540
16995TIP3   OH272475   2.343   2.548  14.160  0.1404 -0.4813 -0.5061
16995TIP3    H172476   2.396   2.469  14.150  1.9324  0.2805  1.8311
16995TIP3    H272477   2.327   2.579  14.071  1.0290 -2.4286 -1.3807
16996TIP3   OH272478   0.767   0.189  16.937 -0.0145  0.9437 -0.4995
16996TIP3    H172479   0.853   0.147  16.935 -0.0045  0.9524 -0.3308
16996TIP3    H272480   0.737   0.188  16.847  1.1263  2.9110 -0.9753
16997TIP3   OH272481   0.260   6.769   2.736 -0.2275 -0.2816 -0.5806
16997TIP3    H172482   0.182   6.785   2.790  0.0076 -1.1163  0.0278
16997TIP3    H272483   0.331   6.756   2.800  0.1645 -0.7380 -1.1009
16998TIP3   OH272484   5.628   1.930   2.820  0.4336  0.3022 -0.6341
16998TIP3    H172485   5.723   1.920   2.816  0.5294  1.2620 -1.1901
16998TIP3    H272486   5.603   1.894   2.905  1.3046  0.1115 -0.4497
16999TIP3   OH272487   0.393   6.498   3.354  0.1729 -0.3688 -0.9302
16999TIP3    H172488   0.343   6.432   3.402  2.8395 -2.0134 -0.2134
16999TIP3    H272489   0.429   6.556   3.422 -1.3238  1.3048 -1.4892
17000TIP3   OH272490   2.708   4.865   5.814 -0.3951  1.0186  0.2740
17000TIP3    H172491   2.769   4.824   5.875  0.2538  0.1279 -0.9279
17000TIP3    H272492   2.722   4.959   5.826  0.4185  0.8414  0.8090
17001TIP3   OH272493   1.274   0.231  14.624 -0.5290  0.4480 -0.4037
17001TIP3    H172494   1.260   0.250  14.531  0.7072 -0.0959 -0.7108
17001TIP3    H272495   1.230   0.147  14.638  1.5380 -0.8464 -1.1753
17002TIP3   OH272496   6.573   5.054  12.653 -0.1108 -0.7317 -0.1382
17002TIP3    H172497   6.586   4.966  12.618 -1.3698 -0.7646 -0.5929
17002TIP3    H272498   6.636   5.109  12.607 -0.2425 -1.1684 -0.8454
17003TIP3   OH272499   2.637   0.707  15.064 -0.0947  0.1322  0.1932
17003TIP3    H172500   2.594   0.775  15.116 -0.1828  0.1914  0.0433
17003TIP3    H272501   2.564   0.653  15.032 -0.0868  0.4649 -0.3920
17004TIP3   OH272502   1.012   2.163   3.701 -0.1999 -0.1041  0.2751
17004TIP3    H172503   1.052   2.188   3.785 -1.5315  0.8158  0.6658
17004TIP3    H272504   0.919   2.153   3.721 -0.0530 -3.8923 -0.2122
17005TIP3   OH272505   5.953   6.655   1.362  0.3011  0.5866 -0.3751
17005TIP3    H172506   6.020   6.657   1.293 -1.2260 -0.8009 -2.0089
17005TIP3    H272507   5.937   6.561   1.377 -1.0683  0.8819  0.1746
17006TIP3   OH272508   6.002   0.672   2.971  0.5422 -0.3531  0.1533
17006TIP3    H172509   6.091   0.663   2.936  0.9229 -1.3387  1.3334
17006TIP3    H272510   5.960   0.588   2.951 -0.1799  0.1438 -0.4937
17007TIP3   OH272511   0.461   1.509  12.869 -0.0176  0.3709 -0.2286
17007TIP3    H172512   0.429   1.557  12.793 -0.9728 -0.5342 -0.4311
17007TIP3    H272513   0.413   1.546  12.943  0.4907  0.8629 -0.1400
17008TIP3   OH272514   2.990   2.118  15.206  0.1061 -0.1194  0.0267
17008TIP3    H172515   3.080   2.151  15.213 -0.0947  0.5751 -0.6719
17008TIP3    H272516   2.942   2.187  15.161 -0.4673 -1.0829 -0.8747
17009TIP3   OH272517   0.021   1.512  11.382 -0.1805  0.5608 -0.4838
17009TIP3    H172518  -0.035   1.586  11.357 -0.3712  0.1430 -1.3520
17009TIP3    H272519   0.103   1.552  11.410 -0.7870  1.1638  0.4542
17010TIP3   OH272520   2.020   4.566   5.721  0.5450 -0.1413  0.0545
17010TIP3    H172521   1.967   4.487   5.706  0.8664 -0.0954 -1.4832
17010TIP3    H272522   1.998   4.593   5.810 -1.4278 -0.5644 -0.2577
17011TIP3   OH272523   6.646   5.601  14.469  0.0702  0.3891  0.1352
17011TIP3    H172524   6.582   5.585  14.399 -0.4146  1.5272  0.2964
17011TIP3    H272525   6.604   5.666  14.525  1.3182  1.0474  0.3321
17012TIP3   OH272526   0.143   0.613  17.154  0.5067  0.5910  0.1208
17012TIP3    H172527   0.071   0.672  17.133  0.0794 -0.1913 -0.6691
17012TIP3    H272528   0.165   0.571  17.071  0.9589 -0.1931  0.6242
17013TIP3   OH272529   6.742   4.919  16.747 -0.1074 -0.1983 -0.4475
17013TIP3    H172530   6.677   4.890  16.810  1.8176  0.3574  1.9582
17013TIP3    H272531   6.822   4.874  16.773  0.9933  0.8511 -1.8606
17014TIP3   OH272532   2.906   1.186  16.517  0.0214  0.1653  0.2440
17014TIP3    H172533   2.867   1.135  16.446  0.9995 -0.8436  0.3999
17014TIP3    H272534   2.849   1.172  16.592  0.1763 -0.5577  0.2314
17015TIP3   OH272535   6.576   4.840  15.041  0.5626 -0.2570  0.1967
17015TIP3    H172536   6.638   4.910  15.025 -0.1763  0.4529  0.3535
17015TIP3    H272537   6.556   4.846  15.135 -0.9055  0.5497 -0.1333
17016TIP3   OH272538   3.265   2.157   5.488  0.4605  0.4457 -0.1438
17016TIP3    H172539   3.311   2.239   5.470  0.3354  0.5566  0.0283
17016TIP3    H272540   3.304   2.094   5.429  1.3988  0.3491  0.5566
17017TIP3   OH272541   1.882   3.889  12.773 -0.2937 -0.0114 -0.0813
17017TIP3    H172542   1.809   3.950  12.784 -0.2541  0.1148 -0.4976
17017TIP3    H272543   1.870   3.824  12.842 -1.7734 -0.9684 -1.1804
17018TIP3   OH272544   0.924   2.890  17.131 -0.6259 -0.1029 -0.9130
17018TIP3    H172545   0.858   2.878  17.062  0.0818  1.5553 -1.9482
17018TIP3    H272546   0.979   2.961  17.098  1.1652 -0.8667  0.3214
17019TIP3   OH272547   1.281   3.010   4.757 -0.1617 -0.1969  0.3224
17019TIP3    H172548   1.359   2.993   4.703  0.4420  0.6925  0.8893
17019TIP3    H272549   1.275   2.934   4.814  0.1122 -0.4213  0.0564
17020TIP3   OH272550   5.090   4.765  13.004 -0.3550 -0.4112  0.6693
17020TIP3    H172551   5.116   4.818  12.929  1.0086 -0.0825  1.3441
17020TIP3    H272552   4.999   4.790  13.021  0.3472  2.0536  1.2142
17021TIP3   OH272553   0.753   3.156  12.872  0.3667  0.0513 -0.3481
17021TIP3    H172554   0.672   3.162  12.922  0.2598  0.7203 -0.5901
17021TIP3    H272555   0.818   3.125  12.935  0.2811  1.0861  0.2576
17022TIP3   OH272556   1.514   3.866   2.889 -0.3962 -0.0329 -0.4057
17022TIP3    H172557   1.559   3.923   2.951  1.0312  0.9181 -2.2027
17022TIP3    H272558   1.556   3.884   2.805 -3.3526  0.0245 -2.0271
17023TIP3   OH272559   0.272   0.647   0.589 -0.2627 -0.1444  0.3848
17023TIP3    H172560   0.245   0.590   0.661  1.8468 -0.0845  1.2854
17023TIP3    H272561   0.256   0.735   0.621 -0.6332 -0.1479  0.2144
17024TIP3   OH272562   2.158   2.712  10.648  0.3712  0.1639 -1.0201
17024TIP3    H172563   2.098   2.637  10.651  0.5377  0.0606  0.2916
17024TIP3    H272564   2.156   2.747  10.737  0.5947  1.4952 -1.5204
17025TIP3   OH272565   4.820   1.883  12.827 -0.2486 -0.3678  0.6427
17025TIP3    H172566   4.901   1.831  12.821  0.0797  0.2342 -0.4751
17025TIP3    H272567   4.777   1.868  12.743 -0.9358 -0.0848  0.9458
17026TIP3   OH272568   6.186   3.509  16.004 -0.0343 -0.3729  0.3399
17026TIP3    H172569   6.164   3.584  16.059  0.3758  0.5507 -0.7128
17026TIP3    H272570   6.123   3.511  15.933  1.1855  0.1776 -0.7694
17027TIP3   OH272571   5.558   0.750   2.374  0.4174 -0.2366  0.7351
17027TIP3    H172572   5.624   0.819   2.367  0.2707  0.1236  2.4494
17027TIP3    H272573   5.607   0.673   2.405  0.6096 -0.9990 -1.3152
17028TIP3   OH272574   2.062   3.930  13.491 -0.6177 -0.2833 -0.2898
17028TIP3    H172575   2.098   3.962  13.408 -2.0603 -0.4692 -1.0255
17028TIP3    H272576   2.078   4.000  13.553  1.0385 -0.3887 -0.5576
17029TIP3   OH272577   4.257   1.414   4.694  0.1923 -0.4846  0.2890
17029TIP3    H172578   4.241   1.396   4.601  1.0710 -3.4429  0.6242
17029TIP3    H272579   4.174   1.397   4.737 -0.0858  0.4350  0.1532
17030TIP3   OH272580   5.774   3.894  15.409 -0.0156 -0.1763  0.1952
17030TIP3    H172581   5.785   3.895  15.314  0.8100  0.3931  0.2862
17030TIP3    H272582   5.817   3.814  15.438 -1.6925 -1.2111 -0.0484
17031TIP3   OH272583   0.512   0.464   4.861  0.5696 -0.5012  0.6244
17031TIP3    H172584   0.489   0.535   4.801  1.3536 -1.0701 -0.3748
17031TIP3    H272585   0.450   0.473   4.933 -0.8455 -0.2338 -0.5858
17032TIP3   OH272586   2.199   6.630   1.190  0.3215 -0.4513 -0.7344
17032TIP3    H172587   2.105   6.614   1.197  0.3893 -0.2657  1.6021
17032TIP3    H272588   2.218   6.692   1.261  1.9151  1.0956 -2.3898
17033TIP3   OH272589   6.335   4.360   4.094  0.0104  0.6543  0.0140
17033TIP3    H172590   6.301   4.344   4.182 -4.3923  1.1290 -1.3616
17033TIP3    H272591   6.317   4.279   4.046  1.9800  0.5460 -0.6350
17034TIP3   OH272592   6.034   3.460  15.710 -0.4992  0.0366  0.0645
17034TIP3    H172593   6.054   3.542  15.663 -2.1515  0.8126  0.6436
17034TIP3    H272594   5.942   3.442  15.688 -0.4972 -1.0445  0.8802
17035TIP3   OH272595   6.774   5.863  17.235  0.1776  0.0359 -0.3792
17035TIP3    H172596   6.697   5.874  17.291 -0.0108  1.7381 -0.9227
17035TIP3    H272597   6.843   5.832  17.294  0.4004  3.1173  1.1863
17036TIP3   OH272598   5.365   2.586   3.736  0.2598  0.2079  0.1804
17036TIP3    H172599   5.405   2.627   3.659  0.0597  0.3802  0.1672
17036TIP3    H272600   5.273   2.574   3.711  0.5586 -1.3587 -0.2753
17037TIP3   OH272601   5.801   5.438  12.628 -0.4359  0.5679  0.3338
17037TIP3    H172602   5.813   5.354  12.585 -1.1028  0.8068 -0.3550
17037TIP3    H272603   5.811   5.503  12.557 -0.7896  1.0076  0.6749
17038TIP3   OH272604   0.347   0.886   0.333 -0.6253  0.5924  0.2899
17038TIP3    H172605   0.292   0.960   0.307 -0.2027  0.5091 -0.9096
17038TIP3    H272606   0.339   0.823   0.262  1.7898  1.0116 -0.4671
17039TIP3   OH272607   0.454   1.361  14.133  0.2275 -0.4843  0.2644
17039TIP3    H172608   0.376   1.364  14.188 -0.4504 -1.3306 -0.6010
17039TIP3    H272609   0.436   1.291  14.070  0.2102  1.5466 -2.1417
17040TIP3   OH272610   1.406   2.513   4.136  0.2699 -0.3064  0.3648
17040TIP3    H172611   1.361   2.574   4.077  0.5404  1.4205  1.8624
17040TIP3    H272612   1.476   2.476   4.082 -0.1275  0.4265 -0.7005
17041TIP3   OH272613   3.441   4.008   5.317  0.4255 -0.6203  0.6188
17041TIP3    H172614   3.392   3.937   5.275  0.5542 -0.5230  0.3002
17041TIP3    H272615   3.431   4.083   5.257  1.0072 -0.6141  0.5183
17042TIP3   OH272616   0.187   1.215   3.903 -0.0279 -0.0468  0.4028
17042TIP3    H172617   0.192   1.310   3.893 -0.4761  0.1087  1.5598
17042TIP3    H272618   0.186   1.201   3.998  3.1389 -1.3782  0.3748
17043TIP3   OH272619   2.250   1.721  15.628  0.5728  0.1525  0.6854
17043TIP3    H172620   2.167   1.674  15.637  0.6647 -0.1156  0.1876
17043TIP3    H272621   2.237   1.802  15.676  0.3535 -0.3122  1.4236
17044TIP3   OH272622   3.973   3.166   2.207  0.3293  0.2501 -0.0520
17044TIP3    H172623   3.925   3.167   2.290  0.0628 -0.8253 -0.1722
17044TIP3    H272624   4.065   3.162   2.233  0.3373  1.5032  0.1795
17045TIP3   OH272625   1.672   4.157  13.596  0.6020  0.2991 -0.3355
17045TIP3    H172626   1.658   4.160  13.691 -0.0811 -0.9432 -0.3800
17045TIP3    H272627   1.595   4.200  13.559 -0.4724 -1.5573 -0.3849
17046TIP3   OH272628   0.955   3.654   1.824  0.3447 -0.2599 -0.2824
17046TIP3    H172629   0.968   3.724   1.760 -0.7208  1.0911  0.9027
17046TIP3    H272630   1.041   3.641   1.864  0.6293  0.1267 -0.7624
17047TIP3   OH272631   0.529   1.891   1.133  1.0201 -0.2098  0.3140
17047TIP3    H172632   0.447   1.918   1.173  0.4062 -0.9012 -0.4524
17047TIP3    H272633   0.577   1.847   1.204  1.6438  1.9536  1.3329
17048TIP3   OH272634   5.326   0.942  12.664 -0.2914  0.3587 -0.3403
17048TIP3    H172635   5.321   1.030  12.626 -0.4934  0.0231 -1.1041
17048TIP3    H272636   5.235   0.910  12.662 -0.3273  0.3886  0.5552
17049TIP3   OH272637   4.050   6.816  13.115 -0.2355  0.5390  0.2954
17049TIP3    H172638   4.020   6.766  13.039  0.4011 -0.7993  0.8897
17049TIP3    H272639   3.970   6.847  13.156 -0.6212  0.4169 -0.3453
17050TIP3   OH272640   1.594   2.709   6.706 -0.5360 -0.4114  0.0996
17050TIP3    H172641   1.674   2.749   6.671  0.0580 -1.8714 -0.2543
17050TIP3    H272642   1.533   2.709   6.633 -0.3537 -0.6325 -0.0536
17051TIP3   OH272643   4.361   0.388   5.490 -0.2525  0.2724 -0.0048
17051TIP3    H172644   4.389   0.298   5.475  0.1501  0.5177 -0.7769
17051TIP3    H272645   4.415   0.419   5.563  0.3739  0.2307 -0.4457
17052TIP3   OH272646   3.240   0.058   4.621  0.7165  0.6371  0.3472
17052TIP3    H172647   3.280   0.136   4.582 -0.2975  1.0067 -0.0023
17052TIP3    H272648   3.211   0.006   4.546  0.6766  0.3106  0.5853
17053TIP3   OH272649   4.718   3.487  14.876 -0.0667  0.0749  0.2386
17053TIP3    H172650   4.755   3.478  14.788  1.0858  1.0777  0.5855
17053TIP3    H272651   4.624   3.497  14.862 -0.3439 -2.7931 -0.6752
17054TIP3   OH272652   0.020   1.564   1.744 -0.2762  0.7436  0.2744
17054TIP3    H172653  -0.033   1.637   1.713  0.7493  1.1255 -0.6383
17054TIP3    H272654   0.110   1.589   1.724  0.1070 -0.7026  0.0521
17055TIP3   OH272655   5.628   6.028   0.657  0.1976 -0.3621  0.6727
17055TIP3    H172656   5.662   6.046   0.569 -2.1145 -0.3215 -0.2752
17055TIP3    H272657   5.656   5.939   0.676 -0.5352 -0.9371 -0.7776
17056TIP3   OH272658   1.461   5.384  14.167  0.1576  0.4691 -0.5306
17056TIP3    H172659   1.520   5.358  14.238 -1.1353 -1.6512 -0.1582
17056TIP3    H272660   1.452   5.306  14.113  0.1205  1.6796 -2.3593
17057TIP3   OH272661   0.294   6.385  13.745 -0.0421  0.4204 -0.1625
17057TIP3    H172662   0.349   6.424  13.677 -1.5567 -0.0915 -1.7594
17057TIP3    H272663   0.293   6.291  13.723 -1.4358  0.4064 -0.1180
17058TIP3   OH272664   0.424   1.887   2.645 -0.3857 -0.4165  0.1916
17058TIP3    H172665   0.443   1.796   2.666 -0.0764 -0.7263 -1.2808
17058TIP3    H272666   0.483   1.907   2.572 -0.4621  0.9582  0.4850
17059TIP3   OH272667   5.129   4.136   5.563  0.1049 -0.0244 -0.0593
17059TIP3    H172668   5.165   4.198   5.500  1.4663  1.0797  1.6952
17059TIP3    H272669   5.170   4.052   5.540  1.6828  0.6480  0.1835
17060TIP3   OH272670   0.691   3.801   1.591  0.3825  0.0660 -0.5088
17060TIP3    H172671   0.650   3.809   1.505 -0.8365  2.0247  0.1921
17060TIP3    H272672   0.781   3.775   1.572  0.7253  2.3292 -2.5436
17061TIP3   OH272673   0.959   6.454  12.513  0.1693  0.4036  0.1905
17061TIP3    H172674   0.886   6.512  12.490  0.5498  0.5456 -0.7067
17061TIP3    H272675   0.976   6.404  12.433  0.8933  0.2031  0.4671
17062TIP3   OH272676   0.647   6.800   0.599  0.5718 -0.2840  0.5749
17062TIP3    H172677   0.689   6.717   0.574  1.4841 -0.2951  2.0244
17062TIP3    H272678   0.695   6.829   0.677  0.4740  1.7816 -0.0743
17063TIP3   OH272679   2.168   0.749   1.323  0.1790  0.0191 -0.3271
17063TIP3    H172680   2.136   0.770   1.411  0.0121 -0.4106 -0.2807
17063TIP3    H272681   2.217   0.668   1.334 -1.3631 -1.0472 -0.9180
17064TIP3   OH272682   5.056   6.675   4.011 -0.0413  0.6589 -0.0026
17064TIP3    H172683   5.005   6.602   3.976  0.8109  0.3396 -0.6019
17064TIP3    H272684   5.009   6.701   4.090 -1.1842  0.4332 -0.5858
17065TIP3   OH272685   4.412   2.068   4.579  0.0307  0.1067 -0.6317
17065TIP3    H172686   4.481   2.076   4.646 -0.1635  0.8737 -0.5158
17065TIP3    H272687   4.335   2.110   4.618 -0.5015 -0.7326 -0.7684
17066TIP3   OH272688   3.198   1.740  13.240  0.3711 -0.4824  0.6558
17066TIP3    H172689   3.278   1.793  13.248  0.2860 -0.5793  2.7180
17066TIP3    H272690   3.222   1.669  13.181  1.6417 -0.1846  0.7901
17067TIP3   OH272691   1.988   4.903  11.917  0.5434  0.5431 -0.1965
17067TIP3    H172692   2.009   4.935  11.829 -1.2479 -1.2184 -1.3596
17067TIP3    H272693   1.892   4.898  11.918  0.5746 -0.3058  1.5293
17068TIP3   OH272694   4.879   3.600   0.500 -0.1099 -0.7127  0.6218
17068TIP3    H172695   4.828   3.681   0.492  0.5256 -0.3274  0.3929
17068TIP3    H272696   4.951   3.623   0.559  0.5423 -0.8676 -0.0924
17069TIP3   OH272697   3.978   2.877  13.568  0.0424  0.3246  0.1606
17069TIP3    H172698   4.071   2.874  13.593  0.2472 -1.6535 -0.6831
17069TIP3    H272699   3.952   2.785  13.561 -1.8169  0.8438 -0.2792
17070TIP3   OH272700   4.538   0.711  12.020  1.0077  0.3440 -0.4175
17070TIP3    H172701   4.510   0.802  12.030  0.1818  0.0057  0.4825
17070TIP3    H272702   4.580   0.708  11.934  1.0958  1.5839 -0.4335
17071TIP3   OH272703   0.515   1.135   2.626 -0.1087  0.0041  0.2883
17071TIP3    H172704   0.536   1.159   2.536 -1.1671  1.7716  0.4828
17071TIP3    H272705   0.597   1.147   2.673  0.7277 -1.8953 -0.5700
17072TIP3   OH272706   4.186   4.428   0.024  0.6526  0.2844  0.1641
17072TIP3    H172707   4.201   4.520   0.047  4.5255  0.0777 -0.7371
17072TIP3    H272708   4.219   4.379   0.099  0.2914 -0.3577 -0.0939
17073TIP3   OH272709   3.620   3.883  14.243 -0.1506  0.0995 -0.1257
17073TIP3    H172710   3.633   3.921  14.156  0.0250  2.3022  0.8195
17073TIP3    H272711   3.529   3.901  14.264 -0.2653 -0.6565  0.0650
17074TIP3   OH272712   6.210   2.134   0.026  0.8028 -0.0101 -0.0186
17074TIP3    H172713   6.148   2.152   0.096  0.4290  0.7417 -0.5292
17074TIP3    H272714   6.219   2.038   0.026  1.6203  0.0318  1.7269
17075TIP3   OH272715   0.967   5.561   5.578  0.7110 -0.6703  0.2927
17075TIP3    H172716   0.919   5.539   5.498  0.3004 -1.2686  0.6919
17075TIP3    H272717   0.926   5.507   5.646 -0.1502  1.1400  1.2904
17076TIP3   OH272718   4.976   2.824  14.731 -0.0925  0.0659 -0.0693
17076TIP3    H172719   4.948   2.771  14.657  0.3869  1.9689 -1.7062
17076TIP3    H272720   4.937   2.910  14.715  0.8980  0.8142  1.3210
17077TIP3   OH272721   4.800   0.447   5.558  0.6345 -0.2199 -0.5821
17077TIP3    H172722   4.868   0.393   5.597 -0.1915 -0.3553  0.7252
17077TIP3    H272723   4.771   0.397   5.482  0.6986 -1.0620 -0.0705
17078TIP3   OH272724   5.746   2.502   5.300 -0.1264  0.8780  0.2064
17078TIP3    H172725   5.707   2.438   5.360  1.6097 -0.8303 -0.3853
17078TIP3    H272726   5.701   2.488   5.217  0.3205  0.3566  0.0523
17079TIP3   OH272727   0.064   4.069   5.999 -0.2302 -0.1683 -0.0999
17079TIP3    H172728   0.020   4.060   6.083  1.9485  1.1506  1.2935
17079TIP3    H272729   0.118   3.990   5.992 -0.8122 -0.5393 -0.5647
17080TIP3   OH272730   3.967   3.753   5.459  0.4964 -0.2506  1.0199
17080TIP3    H172731   3.884   3.738   5.413  0.0167 -0.4094  1.9177
17080TIP3    H272732   4.031   3.705   5.407  0.2529  0.8364 -0.3515
17081TIP3   OH272733   4.053   1.340  10.688 -0.0138 -0.8884 -0.1011
17081TIP3    H172734   4.003   1.324  10.767 -0.5336 -0.9836 -0.4448
17081TIP3    H272735   4.091   1.255  10.665  1.3179 -0.5830  0.8231
17082TIP3   OH272736   5.493   3.035  13.066 -0.1546 -0.4171 -0.5640
17082TIP3    H172737   5.582   3.054  13.037  0.3228  0.2137  1.1928
17082TIP3    H272738   5.476   2.945  13.035  1.2693 -0.7356 -0.4751
17083TIP3   OH272739   5.540   4.304   3.640 -0.5724  0.8875  0.2184
17083TIP3    H172740   5.469   4.240   3.643 -1.3488  1.5826 -1.8706
17083TIP3    H272741   5.579   4.299   3.727 -0.5866 -2.4058  0.1638
17084TIP3   OH272742   3.865   6.623   2.397 -0.0293  0.0231  0.0835
17084TIP3    H172743   3.933   6.557   2.413 -1.2465 -1.2215  0.3134
17084TIP3    H272744   3.885   6.693   2.458  0.8169 -0.4936  0.4234
17085TIP3   OH272745   1.081   6.323   0.891 -0.3739 -0.4266 -0.8499
17085TIP3    H172746   1.038   6.407   0.878 -2.1191 -1.4587 -2.1918
17085TIP3    H272747   1.170   6.336   0.857 -0.5602  0.8962 -0.8696
17086TIP3   OH272748   5.148   1.555  11.899 -0.1177 -0.5774  0.0514
17086TIP3    H172749   5.132   1.644  11.868  1.1722 -0.5769 -0.6791
17086TIP3    H272750   5.131   1.500  11.822  0.2248 -0.8522  0.1708
17087TIP3   OH272751   2.710   5.844  13.803 -0.1062  0.0093 -0.6966
17087TIP3    H172752   2.719   5.819  13.895  1.0678  0.2744 -0.7175
17087TIP3    H272753   2.619   5.824  13.781 -0.4144 -0.0184  0.5307
17088TIP3   OH272754   0.451   0.846   5.915  0.6920  0.1752  0.0857
17088TIP3    H172755   0.411   0.924   5.951  0.4903  0.1414 -0.0621
17088TIP3    H272756   0.378   0.786   5.900  0.7165  0.3274 -0.7259
17089TIP3   OH272757   0.459   5.636   2.965  0.1779  0.2289 -0.1596
17089TIP3    H172758   0.432   5.610   3.053 -0.0483 -1.6004 -0.7220
17089TIP3    H272759   0.396   5.703   2.938  0.0652  0.5716  0.9367
17090TIP3   OH272760   0.916   3.080   2.223  0.4889 -0.0416  0.4503
17090TIP3    H172761   0.960   3.019   2.163  1.0622  1.2989 -0.5279
17090TIP3    H272762   0.974   3.085   2.299  0.1645 -1.1119  0.7923
17091TIP3   OH272763   6.382   1.643   1.266 -0.0696  0.2163 -0.1614
17091TIP3    H172764   6.401   1.697   1.342 -1.4434  0.9441 -0.3127
17091TIP3    H272765   6.346   1.562   1.302 -0.9076  0.6395 -0.0360
17092TIP3   OH272766   0.803   0.624   2.515  0.0544 -0.2600 -0.5609
17092TIP3    H172767   0.836   0.551   2.568 -0.3544 -0.0332  0.0229
17092TIP3    H272768   0.712   0.600   2.495 -0.1584  0.1795 -0.1679
17093TIP3   OH272769   6.722   2.699  12.731  0.0179  0.0122 -0.2707
17093TIP3    H172770   6.795   2.652  12.690  0.6631 -0.0452  0.9072
17093TIP3    H272771   6.680   2.634  12.788 -0.1149  0.4046  0.0907
17094TIP3   OH272772   1.506   0.929   1.764 -0.1357  0.1108 -0.1946
17094TIP3    H172773   1.584   0.985   1.766 -1.1149  1.7033 -2.4196
17094TIP3    H272774   1.505   0.886   1.850  2.8139  0.5070  0.1314
17095TIP3   OH272775   4.751   5.659   2.278  0.2703 -0.1959  0.6525
17095TIP3    H172776   4.671   5.711   2.286 -0.7443 -1.3046 -1.4658
17095TIP3    H272777   4.808   5.711   2.221  0.5265 -0.0258  1.0573
17096TIP3   OH272778   1.718   5.720  13.091  0.0265  0.3013 -0.1506
17096TIP3    H172779   1.790   5.737  13.031  0.0733  3.5511  0.6765
17096TIP3    H272780   1.649   5.780  13.065 -0.5499  0.6747  2.0282
17097TIP3   OH272781   4.981   4.387  15.270  0.4328 -0.0505  0.4375
17097TIP3    H172782   5.034   4.453  15.316 -0.3425  1.4580 -0.7342
17097TIP3    H272783   4.955   4.326  15.339  0.4961  1.3406  1.7677
17098TIP3   OH272784   2.626   3.577  12.475 -0.5254  0.1278 -0.1641
17098TIP3    H172785   2.595   3.487  12.469 -0.5192 -0.0825  2.0761
17098TIP3    H272786   2.567   3.619  12.538  1.3865  0.7589  1.2945
17099TIP3   OH272787   5.449   3.789  16.324 -0.0414  0.1503 -0.0984
17099TIP3    H172788   5.492   3.704  16.313  0.1916  0.2879 -0.2755
17099TIP3    H272789   5.414   3.787  16.413 -0.0861 -0.1541 -0.1224
17100TIP3   OH272790   6.202   4.296  10.734  0.3355  0.1912  0.1442
17100TIP3    H172791   6.113   4.267  10.749  0.3651 -0.3396 -0.6599
17100TIP3    H272792   6.242   4.227  10.681  0.2999  1.7960 -2.1267
17101TIP3   OH272793   0.383   5.320   1.411  0.3277 -0.1838  0.3086
17101TIP3    H172794   0.445   5.274   1.355  0.1170  0.2531 -0.2931
17101TIP3    H272795   0.321   5.252   1.439  0.8956 -0.5624  0.6699
17102TIP3   OH272796   5.908   2.551   4.340  0.8208 -0.0398 -0.0188
17102TIP3    H172797   5.879   2.572   4.429  1.3195  1.9586 -0.2789
17102TIP3    H272798   5.865   2.617   4.285  1.5019 -0.4758 -1.0976
17103TIP3   OH272799   3.611   0.412   4.867  0.1775  0.1287 -0.3037
17103TIP3    H172800   3.609   0.466   4.788  0.6914 -0.3398 -0.6464
17103TIP3    H272801   3.584   0.325   4.837  0.4710 -0.0744  0.0122
17104TIP3   OH272802   4.032   3.285  14.365 -0.1625  0.8509 -0.2533
17104TIP3    H172803   3.995   3.224  14.301  0.1896  0.5872 -0.2100
17104TIP3    H272804   4.126   3.287  14.344 -0.0596  0.8356  0.1901
17105TIP3   OH272805   1.339   1.149  12.467 -0.5794 -0.2155  0.2251
17105TIP3    H172806   1.407   1.187  12.523 -1.0919  0.8314  0.1634
17105TIP3    H272807   1.257   1.182  12.503 -0.9401  0.1628 -0.9074
17106TIP3   OH272808   4.149   1.962   1.648  0.5929  0.3443  0.3078
17106TIP3    H172809   4.121   2.052   1.665  0.1123 -0.0994  2.0529
17106TIP3    H272810   4.236   1.956   1.688 -0.4297 -0.6315  2.6057
17107TIP3   OH272811   2.508   6.215  12.785 -0.4122  0.4241  0.4914
17107TIP3    H172812   2.541   6.196  12.697 -0.4604 -1.2791  0.8039
17107TIP3    H272813   2.514   6.310  12.793  0.3453  0.5381 -1.0554
17108TIP3   OH272814   2.423   4.183  14.532 -0.1057  0.6447 -0.1463
17108TIP3    H172815   2.436   4.089  14.522 -1.7450  0.3234  0.3774
17108TIP3    H272816   2.439   4.219  14.445 -2.6270 -0.5737 -1.2036
17109TIP3   OH272817   4.788   4.616   3.996  0.2275 -0.0095 -0.2433
17109TIP3    H172818   4.721   4.592   4.060  0.6264 -1.0621 -0.1979
17109TIP3    H272819   4.820   4.701   4.026 -1.6745  0.9405 -0.7591
17110TIP3   OH272820   1.979   3.870   2.839 -0.1313  0.3022 -0.2263
17110TIP3    H172821   1.964   3.810   2.912  1.0379 -0.6337 -0.7117
17110TIP3    H272822   1.903   3.857   2.781 -0.1969 -0.2486 -0.0191
17111TIP3   OH272823   4.359   6.575  15.385  0.2829 -0.4356 -0.4566
17111TIP3    H172824   4.288   6.611  15.438 -0.7852 -0.7636 -1.6114
17111TIP3    H272825   4.435   6.575  15.444 -0.4272  0.7905  0.5223
17112TIP3   OH272826   5.038   4.097  12.656 -0.3159  0.0726 -0.3608
17112TIP3    H172827   4.972   4.158  12.688  2.0295  2.4155  0.3200
17112TIP3    H272828   5.114   4.112  12.711  1.2011 -1.7149 -1.8184
17113TIP3   OH272829   0.520   3.983   6.139  0.2310  0.2487 -0.2613
17113TIP3    H172830   0.486   3.997   6.227  0.4466 -1.4210  0.1238
17113TIP3    H272831   0.604   3.938   6.152  0.2564 -0.0405 -1.3121
17114TIP3   OH272832   0.919   0.026  15.016  0.5741 -0.1740  0.7064
17114TIP3    H172833   0.923  -0.049  15.076  2.1171 -0.9101 -0.2791
17114TIP3    H272834   1.006   0.065  15.019  0.1964  0.7557  0.1460
17115TIP3   OH272835   3.747   0.928  12.654  0.5455 -0.8643  0.5966
17115TIP3    H172836   3.678   0.948  12.590  1.7722  0.1654 -0.4400
17115TIP3    H272837   3.699   0.903  12.733 -1.0200 -0.2956 -0.1331
17116TIP3   OH272838   6.396   6.603   1.787 -0.4899  0.5580 -0.9614
17116TIP3    H172839   6.327   6.540   1.769 -0.3192  0.4685 -1.3178
17116TIP3    H272840   6.462   6.586   1.720  1.2678 -1.3277  1.1009
17117TIP3   OH272841   5.237   4.954   0.046 -0.3065  0.0229  0.1338
17117TIP3    H172842   5.299   4.883   0.065  0.1553  0.4408  0.2249
17117TIP3    H272843   5.288   5.018  -0.004 -0.4259  0.7480  0.9030
17118TIP3   OH272844   0.939   0.883   5.048 -0.0235  0.0671  0.2800
17118TIP3    H172845   0.848   0.899   5.073  0.1313  0.1638  0.7971
17118TIP3    H272846   0.987   0.887   5.131  0.3435 -0.7645  0.1124
17119TIP3   OH272847   5.368   3.377  16.405  0.4576 -0.3230  0.4833
17119TIP3    H172848   5.290   3.426  16.427  0.4646 -0.7139  1.4099
17119TIP3    H272849   5.438   3.442  16.401 -0.0519  0.1717 -1.2686
17120TIP3   OH272850   5.147   5.972   1.164 -0.2927 -0.0511 -0.4659
17120TIP3    H172851   5.105   5.887   1.149 -0.0921 -0.5974  1.7652
17120TIP3    H272852   5.087   6.036   1.125 -1.7650 -1.0243  0.1405
17121TIP3   OH272853   2.624   3.699  13.874 -0.2231  0.5051 -0.1787
17121TIP3    H172854   2.635   3.718  13.781  0.5508  1.4536  0.0952
17121TIP3    H272855   2.530   3.680  13.883 -0.4908  1.3264 -1.0020
17122TIP3   OH272856   0.109   1.764  14.908 -0.2327 -0.3266  0.0554
17122TIP3    H172857   0.109   1.851  14.948  1.0290 -0.7391  1.0407
17122TIP3    H272858   0.025   1.725  14.932 -1.8650  1.4085 -2.3507
17123TIP3   OH272859   5.125   1.291  11.766 -0.0996  0.0202 -0.3860
17123TIP3    H172860   5.183   1.248  11.703 -0.2439  0.0901 -0.5674
17123TIP3    H272861   5.106   1.376  11.728 -1.4140 -0.5191 -0.9949
17124TIP3   OH272862   2.870   1.266   0.014  0.4251 -0.1058  0.0282
17124TIP3    H172863   2.871   1.225   0.100 -2.0578  0.4627  0.4063
17124TIP3    H272864   2.959   1.299   0.002  1.1962 -1.4226  1.7449
17125TIP3   OH272865   4.193   2.249   0.584  0.4662  0.2064 -0.4291
17125TIP3    H172866   4.263   2.215   0.640 -0.1881 -0.2527  0.1379
17125TIP3    H272867   4.117   2.255   0.642  0.5469  2.7460 -0.4883
17126TIP3   OH272868   3.106   1.591  12.084 -0.3507 -0.0118  0.3037
17126TIP3    H172869   3.065   1.531  12.146  0.1101 -0.4558  0.1896
17126TIP3    H272870   3.196   1.601  12.116 -0.4119  0.5790  0.2912
17127TIP3   OH272871   0.692   1.393   2.484 -0.4092  0.2993  0.2576
17127TIP3    H172872   0.777   1.352   2.499 -0.6774 -0.0216  0.9490
17127TIP3    H272873   0.642   1.327   2.436  0.1727  1.0095 -1.3822
17128TIP3   OH272874   4.599   5.107  12.361  0.1050 -0.9034  0.4033
17128TIP3    H172875   4.618   5.092  12.269 -0.3698 -0.6692  0.2693
17128TIP3    H272876   4.548   5.188  12.363  0.0952 -0.9163  0.8681
17129TIP3   OH272877   4.799   3.321  13.377 -0.2472 -0.2308 -0.0928
17129TIP3    H172878   4.759   3.264  13.443  0.8949 -0.5646  0.3296
17129TIP3    H272879   4.755   3.297  13.296  1.4244 -3.0984 -0.3019
17130TIP3   OH272880   6.791   1.129  12.960 -0.4575 -0.7286 -0.0017
17130TIP3    H172881   6.707   1.137  12.916 -0.2452  1.2888 -0.1140
17130TIP3    H272882   6.853   1.176  12.903  0.1031  0.6505  1.6569
17131TIP3   OH272883   6.153   2.191   0.689 -0.1115  0.0693  0.1592
17131TIP3    H172884   6.236   2.152   0.715  0.4760  1.4479  0.3882
17131TIP3    H272885   6.158   2.282   0.717 -1.7181  0.1783  0.2212
17132TIP3   OH272886   1.600   0.310   0.895  0.0958  0.0830  0.3003
17132TIP3    H172887   1.638   0.224   0.878  0.2695  0.4163 -1.1679
17132TIP3    H272888   1.656   0.371   0.847  0.6924  1.1779  2.2944
17133TIP3   OH272889   6.562   5.044  11.958 -0.2671 -0.0019  0.4739
17133TIP3    H172890   6.525   5.131  11.972  2.8619  1.5008  0.3006
17133TIP3    H272891   6.519   4.989  12.024 -4.0545  0.9746 -0.9189
17134TIP3   OH272892   3.142   5.855   1.738  0.4728  0.0086 -0.2289
17134TIP3    H172893   3.082   5.884   1.807 -0.0852 -0.2970 -0.5796
17134TIP3    H272894   3.086   5.838   1.663  1.0740  0.3025 -0.7511
17135TIP3   OH272895   5.008   3.829   2.460  0.3264  0.4224 -0.7637
17135TIP3    H172896   5.042   3.765   2.398  0.4385 -2.1034  1.6887
17135TIP3    H272897   5.080   3.891   2.473  1.1096 -0.3132 -1.4568
17136TIP3   OH272898   5.080   6.047   3.043  0.3305 -0.0887  0.8502
17136TIP3    H172899   5.036   6.131   3.055  0.6301  0.0186  1.2029
17136TIP3    H272900   5.009   5.983   3.044  0.0769  0.1784  0.3394
17137TIP3   OH272901   6.510   4.496  13.848 -0.2076 -0.5587  0.2026
17137TIP3    H172902   6.544   4.458  13.929  0.0072  0.1869  0.4703
17137TIP3    H272903   6.436   4.550  13.876 -2.0224 -2.5832 -0.4285
17138TIP3   OH272904   6.247   6.388  17.028  0.4961 -0.4002  0.4682
17138TIP3    H172905   6.332   6.344  17.032 -0.2920 -2.0435  0.1935
17138TIP3    H272906   6.212   6.381  17.117  0.0344 -1.0422  0.2403
17139TIP3   OH272907   1.606   3.177  13.383 -0.3987 -0.0081 -0.1377
17139TIP3    H172908   1.697   3.169  13.411 -0.3866  1.7343  0.4498
17139TIP3    H272909   1.587   3.094  13.339  1.4818 -0.3782 -0.3366
17140TIP3   OH272910   4.451   5.028   1.016 -0.0490  0.0662  0.1022
17140TIP3    H172911   4.371   4.986   1.049  0.8741 -1.7871  0.1523
17140TIP3    H272912   4.420   5.094   0.955 -1.6618  0.3824  1.1899
17141TIP3   OH272913   2.960   3.547   1.423 -0.0256  0.6042 -0.2086
17141TIP3    H172914   2.906   3.558   1.345  0.9893  2.9132 -0.6798
17141TIP3    H272915   3.001   3.633   1.436 -2.5625  1.4375  4.7024
17142TIP3   OH272916   0.991   2.746   6.334 -0.3241 -0.3480 -0.4313
17142TIP3    H172917   0.978   2.691   6.411  0.0152 -1.2333 -0.9934
17142TIP3    H272918   1.083   2.732   6.310 -0.1952  0.5788 -0.5001
17143TIP3   OH272919   5.730   2.275   0.813 -0.0905 -0.1655  0.2983
17143TIP3    H172920   5.754   2.351   0.760 -2.0669 -0.7750 -1.6702
17143TIP3    H272921   5.706   2.208   0.748 -0.3973 -1.7551  1.9799
17144TIP3   OH272922   3.175   1.854  14.486 -0.4807 -0.1265  0.3441
17144TIP3    H172923   3.195   1.760  14.484 -2.3352 -0.5508 -0.0886
17144TIP3    H272924   3.250   1.896  14.444  0.7720 -1.3220  1.3010
17145TIP3   OH272925   1.434   5.745   3.338  0.0518 -0.4009  0.5963
17145TIP3    H172926   1.441   5.695   3.420 -1.7395  1.6056  2.0771
17145TIP3    H272927   1.443   5.836   3.365 -0.3655  0.3008 -1.5081
17146TIP3   OH272928   0.933   0.979  12.550 -0.0838  0.4874 -0.1138
17146TIP3    H172929   0.855   0.930  12.524  0.1745 -0.6605  1.1679
17146TIP3    H272930   0.956   0.945  12.637  2.3255  0.1990 -0.7941
17147TIP3   OH272931   0.221   6.309  13.346  0.1764 -0.0752  0.2910
17147TIP3    H172932   0.314   6.305  13.368  0.0777  1.0675  0.9609
17147TIP3    H272933   0.216   6.374  13.276 -0.3837  1.8025  1.9797
17148TIP3   OH272934   2.942   3.881  16.077  0.7046 -0.5411  0.2106
17148TIP3    H172935   2.860   3.852  16.116  0.0202  1.4295  0.3750
17148TIP3    H272936   2.915   3.929  15.999  1.5763  1.0396  0.8261
17149TIP3   OH272937   2.202   0.859   6.146 -0.2974  0.4108 -0.0172
17149TIP3    H172938   2.238   0.930   6.200 -1.0617  0.1026  0.9435
17149TIP3    H272939   2.115   0.844   6.183 -0.5548 -0.3127 -0.8931
17150TIP3   OH272940   5.059   1.527  12.182 -0.2276 -0.1294  0.4547
17150TIP3    H172941   5.084   1.457  12.243  0.3531 -0.6132 -0.3126
17150TIP3    H272942   5.083   1.493  12.096  0.3842  1.1559  0.0935
17151TIP3   OH272943   4.298   4.044  11.916  0.4269  0.2476 -0.0940
17151TIP3    H172944   4.278   4.036  11.823  2.9134 -1.2509 -0.5986
17151TIP3    H272945   4.390   4.071  11.918  0.5769 -0.2683  1.8973
17152TIP3   OH272946   5.773   3.252  11.907 -0.2849 -0.0251  0.0299
17152TIP3    H172947   5.741   3.341  11.898  2.8004  1.1290 -0.7246
17152TIP3    H272948   5.705   3.197  11.868 -0.5153  2.3613 -3.2981
17153TIP3   OH272949   2.125   5.808  15.486  0.1470 -0.3639  0.3824
17153TIP3    H172950   2.096   5.754  15.413 -0.2173  0.7730 -0.3254
17153TIP3    H272951   2.046   5.822  15.538  0.3746 -1.0400  0.9370
17154TIP3   OH272952   0.082   4.767  14.161  0.1456  0.1593  0.2107
17154TIP3    H172953   0.041   4.760  14.075 -0.2109 -0.4081  0.4133
17154TIP3    H272954   0.165   4.721  14.152  0.1965  0.2735  0.1121
17155TIP3   OH272955   0.049   5.365  15.526 -0.0039  0.2913 -0.0469
17155TIP3    H172956   0.031   5.291  15.584 -0.5566  0.2631 -0.2494
17155TIP3    H272957  -0.037   5.391  15.494  0.0110  1.8583  1.0506
17156TIP3   OH272958   3.682   4.912  13.005  0.5487 -0.3802 -0.2134
17156TIP3    H172959   3.711   4.947  12.920  1.1959 -0.2219  0.0659
17156TIP3    H272960   3.713   4.821  13.005 -0.4784 -0.7470 -0.6261
17157TIP3   OH272961   0.809   5.816  11.271 -0.6273  0.4801  0.7217
17157TIP3    H172962   0.717   5.796  11.286  0.1620 -1.5972  3.6938
17157TIP3    H272963   0.856   5.754  11.326  2.6414  0.5322 -1.7213
17158TIP3   OH272964   1.196   1.076  13.378  0.0707 -0.2908 -0.1202
17158TIP3    H172965   1.215   1.046  13.466  1.1933 -2.0436 -0.9152
17158TIP3    H272966   1.149   1.159  13.390  0.3150 -0.4352  2.0892
17159TIP3   OH272967   6.070   6.049   1.047 -0.7045  0.3059  0.2627
17159TIP3    H172968   6.056   6.143   1.036 -3.9195  0.2003  2.0877
17159TIP3    H272969   6.032   6.010   0.968 -3.0589  0.4918  1.1981
17160TIP3   OH272970   2.201   1.051   6.345 -0.4228 -0.2299 -0.5411
17160TIP3    H172971   2.277   1.108   6.353 -0.0374 -0.3215 -2.9560
17160TIP3    H272972   2.134   1.106   6.303 -1.2191 -0.5965  0.1963
17161TIP3   OH272973   4.220   1.080   2.690  0.1820  0.1077 -0.8082
17161TIP3    H172974   4.303   1.076   2.738  0.2520 -0.7170 -0.9871
17161TIP3    H272975   4.227   1.011   2.624 -0.4199  0.4069 -1.1910
17162TIP3   OH272976   1.836   4.532  11.166 -0.4268  0.0103 -0.0626
17162TIP3    H172977   1.815   4.622  11.145 -0.2499  0.5621  1.9309
17162TIP3    H272978   1.932   4.531  11.174 -0.0436 -1.1679 -3.3504
17163TIP3   OH272979   0.116   0.262  14.652 -0.2195 -0.2019  0.1308
17163TIP3    H172980   0.210   0.275  14.669 -0.4681  0.0133  1.5313
17163TIP3    H272981   0.081   0.231  14.736 -1.6282  0.9997  0.0268
17164TIP3   OH272982   0.330   0.143   0.618  0.1134 -0.5235 -0.2919
17164TIP3    H172983   0.324   0.050   0.640  0.0641 -0.7586 -1.2866
17164TIP3    H272984   0.352   0.145   0.525 -0.6067  0.4620 -0.4594
17165TIP3   OH272985   4.787   4.004   2.358 -0.3775  0.1637  0.0928
17165TIP3    H172986   4.828   4.090   2.367  3.0874 -0.6142 -4.3332
17165TIP3    H272987   4.837   3.947   2.417 -0.6138  0.6116  0.7377
17166TIP3   OH272988   2.825   3.536  16.176 -0.6425 -0.2194 -0.3803
17166TIP3    H172989   2.794   3.625  16.190  0.7678  0.0576  1.3458
17166TIP3    H272990   2.750   3.490  16.140 -1.5917  1.4981 -0.7060
17167TIP3   OH272991   4.807   6.162   1.566  0.0384  0.1789 -0.4570
17167TIP3    H172992   4.750   6.197   1.497 -0.1561 -0.3961 -0.5959
17167TIP3    H272993   4.889   6.141   1.521  0.2098  0.6119 -0.3422
17168TIP3   OH272994   1.008   2.223  11.390  0.0502  0.0716 -0.0789
17168TIP3    H172995   0.951   2.257  11.459  0.2497  0.0169  0.1174
17168TIP3    H272996   0.948   2.197  11.320 -0.2076 -0.4217  0.3135
17169TIP3   OH272997   3.053   4.163  16.551 -0.6815 -0.3691  0.1684
17169TIP3    H172998   2.983   4.169  16.485 -1.6859  2.8642  1.3486
17169TIP3    H272999   3.037   4.237  16.610  2.9853 -0.2779  1.2834
17170TIP3   OH273000   6.235   0.466   2.206  0.2499  0.1030  0.0822
17170TIP3    H173001   6.212   0.555   2.180 -0.1664  0.5512  1.8464
17170TIP3    H273002   6.320   0.475   2.249 -0.2889 -0.1463  1.2427
17171TIP3   OH273003   5.747   4.707  13.661  0.2831  0.1578  0.2179
17171TIP3    H173004   5.817   4.670  13.607  1.3597  0.7636  1.1416
17171TIP3    H273005   5.744   4.799  13.636  0.5155  0.3528  0.8741
17172TIP3   OH273006   3.188   1.721  12.612  0.0053  0.2719  0.1540
17172TIP3    H173007   3.273   1.730  12.656 -0.2249 -1.2553  0.9913
17172TIP3    H273008   3.124   1.742  12.680 -0.3029  0.4042 -0.1788
17173TIP3   OH273009   6.268   1.845   6.072 -0.1460 -0.5554 -0.2155
17173TIP3    H173010   6.315   1.872   6.151  1.5127 -1.3996 -0.8693
17173TIP3    H273011   6.213   1.772   6.102 -0.0489 -0.4223  0.3040
17174TIP3   OH273012   3.611   6.372   0.264 -0.4196  0.0781  0.2169
17174TIP3    H173013   3.586   6.427   0.339  1.3462  0.9260  0.2379
17174TIP3    H273014   3.689   6.326   0.293 -1.0136 -1.3367 -0.3476
17175TIP3   OH273015   0.210   5.335  16.330 -0.1426  0.3107  0.2376
17175TIP3    H173016   0.125   5.333  16.373 -0.7497  1.1779 -0.8645
17175TIP3    H273017   0.231   5.243  16.312 -3.2588  0.0910 -3.9530
17176TIP3   OH273018   3.356   1.840   3.215 -0.4378 -0.6975  0.2679
17176TIP3    H173019   3.354   1.772   3.148 -2.2831 -2.6615  2.1626
17176TIP3    H273020   3.414   1.805   3.283  0.5478  0.7712  0.2170
17177TIP3   OH273021   0.754   0.129  12.730 -0.1452 -0.0936 -0.1658
17177TIP3    H173022   0.834   0.097  12.689 -1.0593 -0.2569 -1.9368
17177TIP3    H273023   0.755   0.091  12.818 -0.0215 -3.0858 -1.3611
17178TIP3   OH273024   5.861   1.148   0.038 -0.1360  0.0867  0.1373
17178TIP3    H173025   5.855   1.125  -0.055  0.2609 -3.0155  0.7613
17178TIP3    H273026   5.945   1.112   0.066 -0.1656  1.1317  1.7005
17179TIP3   OH273027   5.295   0.706  14.500 -0.8879  0.0160  0.6989
17179TIP3    H173028   5.219   0.663  14.461 -1.3253  0.7910  0.6740
17179TIP3    H273029   5.298   0.673  14.590 -1.6677  0.5003  0.9122
17180TIP3   OH273030   5.248   6.707  12.352  0.4002 -0.3554  0.5776
17180TIP3    H173031   5.192   6.763  12.405 -0.4326 -0.2418 -0.4019
17180TIP3    H273032   5.289   6.767  12.289  1.0882 -0.5462  0.8302
17181TIP3   OH273033   4.736   1.620  16.654 -0.1664 -0.7084 -0.0352
17181TIP3    H173034   4.759   1.639  16.745  2.0815 -1.2963 -0.4314
17181TIP3    H273035   4.661   1.677  16.636  0.0502  0.2415  1.8235
17182TIP3   OH273036   3.136   5.176  14.415 -0.5574  0.0974  0.1292
17182TIP3    H173037   3.053   5.198  14.457 -0.1691  0.6360  0.6308
17182TIP3    H273038   3.191   5.254  14.427  0.1954 -0.4434  0.2536
17183TIP3   OH273039   0.264   4.871   4.504 -0.3902 -0.5040 -0.3722
17183TIP3    H173040   0.291   4.792   4.456  0.4212 -0.4068 -0.0948
17183TIP3    H273041   0.252   4.937   4.436  0.9212 -0.3189 -0.4458
17184TIP3   OH273042   6.321   5.987  12.545 -0.4995 -0.8164 -0.1307
17184TIP3    H173043   6.348   6.079  12.544  3.3080 -1.7639  0.8003
17184TIP3    H273044   6.296   5.970  12.635  1.2092 -1.2315  0.2939
17185TIP3   OH273045   6.469   0.872   5.589  0.1700 -0.1037  0.0474
17185TIP3    H173046   6.534   0.808   5.561  0.6885  0.0425  0.8964
17185TIP3    H273047   6.479   0.945   5.528  1.3325  0.2395  0.6127
17186TIP3   OH273048   0.032   3.920  12.872  0.1700 -0.1356 -0.2692
17186TIP3    H173049   0.104   3.866  12.903  0.4888  1.2331  1.5826
17186TIP3    H273050  -0.047   3.879  12.907  0.2392 -0.4616 -0.4987
17187TIP3   OH273051   2.017   4.261   2.506 -0.2914  0.1427 -0.0673
17187TIP3    H173052   2.002   4.291   2.595  0.6541  0.6767 -0.0662
17187TIP3    H273053   2.110   4.279   2.490 -0.4245 -0.0173 -1.1312
17188TIP3   OH273054   2.996   6.229  11.801 -0.5678 -0.5400  0.0803
17188TIP3    H173055   2.996   6.325  11.807 -1.5812 -0.5202 -0.1774
17188TIP3    H273056   3.068   6.202  11.859 -0.4546  0.3584  0.3751
17189TIP3   OH273057   3.067   4.644  14.202 -0.2174  0.1861 -0.6198
17189TIP3    H173058   3.109   4.694  14.272 -1.5859 -0.3078  0.6142
17189TIP3    H273059   2.990   4.697  14.179 -0.0853  0.0622 -1.3752
17190TIP3   OH273060   1.245   0.845  16.359  0.3239  0.1952 -0.4914
17190TIP3    H173061   1.274   0.931  16.390 -1.9592  1.1027 -0.6833
17190TIP3    H273062   1.309   0.783  16.395  1.4879  1.8696  0.4327
17191TIP3   OH273063   2.356   1.811  11.393 -0.5961  0.4999 -0.0905
17191TIP3    H173064   2.443   1.787  11.426  0.2545 -1.0886 -3.1640
17191TIP3    H273065   2.296   1.758  11.446  0.1512  1.9570  2.3999
17192TIP3   OH273066   4.209   0.897   0.973  0.4191  0.0193  0.3680
17192TIP3    H173067   4.301   0.895   0.945  0.2245 -1.3403 -0.2524
17192TIP3    H273068   4.171   0.819   0.934 -1.1558  0.8773  0.1202
17193TIP3   OH273069   2.690   2.873  16.633  0.1614 -0.1321  0.0140
17193TIP3    H173070   2.775   2.828  16.633  0.0218 -0.4105  0.7548
17193TIP3    H273071   2.697   2.936  16.561  1.9862  1.6742  1.6272
17194TIP3   OH273072   3.493   0.100   3.633 -0.3183 -0.0879 -0.7295
17194TIP3    H173073   3.406   0.105   3.672  0.2969  0.8257  0.6064
17194TIP3    H273074   3.511   0.006   3.626 -0.3147 -0.3178  1.5884
17195TIP3   OH273075   6.431   5.078   3.838 -0.0019 -0.0264 -0.6408
17195TIP3    H173076   6.495   5.149   3.838  0.0582 -0.0681 -1.6081
17195TIP3    H273077   6.475   5.007   3.884  0.2182  0.3177 -0.3118
17196TIP3   OH273078   0.161   5.374  13.659 -0.3966  0.0157 -0.2656
17196TIP3    H173079   0.191   5.406  13.745  0.3763  1.4323 -1.0160
17196TIP3    H273080   0.240   5.339  13.618 -0.9757 -1.6503 -0.0072
17197TIP3   OH273081   2.345   2.266   1.806  0.1107 -0.0379  0.1834
17197TIP3    H173082   2.379   2.267   1.896  0.0706 -0.4463  0.2092
17197TIP3    H273083   2.416   2.228   1.754  0.5264  1.1436 -0.1386
17198TIP3   OH273084   0.378   1.683  15.008  0.1690  0.2223  0.1096
17198TIP3    H173085   0.440   1.682  14.935  1.6600  0.6228  1.3281
17198TIP3    H273086   0.292   1.694  14.966  1.0277  0.9789 -1.5502
17199TIP3   OH273087   6.198   1.804  13.906 -0.4252 -0.2182 -0.1486
17199TIP3    H173088   6.146   1.727  13.882 -0.1271  0.1959 -2.2857
17199TIP3    H273089   6.136   1.860  13.952 -1.1621 -0.8964 -0.2806
17200TIP3   OH273090   4.501   4.091  16.674 -0.4422 -0.2228  0.1916
17200TIP3    H173091   4.503   4.183  16.700 -1.2862 -0.4199  1.0129
17200TIP3    H273092   4.508   4.093  16.579 -2.4910  0.8353 -0.0104
17201TIP3   OH273093   5.692   6.190   1.267  0.0728  0.5459 -0.5225
17201TIP3    H173094   5.708   6.279   1.235 -0.3638  0.6068 -0.5712
17201TIP3    H273095   5.597   6.180   1.265  0.0974  0.2165 -0.1386
17202TIP3   OH273096   0.011   3.354  10.636 -0.1113  0.0335  0.0386
17202TIP3    H173097   0.103   3.351  10.610 -0.0909  0.4013  0.0630
17202TIP3    H273098  -0.017   3.442  10.612  0.1516  0.7131  2.0418
17203TIP3   OH273099   3.907   0.684   1.837  0.4434  0.9294 -0.0590
17203TIP3    H173100   3.886   0.660   1.747  1.0358  0.9374 -0.2012
17203TIP3    H273101   3.847   0.633   1.890  0.8589  0.0600 -0.4114
17204TIP3   OH273102   6.058   5.015  12.665 -0.2742 -0.0272 -0.5779
17204TIP3    H173103   6.003   5.075  12.615  0.7740  0.6543 -0.9212
17204TIP3    H273104   6.088   5.066  12.740 -0.7757 -0.6550  0.0656
17205TIP3   OH273105   2.470   0.116   5.808 -0.3962  0.7449 -0.3106
17205TIP3    H173106   2.506   0.199   5.777  1.7972 -0.6183 -1.6467
17205TIP3    H273107   2.495   0.112   5.901  1.3509  0.6844 -0.7518
17206TIP3   OH273108   5.591   0.814   6.223 -0.3302  0.1831  1.2017
17206TIP3    H173109   5.633   0.732   6.246  0.4228  0.4873  0.9226
17206TIP3    H273110   5.507   0.788   6.184 -0.3814 -0.4209  1.7065
17207TIP3   OH273111   5.744   1.476  12.320  0.7349  0.2109 -0.3334
17207TIP3    H173112   5.803   1.494  12.247  0.4050 -0.6968 -0.8377
17207TIP3    H273113   5.704   1.392  12.299 -0.0805  0.3857  0.4298
17208TIP3   OH273114   0.670   5.843  15.659 -0.4739  0.5614  0.0698
17208TIP3    H173115   0.688   5.888  15.741 -0.2866  1.8030 -0.6353
17208TIP3    H273116   0.676   5.750  15.681  1.9584  0.8630  0.9525
17209TIP3   OH273117   3.746   4.073   2.617  0.6797  0.6303  0.3199
17209TIP3    H173118   3.838   4.100   2.616  0.9602 -0.2715 -0.5156
17209TIP3    H273119   3.743   4.003   2.682  1.3126 -1.5424 -1.8383
17210TIP3   OH273120   5.059   0.640  12.461 -0.3848 -0.9991 -0.1282
17210TIP3    H173121   5.076   0.547  12.474  1.6371 -0.5384  0.8492
17210TIP3    H273122   5.142   0.676  12.430 -0.9604  0.5865  0.0643
17211TIP3   OH273123   6.423   4.575   4.529 -0.2881 -0.5361  0.0851
17211TIP3    H173124   6.367   4.621   4.466  0.7539  0.6216 -0.0233
17211TIP3    H273125   6.367   4.563   4.606 -0.9792 -0.2485 -0.3591
17212TIP3   OH273126   6.692   4.593  14.290  0.3042 -0.4719  0.0774
17212TIP3    H173127   6.718   4.579  14.381 -1.5907 -0.0094  0.7369
17212TIP3    H273128   6.758   4.652  14.254 -0.8315  2.3154  2.2428
17213TIP3   OH273129   3.960   3.237  16.360 -0.5213 -0.3825  0.1674
17213TIP3    H173130   3.947   3.263  16.451  1.3242  0.5978  0.2091
17213TIP3    H273131   4.016   3.160  16.365 -1.7203 -1.2893 -0.1101
17214TIP3   OH273132   2.493   5.633   0.581 -0.0523 -0.1515  0.3384
17214TIP3    H173133   2.582   5.637   0.546 -0.2383  1.9014 -0.0469
17214TIP3    H273134   2.440   5.600   0.509  0.2313 -0.2005  0.1512
17215TIP3   OH273135   2.210   0.246  15.655  0.6242 -0.0827 -0.0222
17215TIP3    H173136   2.222   0.219  15.564 -0.0923 -0.8157  0.0940
17215TIP3    H273137   2.269   0.321  15.665  0.2409  0.4148 -1.2712
17216TIP3   OH273138   5.735   3.645   2.650 -0.5366 -0.3991  0.1906
17216TIP3    H173139   5.793   3.605   2.715  0.4867 -0.2691 -0.6266
17216TIP3    H273140   5.727   3.736   2.677  1.4002  0.1217 -0.8801
17217TIP3   OH273141   2.790   3.475  17.179  0.2435  0.4150  0.0209
17217TIP3    H173142   2.878   3.449  17.205 -0.4087  0.0120  2.0843
17217TIP3    H273143   2.762   3.409  17.116  0.2940 -1.3473  1.7422
17218TIP3   OH273144   2.670   2.223   3.942 -0.4300  0.1477 -0.9126
17218TIP3    H173145   2.744   2.281   3.921  0.9298 -0.7035  1.2187
17218TIP3    H273146   2.710   2.145   3.980 -2.3962 -0.8589 -0.7577
17219TIP3   OH273147   2.466   3.135  16.339 -0.2567 -0.8984 -0.3741
17219TIP3    H173148   2.456   3.040  16.344  2.5603 -1.2077  0.7786
17219TIP3    H273149   2.417   3.168  16.414 -1.2622 -1.4011 -0.7863
17220TIP3   OH273150   5.676   3.865   4.425  0.1752 -0.3005 -0.1142
17220TIP3    H173151   5.632   3.781   4.409  0.2941 -0.2093 -0.9587
17220TIP3    H273152   5.608   3.931   4.410  0.1970 -0.2181  0.1290
17221TIP3   OH273153   0.679   0.997  15.946 -0.5566 -0.0782 -0.1626
17221TIP3    H173154   0.695   0.983  15.853  2.0707 -0.2798  0.2666
17221TIP3    H273155   0.722   0.924  15.990 -0.4206  0.8209  1.2749
17222TIP3   OH273156   3.344   5.915   2.860 -0.2994 -0.1265  0.1900
17222TIP3    H173157   3.302   5.868   2.788  0.9811 -1.0868  0.0260
17222TIP3    H273158   3.411   5.969   2.817  0.2984 -0.5126  0.6205
17223TIP3   OH273159   3.564   3.354   4.240 -0.2424 -0.0333  0.0374
17223TIP3    H173160   3.600   3.338   4.153 -1.5668  1.3655 -0.8122
17223TIP3    H273161   3.484   3.302   4.244 -0.0673 -0.2751  0.5238
17224TIP3   OH273162   1.091   4.653  16.466  0.2019 -0.0645 -0.1261
17224TIP3    H173163   1.178   4.615  16.466  0.3481  0.1127  2.2462
17224TIP3    H273164   1.035   4.587  16.426  1.4188 -0.0453 -1.9881
17225TIP3   OH273165   3.911   1.572  11.288  0.1756 -0.3747 -0.3845
17225TIP3    H173166   3.923   1.662  11.257 -1.4147  0.1582  0.4085
17225TIP3    H273167   3.869   1.527  11.215  1.4909 -0.6468 -0.9928
17226TIP3   OH273168   2.063   0.316   3.617 -0.0271  0.5151  0.1253
17226TIP3    H173169   2.058   0.339   3.710  1.1367  1.9860 -0.1281
17226TIP3    H273170   2.111   0.234   3.615 -0.5961  0.1497  0.8440
17227TIP3   OH273171   1.728   2.819   5.773 -0.4070  0.1735  0.0372
17227TIP3    H173172   1.693   2.903   5.801 -0.4536  0.0138  0.4762
17227TIP3    H273173   1.784   2.839   5.698  0.0779  0.6766  0.5245
17228TIP3   OH273174   6.766   1.251   1.415  0.8522 -0.1402  0.2921
17228TIP3    H173175   6.784   1.166   1.374  0.7844 -0.7616  1.4984
17228TIP3    H273176   6.848   1.299   1.407  0.6027  0.0751 -1.2682
17229TIP3   OH273177   2.858   0.596  12.155 -0.9847  0.3822 -0.3586
17229TIP3    H173178   2.892   0.682  12.178 -0.6006  0.5233 -1.3629
17229TIP3    H273179   2.930   0.536  12.174 -0.9875  0.3855 -0.3383
17230TIP3   OH273180   2.569   2.547   3.717  0.3631 -0.1260 -0.3033
17230TIP3    H173181   2.561   2.573   3.809 -1.7472  1.0150 -0.7501
17230TIP3    H273182   2.506   2.476   3.706  1.3373 -0.9622 -0.6682
17231TIP3   OH273183   5.263   3.863   4.615 -0.3058  0.7229  0.0884
17231TIP3    H173184   5.353   3.859   4.649 -0.4474 -0.5476  0.3581
17231TIP3    H273185   5.213   3.806   4.674 -0.8620 -0.3087 -1.3476
17232TIP3   OH273186   2.865   6.371  14.097  0.4820 -0.3962  0.1536
17232TIP3    H173187   2.946   6.327  14.072  0.3184 -0.9505  0.5836
17232TIP3    H273188   2.851   6.347  14.188  0.1781  0.2321  0.2793
17233TIP3   OH273189   1.093   2.271  16.259  0.2925  0.3082 -0.3823
17233TIP3    H173190   1.082   2.199  16.321 -2.0297  0.6334 -0.3313
17233TIP3    H273191   1.170   2.247  16.207  0.2974 -1.5798  0.4405
17234TIP3   OH273192   3.908   5.114  11.553  0.2538 -0.2849 -0.2816
17234TIP3    H173193   3.835   5.057  11.576 -1.1584  0.0163 -3.4618
17234TIP3    H273194   3.927   5.161  11.634 -1.7301 -1.8110  1.1987
17235TIP3   OH273195   3.267   4.391   2.330 -0.5232 -0.0403  0.1538
17235TIP3    H173196   3.329   4.404   2.257 -2.5518 -0.9344 -1.8516
17235TIP3    H273197   3.304   4.320   2.381  0.6712  0.2150 -0.3270
17236TIP3   OH273198   4.294   5.672   3.066  0.1972 -0.5518  0.9353
17236TIP3    H173199   4.313   5.669   2.973 -0.9784  1.9552  0.5264
17236TIP3    H273200   4.371   5.633   3.108 -0.2873 -4.0360 -1.0703
17237TIP3   OH273201   4.471   0.512   3.737  0.2038  0.1016  0.3243
17237TIP3    H173202   4.452   0.429   3.780 -0.1498 -0.2070 -0.4126
17237TIP3    H273203   4.446   0.578   3.801 -1.2276 -0.3325  0.2649
17238TIP3   OH273204   0.038   2.371   1.041 -0.1042  0.3367  0.2894
17238TIP3    H173205  -0.041   2.425   1.047 -0.6485 -0.5897  2.0619
17238TIP3    H273206   0.018   2.293   1.093  0.8241 -1.3979 -1.7859
17239TIP3   OH273207   1.107   6.608   1.806  0.6817  0.0441  0.5367
17239TIP3    H173208   1.100   6.693   1.849  0.5561  1.2185 -1.6093
17239TIP3    H273209   1.017   6.575   1.804  0.4489  0.6699 -0.0457
17240TIP3   OH273210   4.466   5.168  16.486  0.0421 -0.3569  0.3775
17240TIP3    H173211   4.382   5.213  16.487  0.7177  0.9580  0.0298
17240TIP3    H273212   4.452   5.092  16.429 -0.3175  1.0984 -1.5938
17241TIP3   OH273213   1.727   3.573   1.282 -0.3929 -0.5135 -0.0413
17241TIP3    H173214   1.780   3.610   1.351  0.3307  0.5200 -1.1177
17241TIP3    H273215   1.769   3.490   1.261 -1.1180 -1.2644  1.3035
17242TIP3   OH273216   6.581   6.449  15.647 -0.0010  0.1861 -0.4656
17242TIP3    H173217   6.531   6.425  15.569  1.2935 -0.7515 -1.0413
17242TIP3    H273218   6.543   6.532  15.675 -2.0603 -0.6099 -0.6918
17243TIP3   OH273219   4.309   4.211   4.115  0.5397  0.2978  0.1532
17243TIP3    H173220   4.321   4.302   4.141 -0.6321  0.0453  1.7521
17243TIP3    H273221   4.224   4.210   4.071  0.3669 -0.0749  0.4874
17244TIP3   OH273222   6.739   1.590  10.341  0.5094  0.1225 -0.2569
17244TIP3    H173223   6.726   1.530  10.268 -0.3454 -0.2053  0.1460
17244TIP3    H273224   6.654   1.632  10.353  0.5706  0.0048  0.6803
17245TIP3   OH273225   5.089   0.777   2.231 -0.3207  0.0169  0.2185
17245TIP3    H173226   5.046   0.850   2.186  0.1047  0.0600 -0.1277
17245TIP3    H273227   5.025   0.706   2.227 -1.2111  0.7105  1.5900
17246TIP3   OH273228   4.952   3.048   0.269 -0.7848 -0.0316 -0.2695
17246TIP3    H173229   4.981   3.055   0.178  0.2681 -0.9640 -0.0258
17246TIP3    H273230   4.860   3.075   0.267 -0.3697  1.4420 -1.3451
17247TIP3   OH273231   1.704   6.658   4.937  0.1463  0.2613  0.0119
17247TIP3    H173232   1.766   6.707   4.991  1.4222  1.2637 -2.2200
17247TIP3    H273233   1.625   6.711   4.937 -0.6845 -0.8318  2.5613
17248TIP3   OH273234   5.463   4.966   6.294 -0.9175  0.0778  0.6476
17248TIP3    H173235   5.372   4.937   6.288 -0.5727 -0.7685 -1.0780
17248TIP3    H273236   5.512   4.905   6.239  0.6657  0.7148  1.2697
17249TIP3   OH273237   1.760   3.773  10.906 -0.3009  0.5914  0.2717
17249TIP3    H173238   1.684   3.818  10.867 -1.5484 -1.5147  0.1392
17249TIP3    H273239   1.816   3.753  10.832 -0.3667  0.7676  0.1719
17250TIP3   OH273240   2.554   2.283  13.244 -0.4138  0.5244 -0.1128
17250TIP3    H173241   2.468   2.315  13.219 -0.8762 -0.2445  0.4653
17250TIP3    H273242   2.591   2.353  13.299 -0.7434  0.7715 -0.2067
17251TIP3   OH273243   0.525   6.720   2.834  0.0356 -0.2678  0.0369
17251TIP3    H173244   0.619   6.703   2.839 -0.1739 -1.1209  2.4697
17251TIP3    H273245   0.495   6.662   2.764  1.3762  0.5430 -1.2820
17252TIP3   OH273246   0.297   5.477   0.037 -0.1269 -0.0719  0.6540
17252TIP3    H173247   0.305   5.570   0.016 -0.5221 -0.4858 -1.5130
17252TIP3    H273248   0.227   5.473   0.102  0.8259  1.2478  1.8248
17253TIP3   OH273249   3.094   5.848  13.996  0.4572 -0.2609 -0.0687
17253TIP3    H173250   3.120   5.763  13.960  0.8118 -0.5719  0.8778
17253TIP3    H273251   3.004   5.835  14.027  0.6770 -0.4485  0.5140
17254TIP3   OH273252   1.757   1.626   5.349 -0.4481  0.1781 -0.3031
17254TIP3    H173253   1.720   1.703   5.305 -3.3503 -1.5928 -1.2694
17254TIP3    H273254   1.749   1.555   5.285  2.2711 -0.9747  0.4875
17255TIP3   OH273255   2.500   0.130  17.201 -0.9834  0.2631  0.8362
17255TIP3    H173256   2.433   0.061  17.200 -0.9596  0.2482  0.3864
17255TIP3    H273257   2.488   0.173  17.286 -0.9603 -0.3313  1.1439
17256TIP3   OH273258   4.690   4.628  11.772  0.7999  0.1625 -0.2725
17256TIP3    H173259   4.785   4.619  11.772  0.8451  0.5309  0.4462
17256TIP3    H273260   4.659   4.553  11.823  0.5083 -1.4388 -2.6402
17257TIP3   OH273261   1.613   3.135  14.435 -0.0614  0.0679 -0.4592
17257TIP3    H173262   1.660   3.147  14.518 -1.1355  0.6381  0.0954
17257TIP3    H273263   1.640   3.049  14.404  0.9145  0.1495  0.1093
17258TIP3   OH273264   5.274   3.469  12.746  0.3943  0.4529  0.6533
17258TIP3    H173265   5.297   3.534  12.679 -1.2598  0.5979  0.1759
17258TIP3    H273266   5.287   3.514  12.829 -0.8419  1.4629  0.3237
17259TIP3   OH273267   2.849   1.997   5.051  0.5172  0.4870  0.2561
17259TIP3    H173268   2.808   1.948   4.980 -2.6725  0.5896  1.8732
17259TIP3    H273269   2.869   1.931   5.117  2.6761  0.5181 -0.2785
17260TIP3   OH273270   4.781   2.388  14.601  0.4583  0.9786  0.0482
17260TIP3    H173271   4.764   2.455  14.667 -0.8004  0.8572 -0.1193
17260TIP3    H273272   4.696   2.346  14.587  0.4770  1.5869 -2.2835
17261TIP3   OH273273   0.390   1.823   2.983 -0.3142  0.3121  0.7254
17261TIP3    H173274   0.436   1.808   3.066 -0.0968 -0.4529  0.4748
17261TIP3    H273275   0.422   1.753   2.925 -0.2279  1.0169 -0.1011
17262TIP3   OH273276   0.932   2.405   5.746  0.4617  0.0342 -0.1884
17262TIP3    H173277   0.943   2.354   5.826  0.3754 -1.8661 -1.3164
17262TIP3    H273278   0.883   2.482   5.773  1.3003 -0.0646  1.7520
17263TIP3   OH273279   3.612   3.084  10.949  0.2006 -0.1425  0.2462
17263TIP3    H173280   3.643   2.994  10.941  1.4940  0.2784  0.3872
17263TIP3    H273281   3.688   3.133  10.978 -0.7980  0.7966  1.3678
17264TIP3   OH273282   3.299   5.205  13.285  0.3253  0.2644  0.1890
17264TIP3    H173283   3.314   5.291  13.245 -1.9718  0.1432 -1.1310
17264TIP3    H273284   3.247   5.224  13.363 -0.6534  0.0584 -0.4029
17265TIP3   OH273285   4.347   1.018  16.092  0.0018 -0.0009 -0.2575
17265TIP3    H173286   4.371   1.035  16.183 -2.0445  0.9009  0.1774
17265TIP3    H273287   4.298   0.936  16.095  3.0790 -2.0638 -1.1895
17266TIP3   OH273288   6.108   2.980   4.060  1.1538  0.4801 -0.0934
17266TIP3    H173289   6.080   2.951   4.147 -1.7643  1.5967 -0.5524
17266TIP3    H273290   6.105   3.075   4.064  0.8284  0.5508 -1.4504
17267TIP3   OH273291   6.363   2.035   3.945  0.7413 -0.5792  0.0371
17267TIP3    H173292   6.452   2.067   3.931  0.5469  0.2463  0.6284
17267TIP3    H273293   6.370   1.975   4.019  1.1680 -2.2537 -1.2935
17268TIP3   OH273294   0.948   3.574  16.156  0.4439 -0.1422 -0.3678
17268TIP3    H173295   0.951   3.523  16.075 -0.3376  0.3011 -0.6952
17268TIP3    H273296   1.034   3.562  16.196  0.5609 -1.0164 -0.8639
17269TIP3   OH273297   5.446   6.484   2.606  0.1746 -0.3707 -0.4799
17269TIP3    H173298   5.454   6.543   2.680 -1.0279 -1.7572  0.8182
17269TIP3    H273299   5.532   6.443   2.598  0.6287  0.5631 -0.5788
17270TIP3   OH273300   1.859   1.853  14.906 -0.1071 -0.2559  0.1392
17270TIP3    H173301   1.788   1.790  14.915 -0.8600  0.6948  1.1514
17270TIP3    H273302   1.897   1.835  14.820 -1.1485 -1.2113 -0.1407
17271TIP3   OH273303   1.925   5.492  15.684  0.1989  0.4439 -0.5609
17271TIP3    H173304   1.871   5.455  15.754  1.8244 -1.0453 -0.0095
17271TIP3    H273305   1.865   5.549  15.636 -1.2154  0.8178  1.4696
17272TIP3   OH273306   6.809   0.908  17.222 -0.8880  0.5399  0.0205
17272TIP3    H173307   6.734   0.949  17.265 -1.4809  0.8175 -1.2194
17272TIP3    H273308   6.773   0.874  17.140  0.0901 -0.4501 -0.0124
17273TIP3   OH273309   3.089   4.867   3.556 -0.6031  0.3314 -0.4960
17273TIP3    H173310   3.173   4.830   3.583 -0.1835  1.7922  0.3101
17273TIP3    H273311   3.024   4.802   3.582  0.1368 -0.0446  0.4614
17274TIP3   OH273312   3.261   3.784   1.887 -0.0850  0.0890  0.0753
17274TIP3    H173313   3.326   3.743   1.830 -0.5566  0.0625 -0.4400
17274TIP3    H273314   3.312   3.848   1.938 -0.0531  1.9037 -2.1145
17275TIP3   OH273315   4.367   4.419  13.020 -0.0049 -0.5288  0.4801
17275TIP3    H173316   4.379   4.395  12.928  0.1727  0.6827  0.1674
17275TIP3    H273317   4.436   4.482  13.037 -1.5104  1.1275  0.7235
17276TIP3   OH273318   6.731   0.148  12.050 -0.7166  0.1638 -0.6215
17276TIP3    H173319   6.761   0.152  11.959 -1.4051  0.7932 -0.8240
17276TIP3    H273320   6.670   0.221  12.059 -0.8887 -0.0773  0.2633
17277TIP3   OH273321   6.128   3.516  16.882  0.5206 -0.7023 -0.1712
17277TIP3    H173322   6.132   3.436  16.830  0.3644 -1.9751  1.6669
17277TIP3    H273323   6.046   3.507  16.932  0.2522  0.8511 -0.2888
17278TIP3   OH273324   3.929   3.214  13.720  0.4620  0.4313  0.5302
17278TIP3    H173325   3.843   3.220  13.680  0.7117 -2.1850 -0.5706
17278TIP3    H273326   3.979   3.286  13.682  0.1267 -0.8379 -2.5718
17279TIP3   OH273327   0.762   0.039  16.275  0.4785  0.7041  0.3843
17279TIP3    H173328   0.815  -0.040  16.286  0.1147  0.4679  0.4592
17279TIP3    H273329   0.795   0.079  16.194 -1.4976 -1.2580 -1.5123
17280TIP3   OH273330   0.771   0.663   1.608 -0.2756  0.3001  0.2257
17280TIP3    H173331   0.782   0.650   1.703 -1.0292 -0.0755  0.2735
17280TIP3    H273332   0.856   0.640   1.571  0.1168  0.7303  0.8324
17281TIP3   OH273333   1.645   2.440   2.621 -0.2955  0.2303  0.1091
17281TIP3    H173334   1.644   2.530   2.589  0.0127  0.3554  0.4381
17281TIP3    H273335   1.665   2.387   2.544 -0.0093  0.4877  0.0044
17282TIP3   OH273336   5.260   3.611  16.048  0.3273 -0.1495  0.1164
17282TIP3    H173337   5.338   3.641  16.002 -0.3709  1.9375  0.2195
17282TIP3    H273338   5.198   3.591  15.978  0.5363 -0.6879  0.0745
17283TIP3   OH273339   4.877   5.629  12.485  0.2398  0.4228  0.1906
17283TIP3    H173340   4.919   5.706  12.447  2.0252 -0.1633  0.8528
17283TIP3    H273341   4.813   5.602  12.420  0.3866  1.7948 -0.5591
17284TIP3   OH273342   3.306   5.156  15.381  0.0176  1.0715 -0.0134
17284TIP3    H173343   3.305   5.061  15.374 -0.5030  0.4846  4.7053
17284TIP3    H273344   3.396   5.181  15.365  0.6381 -0.5318  0.7639
17285TIP3   OH273345   0.475   2.963   0.285 -0.1187 -0.1696  0.1619
17285TIP3    H173346   0.455   2.984   0.194 -0.6233  0.9984  0.5164
17285TIP3    H273347   0.433   3.033   0.335  0.9067 -0.2905  1.2381
17286TIP3   OH273348   1.326   1.539  13.099  0.1626  0.4427  0.6659
17286TIP3    H173349   1.364   1.571  13.181 -0.1555 -0.4196  1.1651
17286TIP3    H273350   1.367   1.593  13.031  1.6361  0.1291  1.2572
17287TIP3   OH273351   0.131   5.763  15.356  0.2506 -1.1889 -0.3865
17287TIP3    H173352   0.052   5.798  15.397 -0.3271 -1.2685 -1.3924
17287TIP3    H273353   0.195   5.835  15.362  0.0555 -1.0683  0.2836
17288TIP3   OH273354   2.831   3.384   2.061  0.4573 -0.3160  0.1108
17288TIP3    H173355   2.763   3.358   2.000  1.0958  2.0632 -1.7591
17288TIP3    H273356   2.912   3.347   2.025  0.6583 -0.0797  0.3138
17289TIP3   OH273357   6.445   5.346  12.986  0.7793  0.6284  0.4285
17289TIP3    H173358   6.382   5.285  13.024 -0.1254  0.2838 -1.5276
17289TIP3    H273359   6.417   5.432  13.018 -0.4960  0.4451 -0.1443
17290TIP3   OH273360   2.805   2.421   3.615 -0.2946  0.3707  0.5519
17290TIP3    H173361   2.805   2.408   3.520  1.1381  3.3593  0.0126
17290TIP3    H273362   2.746   2.495   3.629  0.9225  1.1688  1.7161
17291TIP3   OH273363   2.330   0.779   4.628 -0.0689  0.3097 -0.6268
17291TIP3    H173364   2.339   0.874   4.617  1.5922  0.0812 -1.4596
17291TIP3    H273365   2.236   0.763   4.620 -0.3601  1.8576 -0.6400
17292TIP3   OH273366   1.167   4.774  14.031  0.1944  0.5161 -0.0448
17292TIP3    H173367   1.207   4.732  13.955 -2.6882  0.5783 -1.7279
17292TIP3    H273368   1.200   4.864  14.030  0.9152  0.2524 -0.6202
17293TIP3   OH273369   6.588   3.323   0.606 -0.1840 -0.1439 -0.4042
17293TIP3    H173370   6.657   3.279   0.557  0.4178 -1.2553  1.3181
17293TIP3    H273371   6.518   3.258   0.612 -0.2147 -0.0594  0.2421
17294TIP3   OH273372   0.770   6.286  15.084  0.1879 -0.4196 -0.7256
17294TIP3    H173373   0.695   6.339  15.112 -0.1752  0.0138 -2.4527
17294TIP3    H273374   0.805   6.250  15.166  0.8823  3.0058  0.6445
17295TIP3   OH273375   4.270   2.118   1.865 -0.1479  0.6768 -0.7284
17295TIP3    H173376   4.310   2.205   1.867 -1.7411  1.4451  0.5772
17295TIP3    H273377   4.250   2.099   1.957 -2.3140  0.1738 -1.2499
17296TIP3   OH273378   1.424   1.859   1.026 -0.3510  0.1051 -0.1903
17296TIP3    H173379   1.451   1.883   0.937  1.7364 -2.7068 -0.4637
17296TIP3    H273380   1.365   1.929   1.053 -0.3493  1.5375 -3.4295
17297TIP3   OH273381   4.747   5.093  13.272 -0.0277 -0.3316 -0.0263
17297TIP3    H173382   4.753   5.187  13.257 -1.7798 -0.6787 -4.3162
17297TIP3    H273383   4.655   5.077  13.292  0.3874 -1.1160  1.3990
17298TIP3   OH273384   0.995   0.047  12.620 -0.2088 -0.1777  0.0809
17298TIP3    H173385   1.048   0.087  12.690 -1.3507  1.6245 -0.0144
17298TIP3    H273386   1.056  -0.009  12.573  1.2873  0.7565  0.8162
17299TIP3   OH273387   1.045   5.144   3.778  0.0083 -0.0883  0.0244
17299TIP3    H173388   1.092   5.149   3.861  0.7008  2.2660 -0.4436
17299TIP3    H273389   0.969   5.201   3.790 -0.1301 -0.0783 -0.8396
17300TIP3   OH273390   6.550   2.328   3.083  0.2607 -0.4532 -0.3143
17300TIP3    H173391   6.635   2.313   3.043  0.4904  0.1637 -0.0727
17300TIP3    H273392   6.493   2.354   3.011  0.6620  0.6193 -0.2533
17301TIP3   OH273393   4.136   5.709  16.285  0.7148 -0.4327  0.2744
17301TIP3    H173394   4.124   5.658  16.205 -1.0251 -0.1161  0.3115
17301TIP3    H273395   4.198   5.777  16.261  0.0003 -0.1756 -0.8846
17302TIP3   OH273396   4.158   1.040  13.991  0.0300 -0.6527 -0.0490
17302TIP3    H173397   4.127   0.950  13.976 -0.6899 -0.6222  1.0763
17302TIP3    H273398   4.250   1.030  14.015 -0.0096 -1.0843 -0.0669
17303TIP3   OH273399   4.718   2.149   1.459  0.3738  0.3331 -0.3236
17303TIP3    H173400   4.703   2.207   1.384  0.2011 -0.4719 -0.9238
17303TIP3    H273401   4.677   2.066   1.434  1.8724 -0.5109 -0.1128
17304TIP3   OH273402   4.064   3.007  16.263 -0.6408 -0.7106  0.2105
17304TIP3    H173403   4.122   2.973  16.331 -0.0785 -2.3769 -1.0386
17304TIP3    H273404   4.068   2.942  16.193 -1.3468  0.8382 -1.3502
17305TIP3   OH273405   4.410   4.304  15.243  0.5359  0.2215  0.2676
17305TIP3    H173406   4.398   4.374  15.178  0.0482  1.1580  1.3330
17305TIP3    H273407   4.505   4.303  15.260  0.6527  0.0364 -0.3765
17306TIP3   OH273408   2.326   0.759  12.002 -0.3088  0.1802  0.2613
17306TIP3    H173409   2.292   0.848  12.003  0.1831  0.3976  2.1875
17306TIP3    H273410   2.421   0.770  12.002 -0.2302 -0.3803 -0.6428
17307TIP3   OH273411   0.771   3.561  11.281 -0.4143  0.4733 -0.0845
17307TIP3    H173412   0.809   3.527  11.200 -0.0461  2.4814 -0.8101
17307TIP3    H273413   0.846   3.598  11.328 -0.8802  0.8684  0.3547
17308TIP3   OH273414   0.579   5.468   6.233 -0.0180 -0.7025 -0.2052
17308TIP3    H173415   0.630   5.528   6.286 -0.9823  1.1484 -1.2420
17308TIP3    H273416   0.642   5.403   6.201  1.2106  0.2022  0.3251
17309TIP3   OH273417   3.779   5.794  15.801 -0.0324  0.5119 -0.2983
17309TIP3    H173418   3.857   5.793  15.746 -0.8385  1.4980 -1.5051
17309TIP3    H273419   3.810   5.764  15.887  1.8463  1.6809 -0.5137
17310TIP3   OH273420   2.605   4.725  11.842  0.3131  0.4686  0.2369
17310TIP3    H173421   2.645   4.752  11.760 -0.6972  0.3096 -0.3231
17310TIP3    H273422   2.517   4.696  11.818  0.2850 -0.3644  1.2562
17311TIP3   OH273423   5.018   3.925  17.196 -0.9818 -0.5905 -0.3208
17311TIP3    H173424   4.990   4.016  17.207 -0.8300 -0.5813  0.0133
17311TIP3    H273425   5.030   3.914  17.102  3.9438  1.2382 -0.1988
17312TIP3   OH273426   3.966   6.511  15.276 -0.8842 -0.1207 -0.1414
17312TIP3    H173427   3.980   6.489  15.368 -0.4760 -1.7896 -0.5707
17312TIP3    H273428   3.895   6.453  15.248 -0.7913  0.1438 -0.9499
17313TIP3   OH273429   1.756   0.656   6.868 -0.7275 -0.0296  0.3033
17313TIP3    H173430   1.748   0.645   6.773 -0.8069  1.0625  0.1797
17313TIP3    H273431   1.773   0.567   6.901  2.1544 -0.0618 -0.9920
17314TIP3   OH273432   5.723   1.686   0.291 -0.1213 -0.1901 -0.3995
17314TIP3    H173433   5.796   1.664   0.234 -1.0516 -1.5931 -1.1284
17314TIP3    H273434   5.659   1.728   0.234 -0.6577 -0.7167 -0.2010
17315TIP3   OH273435   5.595   3.963   1.927  0.2402  0.7416 -0.0548
17315TIP3    H173436   5.608   3.870   1.909  3.3587  0.6182  2.1367
17315TIP3    H273437   5.522   3.965   1.989  0.2239 -0.2546 -0.0197
17316TIP3   OH273438   0.542   0.715   3.700  0.4027  0.4140 -0.1679
17316TIP3    H173439   0.458   0.673   3.682  0.7013  0.2012 -1.1193
17316TIP3    H273440   0.523   0.779   3.769 -0.2505 -0.5904  0.5995
17317TIP3   OH273441   1.398   2.921   4.265  0.0890 -0.4346  0.0108
17317TIP3    H173442   1.476   2.898   4.317  0.1559 -0.6113 -0.1656
17317TIP3    H273443   1.421   3.002   4.220  0.3762 -0.7848 -0.4763
17318TIP3   OH273444   3.557   0.629  17.166 -0.1420 -0.1798  0.2039
17318TIP3    H173445   3.579   0.536  17.170 -0.8363 -0.3990 -0.7283
17318TIP3    H273446   3.485   0.634  17.103  0.6877  1.1322 -0.6919
17319TIP3   OH273447   3.490   3.983   1.668  0.4163  0.2410 -0.3707
17319TIP3    H173448   3.571   3.958   1.623  0.6064 -2.8712  1.4443
17319TIP3    H273449   3.434   4.017   1.598  2.4300  0.3107 -2.0588
17320TIP3   OH273450   5.406   1.529  12.839  0.5208  0.1429  0.2202
17320TIP3    H173451   5.414   1.593  12.768  0.9187 -0.1281  0.0119
17320TIP3    H273452   5.346   1.569  12.901 -0.1275  0.2269 -0.4464
17321TIP3   OH273453   6.620   1.688   0.911 -0.5193 -0.3066 -0.3513
17321TIP3    H173454   6.640   1.660   1.001 -0.2543  0.3060 -0.2089
17321TIP3    H273455   6.535   1.650   0.892 -0.7383 -0.1620  0.2925
17322TIP3   OH273456   4.753   1.498   4.603 -0.7111 -0.1073  0.2082
17322TIP3    H173457   4.723   1.484   4.513  0.5094  0.9699 -0.4078
17322TIP3    H273458   4.828   1.439   4.613  0.2649  1.0177 -0.1300
17323TIP3   OH273459   4.920   0.340  12.279  0.4614  0.4131  0.5824
17323TIP3    H173460   4.956   0.403  12.218  0.3227 -0.9229 -0.9563
17323TIP3    H273461   4.969   0.354  12.360  1.9099  1.0485 -0.3605
17324TIP3   OH273462   2.472   5.948   1.815  0.2608 -0.0224  0.2479
17324TIP3    H173463   2.388   5.945   1.860  0.3530  1.5879  0.5646
17324TIP3    H273464   2.476   6.036   1.777  1.5741 -0.2563 -0.2055
17325TIP3   OH273465   2.689   0.822  16.630  0.4743  0.2744 -0.4982
17325TIP3    H173466   2.651   0.780  16.708 -0.3674  0.2446 -0.9152
17325TIP3    H273467   2.783   0.827  16.649  0.0269  2.5868  1.6301
17326TIP3   OH273468   1.088   4.640   1.195 -0.8325  0.4110  0.0200
17326TIP3    H173469   1.015   4.695   1.223 -1.9513 -1.1518  0.3001
17326TIP3    H273470   1.047   4.566   1.151  0.6678  0.1956 -1.1177
17327TIP3   OH273471   0.113   3.721  14.842 -0.1461 -0.8719  0.5798
17327TIP3    H173472   0.022   3.692  14.847 -0.8308  0.5557 -1.8695
17327TIP3    H273473   0.116   3.800  14.895 -0.8914  0.1686 -0.8590
17328TIP3   OH273474   0.686   6.710   3.236 -0.4404  0.0288 -0.0359
17328TIP3    H173475   0.739   6.642   3.279  1.0820  0.0088 -1.8050
17328TIP3    H273476   0.747   6.782   3.222 -0.1774 -0.7524 -3.9694
17329TIP3   OH273477   3.878   5.748  17.104 -0.0180  1.1327 -0.2761
17329TIP3    H173478   3.874   5.840  17.127 -1.0789  0.9101  0.5329
17329TIP3    H273479   3.819   5.705  17.167  1.5510 -0.2895  0.2952
17330TIP3   OH273480   3.799   6.372  14.912  0.2812  0.1831  0.0490
17330TIP3    H173481   3.720   6.339  14.955 -0.2292  1.9020  0.4747
17330TIP3    H273482   3.819   6.454  14.957  0.8603  1.0471 -1.7008
17331TIP3   OH273483   2.563   0.184  12.413 -0.0648  0.2948 -0.0851
17331TIP3    H173484   2.612   0.262  12.387 -0.5761  0.7685  0.3435
17331TIP3    H273485   2.604   0.158  12.496  0.3118 -0.0854 -0.3861
17332TIP3   OH273486   1.470   5.879  12.087  0.6426 -0.0155  0.0211
17332TIP3    H173487   1.424   5.814  12.140 -0.1133  0.9348  0.5740
17332TIP3    H273488   1.557   5.842  12.073  0.3775 -0.9288  0.7034
17333TIP3   OH273489   3.528   1.615  15.073  0.4130  0.0542 -0.1699
17333TIP3    H173490   3.436   1.590  15.067  0.6218 -0.5760 -0.8696
17333TIP3    H273491   3.577   1.536  15.049  1.1613  0.1713  0.8742
17334TIP3   OH273492   6.465   6.702  15.613 -0.7954 -0.5178 -0.1192
17334TIP3    H173493   6.501   6.789  15.632 -1.6858 -0.0274 -0.6048
17334TIP3    H273494   6.425   6.711  15.526 -2.7469 -0.8189  0.6882
17335TIP3   OH273495   0.561   3.332  15.484 -0.3783 -0.0466 -0.0815
17335TIP3    H173496   0.538   3.417  15.449  0.3885  0.2607  0.1398
17335TIP3    H273497   0.488   3.309  15.542 -0.3220  0.7119  0.2915
17336TIP3   OH273498   4.179   4.110  15.109 -0.2543 -0.0002  0.2768
17336TIP3    H173499   4.236   4.119  15.032  0.4347  1.7371  0.9502
17336TIP3    H273500   4.211   4.175  15.171 -1.9343 -0.1380  1.3512
17337TIP3   OH273501   1.676   0.352  14.841 -0.3237 -0.0392 -0.0666
17337TIP3    H173502   1.722   0.423  14.886 -0.9626 -0.3055  1.0397
17337TIP3    H273503   1.650   0.391  14.757  2.9827 -0.2725 -1.3369
17338TIP3   OH273504   2.947   0.900  12.931  0.4611 -0.4721 -0.2988
17338TIP3    H173505   2.856   0.893  12.901  0.2415 -0.6041  0.3787
17338TIP3    H273506   2.966   0.993  12.927 -0.3112 -0.2148  1.2485
17339TIP3   OH273507   0.413   1.778   0.424 -0.3198  0.4856  0.2773
17339TIP3    H173508   0.489   1.804   0.371  0.7590  0.4460  1.7415
17339TIP3    H273509   0.386   1.859   0.468 -0.6255  0.3220  0.3899
17340TIP3   OH273510   5.620   1.159   3.809 -0.1192 -0.2188  0.0511
17340TIP3    H173511   5.664   1.231   3.854 -0.8114  0.9015 -0.9666
17340TIP3    H273512   5.688   1.116   3.758  0.0744  0.6284 -0.4309
17341TIP3   OH273513   1.841   2.001   5.129  0.3183  0.0438  0.1114
17341TIP3    H173514   1.869   1.977   5.217  1.8502 -0.0926 -0.3801
17341TIP3    H273515   1.833   1.917   5.083  2.4335  0.2085 -0.6750
17342TIP3   OH273516   0.284   0.920   0.598 -0.2758  0.8211  0.4248
17342TIP3    H173517   0.299   0.893   0.507 -0.3912  2.1372 -0.0129
17342TIP3    H273518   0.357   0.977   0.619 -0.6727  1.1711  0.8837
17343TIP3   OH273519   2.346   5.613  11.183 -0.2787  0.4470 -0.3511
17343TIP3    H173520   2.426   5.666  11.180 -1.2853  2.0241 -0.8046
17343TIP3    H273521   2.365   5.538  11.128  1.5999 -0.2988  1.2093
17344TIP3   OH273522   5.435   5.915   4.125  0.2379  0.4165  0.6471
17344TIP3    H173523   5.513   5.885   4.170 -0.4552 -0.1840  1.4827
17344TIP3    H273524   5.367   5.852   4.149  0.6528 -2.6121 -4.5536
17345TIP3   OH273525   4.609   2.829   4.583  0.6711  0.5664  0.1087
17345TIP3    H173526   4.624   2.882   4.504 -1.0768 -0.0968 -0.7327
17345TIP3    H273527   4.521   2.852   4.611  1.4557  1.1817  2.2451
17346TIP3   OH273528   3.423   6.718   0.151 -0.1602 -0.5028  0.3526
17346TIP3    H173529   3.511   6.695   0.121 -0.0806  1.3722 -1.0987
17346TIP3    H273530   3.364   6.680   0.086 -0.1497  1.2020 -0.7409
17347TIP3   OH273531   3.986   0.142   2.325  0.0967  0.4114  0.2125
17347TIP3    H173532   4.026   0.093   2.253 -0.1514  0.1072  0.2821
17347TIP3    H273533   4.034   0.114   2.403  2.0161  2.5294 -0.1236
17348TIP3   OH273534   3.495   3.886  12.435  0.1202 -0.5954 -0.2718
17348TIP3    H173535   3.421   3.920  12.386  0.9410 -0.2625 -1.3264
17348TIP3    H273536   3.537   3.964  12.473  1.7028 -0.3882 -2.2624
17349TIP3   OH273537   0.747   3.502   2.707  0.0742  0.3691  0.1097
17349TIP3    H173538   0.744   3.409   2.683  0.4320 -0.6184  3.3652
17349TIP3    H273539   0.840   3.525   2.700  0.0597  0.3318 -0.2150
17350TIP3   OH273540   5.600   0.911   6.775 -0.6483  0.0264 -0.5455
17350TIP3    H173541   5.644   0.995   6.764  0.0125 -0.1346  0.6621
17350TIP3    H273542   5.635   0.856   6.706  0.7785  0.0264  0.1419
17351TIP3   OH273543   5.604   4.035   3.476 -0.3416  0.7087 -0.4083
17351TIP3    H173544   5.513   4.009   3.466  0.1444 -1.1767 -0.2326
17351TIP3    H273545   5.650   3.955   3.502  1.2426  1.7843  0.2847
17352TIP3   OH273546   4.051   0.176   5.372  0.3251  0.1785 -0.3397
17352TIP3    H173547   4.133   0.127   5.374 -1.0309 -2.3722 -2.3563
17352TIP3    H273548   4.054   0.225   5.290  0.0256  0.4354 -0.1987
17353TIP3   OH273549   6.662   0.893   3.323 -0.2592 -0.6231 -0.8434
17353TIP3    H173550   6.726   0.959   3.350  0.4882 -1.4269 -0.6127
17353TIP3    H273551   6.707   0.843   3.254  0.2585 -2.6625  0.8788
17354TIP3   OH273552   3.423   0.700  16.814 -0.0409  0.3585 -0.0388
17354TIP3    H173553   3.369   0.686  16.891 -1.9731  0.8679 -1.2395
17354TIP3    H273554   3.362   0.699  16.740  1.6211  0.6859 -1.5041
17355TIP3   OH273555   0.763   1.453   0.016 -0.3477 -0.2964  0.4415
17355TIP3    H173556   0.838   1.441  -0.042 -0.6571  1.8376 -0.4758
17355TIP3    H273557   0.692   1.404  -0.025 -0.9054  2.1569 -1.7921
17356TIP3   OH273558   3.858   0.453   4.989 -0.3504 -1.0021 -0.2006
17356TIP3    H173559   3.835   0.542   5.017  0.7639 -1.5510  2.7448
17356TIP3    H273560   3.781   0.424   4.940 -1.2913  1.1003 -0.0945
17357TIP3   OH273561   4.197   5.380  11.677 -0.0176 -0.1273 -0.5324
17357TIP3    H173562   4.199   5.401  11.770 -1.1012 -0.4771 -0.4132
17357TIP3    H273563   4.202   5.465  11.633 -0.6624  0.1268 -0.1292
17358TIP3   OH273564   3.627   0.273  16.015  0.6737 -0.3874  0.0193
17358TIP3    H173565   3.657   0.262  15.924 -0.2497 -0.4253 -0.2887
17358TIP3    H273566   3.663   0.197  16.061  1.9052  0.0924 -0.0946
17359TIP3   OH273567   0.758   0.900   0.900 -0.4459 -0.1196  0.1784
17359TIP3    H173568   0.715   0.985   0.905  1.0466  0.6928 -0.3991
17359TIP3    H273569   0.825   0.902   0.968 -1.1686 -1.3097  0.9640
17360TIP3   OH273570   5.923   6.467  11.863  0.0469 -0.6462 -0.3593
17360TIP3    H173571   5.884   6.456  11.777 -0.9735  0.5249 -0.0747
17360TIP3    H273572   6.017   6.473  11.846 -0.2284  0.8876 -1.5505
17361TIP3   OH273573   4.224   0.969   4.800  0.2401  0.1386 -0.0630
17361TIP3    H173574   4.312   0.996   4.828  0.3893  0.4775 -0.8148
17361TIP3    H273575   4.193   1.042   4.746 -0.0267 -0.4824 -0.7642
17362TIP3   OH273576   2.438   1.474   4.279  0.1512  0.1677 -0.0378
17362TIP3    H173577   2.482   1.395   4.247  0.2433 -0.3821  1.3635
17362TIP3    H273578   2.347   1.447   4.292 -0.2452  0.8193 -1.2611
17363TIP3   OH273579   3.806   5.499  14.175  0.4106 -0.6552 -0.1097
17363TIP3    H173580   3.854   5.512  14.094 -0.3252 -0.0708 -0.4628
17363TIP3    H273581   3.748   5.425  14.157 -0.8880  0.4533 -0.6736
17364TIP3   OH273582   6.408   2.674   5.781 -0.8526  0.4392  0.4972
17364TIP3    H173583   6.361   2.752   5.750 -1.0956  1.0248  2.2555
17364TIP3    H273584   6.362   2.601   5.739 -1.1342  1.1806 -0.5458
17365TIP3   OH273585   1.549   1.792   1.256  0.5258  0.1098  0.0860
17365TIP3    H173586   1.513   1.824   1.173  1.3566 -3.1087 -1.6657
17365TIP3    H273587   1.473   1.765   1.307  0.0945  0.4341 -0.3705
17366TIP3   OH273588   5.203   2.815   1.430 -0.5170  0.1183 -0.0168
17366TIP3    H173589   5.111   2.803   1.454 -0.5533 -0.2793 -0.3486
17366TIP3    H273590   5.201   2.842   1.338 -0.2813 -0.3796 -0.1730
17367TIP3   OH273591   4.227   0.745  16.204 -0.3042 -0.0671  0.0452
17367TIP3    H173592   4.156   0.798  16.241 -1.8078 -0.6240 -1.9016
17367TIP3    H273593   4.212   0.657  16.239 -0.6111 -0.1989 -0.4182
17368TIP3   OH273594   3.343   5.563  10.630  0.6438 -0.2681 -0.4908
17368TIP3    H173595   3.386   5.646  10.649 -0.2106 -0.3534  2.2724
17368TIP3    H273596   3.413   5.498  10.634  1.0143  0.1144 -0.7341
17369TIP3   OH273597   6.484   5.885  12.352 -0.2269  0.0242 -0.1764
17369TIP3    H173598   6.454   5.955  12.410  3.5872  2.0415 -0.2791
17369TIP3    H273599   6.521   5.819  12.411 -1.2447 -0.5853 -0.1940
17370TIP3   OH273600   4.635   6.657  14.896  0.0082  0.1939  0.0742
17370TIP3    H173601   4.598   6.602  14.965  1.7235 -1.5620 -0.3155
17370TIP3    H273602   4.575   6.647  14.823 -3.0567  3.7848  1.7851
17371TIP3   OH273603   2.323   0.444   1.828 -0.6362 -0.2088 -0.4538
17371TIP3    H173604   2.370   0.431   1.910  0.0045  0.4931 -0.7006
17371TIP3    H273605   2.233   0.464   1.855 -0.6831 -1.0310  0.0347
17372TIP3   OH273606   3.874   1.860   2.272  0.3231  0.2463  0.1785
17372TIP3    H173607   3.879   1.904   2.356  2.7111 -1.3217  0.9651
17372TIP3    H273608   3.844   1.771   2.293 -1.8390  0.6016 -1.0427
17373TIP3   OH273609   1.679   1.797   2.487  0.1842  0.3068 -0.7047
17373TIP3    H173610   1.611   1.730   2.481 -3.0953  3.3451 -1.0228
17373TIP3    H273611   1.711   1.790   2.577  0.1542 -1.7845 -0.8097
17374TIP3   OH273612   1.251   5.516   6.423 -0.2963 -1.0078 -0.1736
17374TIP3    H173613   1.220   5.503   6.333 -0.5444 -2.3096  0.0870
17374TIP3    H273614   1.336   5.473   6.426  0.9340  1.2750 -0.4698
17375TIP3   OH273615   1.328   1.150   1.745 -0.0110 -0.0384  0.0160
17375TIP3    H173616   1.376   1.197   1.813 -0.4540  1.1800 -0.4853
17375TIP3    H273617   1.372   1.065   1.739  1.8600  0.8900 -0.1565
17376TIP3   OH273618   1.240   1.750   2.232 -0.5341  0.0975  0.0161
17376TIP3    H173619   1.184   1.690   2.281 -2.2640  0.2596 -1.6407
17376TIP3    H273620   1.293   1.693   2.176 -1.1685  0.0305 -0.5316
17377TIP3   OH273621   3.552   1.270  12.332 -0.1202 -0.6421 -0.1120
17377TIP3    H173622   3.498   1.317  12.269  0.0402  0.4511  0.5415
17377TIP3    H273623   3.605   1.210  12.279 -1.8648 -1.6574 -0.7743
17378TIP3   OH273624   2.661   1.868   4.359  0.0192  0.3794 -0.2452
17378TIP3    H173625   2.729   1.849   4.423  0.7291 -0.0641 -1.0963
17378TIP3    H273626   2.608   1.936   4.399 -0.6089 -1.0621  1.5400
17379TIP3   OH273627   2.933   2.809   2.834  0.4288  0.0606  0.2712
17379TIP3    H173628   3.015   2.774   2.799  0.0761  0.2074 -0.7282
17379TIP3    H273629   2.956   2.841   2.921  1.4007 -0.0448  0.0616
17380TIP3   OH273630   2.223   5.967  15.230  0.2124 -0.6148 -0.2988
17380TIP3    H173631   2.199   6.048  15.275 -1.2636 -1.2511  0.1316
17380TIP3    H273632   2.303   5.989  15.181  0.0498  0.9821  0.0971
17381TIP3   OH273633   1.170   6.321  16.511  0.1120 -0.3142  0.6433
17381TIP3    H173634   1.266   6.320  16.513  0.2164 -0.7768 -1.6747
17381TIP3    H273635   1.147   6.411  16.535  1.3115  0.6417 -1.4364
17382TIP3   OH273636   0.185   4.161  17.231 -0.1144 -0.0213  0.0208
17382TIP3    H173637   0.278   4.168  17.207  0.2512 -0.5432  1.2094
17382TIP3    H273638   0.162   4.250  17.261  0.2605 -0.1027  0.5689
17383TIP3   OH273639   3.965   5.918  15.414  0.3281 -0.5046  0.2951
17383TIP3    H173640   3.921   5.992  15.457 -0.7108  0.1849 -1.7890
17383TIP3    H273641   4.049   5.954  15.385  0.8697 -0.8649  1.3727
17384TIP3   OH273642   0.965   1.053   1.737 -0.6425 -0.4717  0.4907
17384TIP3    H173643   0.966   1.148   1.729  1.0762 -0.4517  0.6077
17384TIP3    H273644   0.908   1.024   1.666  1.1562  0.5213 -1.4808
17385TIP3   OH273645   4.258   5.509  12.900 -0.3469 -0.1116 -0.1585
17385TIP3    H173646   4.183   5.562  12.873  0.5251  0.3810 -1.7947
17385TIP3    H273647   4.319   5.516  12.826  0.4232 -2.2068  0.2253
17386TIP3   OH273648   6.300   0.725  14.523 -0.1956  0.4097  0.2477
17386TIP3    H173649   6.346   0.780  14.460  0.3643 -0.3845 -0.0599
17386TIP3    H273650   6.309   0.636  14.488  0.2839 -0.0754  1.5374
17387TIP3   OH273651   4.011   0.472  13.070  0.4519  0.0567  0.4110
17387TIP3    H173652   4.083   0.529  13.044 -0.4010  1.1446  0.3831
17387TIP3    H273653   3.989   0.423  12.990  1.3974 -0.5662  0.5203
17388TIP3   OH273654   2.480   5.984   2.403 -0.1600 -0.3926 -0.3420
17388TIP3    H173655   2.386   5.994   2.419 -0.0021 -0.9457  1.1107
17388TIP3    H273656   2.496   6.033   2.323 -1.7166 -0.4111 -0.7017
17389TIP3   OH273657   4.286   5.821  15.532  0.3369 -0.2754  0.3797
17389TIP3    H173658   4.244   5.892  15.483 -1.3439 -0.3192  1.6813
17389TIP3    H273659   4.285   5.850  15.623 -1.7888 -2.5135  1.1914
17390TIP3   OH273660   0.393   6.369   0.021  0.4560 -0.5991 -0.0633
17390TIP3    H173661   0.303   6.376   0.052  0.7504 -1.3073  1.0262
17390TIP3    H273662   0.443   6.426   0.080  0.9654 -1.5948  0.4853
17391TIP3   OH273663   6.326   3.861   2.345  0.5873 -0.6191 -0.4611
17391TIP3    H173664   6.356   3.823   2.262  1.2965 -2.2301  0.5009
17391TIP3    H273665   6.399   3.847   2.405  0.3150  1.0499  0.3282
17392TIP3   OH273666   3.063   3.866  17.096  0.2358 -0.1032  0.0727
17392TIP3    H173667   3.069   3.837  17.187 -1.5762  1.3076  0.7003
17392TIP3    H273668   3.048   3.960  17.101 -0.5828 -0.0938 -1.6507
17393TIP3   OH273669   5.317   4.674   1.034 -0.7090  0.0147 -0.0905
17393TIP3    H173670   5.381   4.631   0.977 -0.1300  0.4312  0.2306
17393TIP3    H273671   5.233   4.659   0.992 -0.6251 -2.0393  0.3546
17394TIP3   OH273672   2.209   1.925   3.812 -0.0129  0.1564  0.0046
17394TIP3    H173673   2.200   1.847   3.867 -0.8559 -0.6977 -1.2957
17394TIP3    H273674   2.148   1.988   3.850  0.6788  0.2180  1.0667
17395TIP3   OH273675   6.240   3.435  11.390 -0.2116  0.3258 -0.2290
17395TIP3    H173676   6.295   3.380  11.335 -0.9836  0.2486 -0.9515
17395TIP3    H273677   6.153   3.430  11.349 -0.3736  1.8239 -0.1281
17396TIP3   OH273678   5.843   3.970   2.934  0.2880  0.6466 -0.3387
17396TIP3    H173679   5.903   4.028   2.980  0.8937  1.7556 -2.3881
17396TIP3    H273680   5.763   4.022   2.924 -0.9586 -0.6741  2.0113
17397TIP3   OH273681   4.161   0.652  15.915  0.0648 -0.4155  0.7882
17397TIP3    H173682   4.184   0.739  15.947  0.5580 -0.3636  0.3186
17397TIP3    H273683   4.245   0.615  15.885 -0.1554 -1.0133  0.9082
17398TIP3   OH273684   6.787   2.720   4.961  0.6207 -0.2519  0.1024
17398TIP3    H173685   6.879   2.698   4.977  0.4927 -0.0361  1.2077
17398TIP3    H273686   6.743   2.702   5.044 -0.2011  0.3557 -0.1877
17399TIP3   OH273687   1.086   2.245   2.003  0.3779 -0.6294  0.2074
17399TIP3    H173688   1.024   2.250   2.077  2.4048 -3.2373  2.2962
17399TIP3    H273689   1.039   2.195   1.936 -0.7259 -0.1818  0.6233
17400TIP3   OH273690   6.621   5.043  16.513 -0.6434 -0.0780 -1.1204
17400TIP3    H173691   6.543   4.989  16.529 -0.1394 -0.7680 -0.9420
17400TIP3    H273692   6.689   5.003  16.567 -0.1174  0.4072 -1.4174
17401TIP3   OH273693   3.804   4.052   1.741  0.7953  0.3566 -0.2929
17401TIP3    H173694   3.833   3.963   1.720 -0.3974  0.1453 -1.1140
17401TIP3    H273695   3.728   4.040   1.799  1.5149  0.8854  0.8033
17402TIP3   OH273696   6.802   2.150   1.190 -0.1984  0.6108 -0.1620
17402TIP3    H173697   6.770   2.073   1.143  1.2857 -0.0673 -0.1269
17402TIP3    H273698   6.765   2.142   1.278  0.1276 -0.1938 -0.0911
17403TIP3   OH273699   5.285   3.461   4.579 -0.2330 -0.3003 -0.4499
17403TIP3    H173700   5.267   3.517   4.655  0.1000  0.7333 -1.1091
17403TIP3    H273701   5.201   3.419   4.559 -0.8410  1.0133 -0.7612
17404TIP3   OH273702   1.198   0.917   1.531  0.1376  0.0636 -0.7681
17404TIP3    H173703   1.214   0.936   1.438 -2.0485  1.8799 -0.8552
17404TIP3    H273704   1.155   0.996   1.564  0.5197 -0.6968  1.7236
17405TIP3   OH273705   5.824   3.450   5.209 -0.3987  0.1332 -0.0578
17405TIP3    H173706   5.886   3.378   5.210  0.1307  0.4222 -3.0505
17405TIP3    H273707   5.738   3.408   5.207 -0.1937 -0.3350  0.6348
17406TIP3   OH273708   1.787   4.111  11.313 -0.2454  0.1680  0.0920
17406TIP3    H173709   1.755   4.072  11.394 -0.5439 -0.1809 -0.1915
17406TIP3    H273710   1.735   4.191  11.303 -0.8952 -0.2897 -0.2605
17407TIP3   OH273711   3.863   5.091  12.149  0.3286 -0.1872  0.0373
17407TIP3    H173712   3.768   5.099  12.152  0.3403  0.8700 -1.3356
17407TIP3    H273713   3.895   5.181  12.140  1.3803 -0.6161 -0.7489
17408TIP3   OH273714   4.732   1.591  12.992 -0.3312  0.0940  0.0128
17408TIP3    H173715   4.659   1.636  12.948 -0.7289 -0.9053 -0.3912
17408TIP3    H273716   4.704   1.582  13.083  0.5111  2.2097  0.5374
17409TIP3   OH273717   3.389   4.605   2.918  0.2869  0.2453  0.3252
17409TIP3    H173718   3.395   4.550   2.995  0.1566  0.5109  0.5279
17409TIP3    H273719   3.462   4.577   2.862 -0.2047 -0.6204  0.1020
17410TIP3   OH273720   2.443   5.605   3.900 -0.2223  0.3544 -0.1724
17410TIP3    H173721   2.381   5.624   3.830 -1.1902  0.8077  0.7705
17410TIP3    H273722   2.519   5.566   3.856 -1.4611 -0.9061 -1.2983
17411TIP3   OH273723   5.555   3.158   0.772  0.3368  0.2359  0.0433
17411TIP3    H173724   5.579   3.099   0.843  0.4802  0.7826  0.4539
17411TIP3    H273725   5.479   3.206   0.805  0.6201  0.7425 -0.0336
17412TIP3   OH273726   3.247   1.573  15.065  0.0043 -0.0640  0.3845
17412TIP3    H173727   3.217   1.617  14.985 -1.4793  2.1836  2.0605
17412TIP3    H273728   3.177   1.511  15.086  0.5799 -0.9438 -0.2328
17413TIP3   OH273729   6.133   1.024  14.138  0.0545 -0.5791  0.2600
17413TIP3    H173730   6.137   1.026  14.043 -0.2623 -0.3577  0.2473
17413TIP3    H273731   6.220   1.049  14.167 -0.1739  0.5031  0.0292
17414TIP3   OH273732   1.718   2.250  16.386 -0.2071 -0.1509  0.4317
17414TIP3    H173733   1.785   2.219  16.324 -0.7668  1.2808 -0.9647
17414TIP3    H273734   1.635   2.220  16.350 -0.5723  0.9898  0.2629
17415TIP3   OH273735   1.742   1.780  11.499 -0.5347 -0.3471 -0.5679
17415TIP3    H173736   1.812   1.841  11.520 -0.4666 -0.4248 -0.5664
17415TIP3    H273737   1.784   1.694  11.501 -0.4900 -0.3429 -1.1812
17416TIP3   OH273738   4.876   0.953  16.590 -0.6196 -0.1457  0.3724
17416TIP3    H173739   4.903   1.035  16.549  0.3813  0.5909  2.3807
17416TIP3    H273740   4.790   0.972  16.628 -0.6740 -0.2296  0.2919
17417TIP3   OH273741   2.171   6.808   0.604 -0.1296 -0.2586  0.0639
17417TIP3    H173742   2.222   6.746   0.657 -0.0892 -0.8318 -0.6300
17417TIP3    H273743   2.138   6.872   0.667  0.5824 -0.4737  0.6683
17418TIP3   OH273744   4.759   0.779  15.141 -0.0176 -0.1162 -0.6629
17418TIP3    H173745   4.788   0.837  15.071 -1.4122 -0.7481 -1.8222
17418TIP3    H273746   4.737   0.838  15.213  1.8509  0.5135 -0.5525
17419TIP3   OH273747   1.707   2.814  14.262  0.4667 -0.2771 -0.4160
17419TIP3    H173748   1.717   2.745  14.328  0.2129  0.1459  0.0705
17419TIP3    H273749   1.622   2.798  14.222  1.1833 -1.3452 -1.6058
17420TIP3   OH273750   4.400   6.028  11.834  0.2597  0.4538 -0.6046
17420TIP3    H173751   4.378   5.952  11.888  1.4190  0.4983 -0.0460
17420TIP3    H273752   4.494   6.019  11.816  0.2254  1.2794 -1.2914
17421TIP3   OH273753   5.360   1.044   0.961 -0.0188 -0.1956  0.3330
17421TIP3    H173754   5.422   0.990   1.008 -1.5592 -1.0152  1.5004
17421TIP3    H273755   5.350   1.001   0.876  2.1914  0.8656 -0.5233
17422TIP3   OH273756   1.726   1.073   5.793 -0.5385  0.3038  0.2900
17422TIP3    H173757   1.740   1.006   5.860  1.6105  0.0917 -0.2825
17422TIP3    H273758   1.814   1.092   5.761 -1.4473  0.8433 -2.0510
17423TIP3   OH273759   5.880   6.234  12.005  0.0783  0.0495  0.0714
17423TIP3    H173760   5.886   6.327  11.983 -1.4017 -0.0421 -0.8514
17423TIP3    H273761   5.820   6.231  12.080  0.0165 -0.1755  0.0122
17424TIP3   OH273762   6.448   3.014  14.207 -0.7425 -0.2627  0.2614
17424TIP3    H173763   6.406   2.957  14.271 -2.8622 -1.3840 -1.9713
17424TIP3    H273764   6.500   2.955  14.152 -0.7044  0.3467 -0.3787
17425TIP3   OH273765   1.039   0.731   2.017 -0.5784  0.0331  0.4796
17425TIP3    H173766   0.993   0.690   2.090 -1.6546  0.2678 -0.0544
17425TIP3    H273767   1.045   0.824   2.041 -1.0820  0.1399  0.1980
17426TIP3   OH273768   3.969   1.616   6.694 -0.4189 -0.2949  0.1742
17426TIP3    H173769   3.994   1.563   6.770 -2.4705  1.2780  2.0867
17426TIP3    H273770   3.873   1.615   6.695 -0.5512 -1.0514 -3.0873
17427TIP3   OH273771   6.579   1.967  14.482  0.1999 -0.3274 -0.3475
17427TIP3    H173772   6.552   1.977  14.573 -0.1183 -2.5077 -0.1380
17427TIP3    H273773   6.663   1.922  14.486  0.8721  0.7975 -1.1332
17428TIP3   OH273774   5.879   3.810   1.096 -0.0482 -0.1622  0.2579
17428TIP3    H173775   5.815   3.823   1.025 -0.2465 -0.8124  0.3140
17428TIP3    H273776   5.950   3.761   1.056 -1.5953 -3.4391  1.2167
17429TIP3   OH273777   3.156   4.788   2.835  0.3239  0.2562  0.0420
17429TIP3    H173778   3.211   4.728   2.885  0.6034 -0.0411 -0.6021
17429TIP3    H273779   3.191   4.784   2.746  0.1108  1.0921 -0.0955
17430TIP3   OH273780   0.515   0.821   3.985  0.3911  0.3968  0.2104
17430TIP3    H173781   0.573   0.889   4.018  1.0152  0.2891 -0.6236
17430TIP3    H273782   0.428   0.848   4.013  0.7246  1.0755  0.6344
17431TIP3   OH273783   3.503   5.552  15.128 -0.0566 -0.0805 -0.3475
17431TIP3    H173784   3.470   5.613  15.061 -1.8283 -2.2246 -1.5546
17431TIP3    H273785   3.548   5.608  15.191 -1.2857  2.4267 -1.5500
17432TIP3   OH273786   3.584   5.706  16.369 -0.0269  0.6168  0.0506
17432TIP3    H173787   3.619   5.764  16.301  0.0379  0.8311  0.2653
17432TIP3    H273788   3.493   5.735  16.380  0.5876  2.0973  1.6511
17433TIP3   OH273789   1.497   5.103   0.459 -0.2524  0.5782  0.0903
17433TIP3    H173790   1.583   5.145   0.457  0.2938 -0.3040  2.2586
17433TIP3    H273791   1.501   5.037   0.390  2.1893 -1.8071  2.2782
17434TIP3   OH273792   5.682   2.320  10.944  0.0895  0.5177  0.2883
17434TIP3    H173793   5.607   2.344  10.891 -0.2050  0.3978  0.6411
17434TIP3    H273794   5.704   2.400  10.992  0.4007  0.6463 -0.0635
17435TIP3   OH273795   2.860   5.061   3.666  0.4331  0.1473 -0.4358
17435TIP3    H173796   2.914   4.982   3.671  0.4084  0.1902  0.9657
17435TIP3    H273797   2.779   5.037   3.712  1.4891  1.7831  2.5500
17436TIP3   OH273798   4.330   2.155  14.151 -0.0514  0.1573 -0.2099
17436TIP3    H173799   4.384   2.179  14.076  1.1408  0.7653  0.7948
17436TIP3    H273800   4.337   2.230  14.211  0.7406 -1.1329  1.4088
17437TIP3   OH273801   6.037   5.560   1.323 -0.1968 -0.1958  0.6101
17437TIP3    H173802   6.017   5.473   1.358 -2.0311  0.3542  1.0397
17437TIP3    H273803   5.951   5.599   1.305  0.5728  1.5989  0.6011
17438TIP3   OH273804   0.920   5.100  17.208  0.7497  0.0499  0.0604
17438TIP3    H173805   0.827   5.111  17.186  1.3102 -0.0814 -2.6871
17438TIP3    H273806   0.925   5.010  17.241 -0.2894  0.5201  1.6063
17439TIP3   OH273807   3.061   6.806  10.649  0.1136  0.0329  0.5274
17439TIP3    H173808   3.078   6.731  10.591 -1.0536 -0.6245  1.0124
17439TIP3    H273809   3.136   6.808  10.708  0.2822 -0.5919  0.3387
17440TIP3   OH273810   6.285   1.583   4.556 -0.3497  0.2388 -0.1413
17440TIP3    H173811   6.239   1.666   4.544 -0.1837  0.3166 -0.2453
17440TIP3    H273812   6.365   1.593   4.504 -0.5294 -0.1456 -0.4956
17441TIP3   OH273813   5.751   3.331   0.479 -0.1529 -0.3267  0.0537
17441TIP3    H173814   5.697   3.252   0.479 -1.1543  0.3389  0.4913
17441TIP3    H273815   5.825   3.310   0.537 -0.9567 -0.5870  1.0085
17442TIP3   OH273816   4.243   2.731  17.228 -0.6208 -0.3358 -0.3305
17442TIP3    H173817   4.179   2.728  17.300 -0.9056  2.6619 -0.3252
17442TIP3    H273818   4.324   2.759  17.269 -0.0623 -1.2029 -0.8131
17443TIP3   OH273819   1.132   4.827  12.140  0.4686  0.2234  0.3048
17443TIP3    H173820   1.182   4.746  12.128  1.9408  0.9289  1.3054
17443TIP3    H273821   1.073   4.831  12.065  1.1759 -1.2040 -0.3564
17444TIP3   OH273822   3.703   4.697   6.415 -0.6117 -0.7501 -0.3781
17444TIP3    H173823   3.691   4.751   6.494 -1.7968 -0.1949 -0.9152
17444TIP3    H273824   3.781   4.734   6.373 -0.1944 -0.8052  0.3297
17445TIP3   OH273825   0.988   1.870  15.326  0.2091  0.2012 -0.0434
17445TIP3    H173826   0.979   1.783  15.287 -3.3639  0.4042  0.0596
17445TIP3    H273827   1.041   1.855  15.405  0.4215 -1.6926 -0.4964
17446TIP3   OH273828   6.569   1.122  16.496  0.0243 -0.3656 -0.0645
17446TIP3    H173829   6.543   1.194  16.440 -0.0250 -1.1793 -1.1251
17446TIP3    H273830   6.646   1.084  16.452 -0.3623 -1.3703  0.0858
17447TIP3   OH273831   5.556   0.672  12.928 -0.3018 -0.5114 -0.0664
17447TIP3    H173832   5.648   0.697  12.940 -0.0203 -1.3114 -0.4891
17447TIP3    H273833   5.510   0.713  13.002  0.2715  0.4951 -0.2466
17448TIP3   OH273834   6.230   3.808  10.432 -0.2184 -0.0682 -0.0120
17448TIP3    H173835   6.322   3.793  10.408 -0.5481  1.4171 -2.4930
17448TIP3    H273836   6.192   3.721  10.436  1.2454 -0.7027  0.9328
17449TIP3   OH273837   1.672   0.848   4.774 -0.3696 -0.4091 -0.1647
17449TIP3    H173838   1.757   0.885   4.750  0.1688 -1.9295 -0.7046
17449TIP3    H273839   1.692   0.783   4.841 -1.3113  0.3228  0.8643
17450TIP3   OH273840   2.468   2.329  16.166 -0.1467  0.6330 -0.0805
17450TIP3    H173841   2.423   2.346  16.083 -0.0879  1.1237 -0.0155
17450TIP3    H273842   2.536   2.396  16.171  0.2193  0.2545  0.0965
17451TIP3   OH273843   3.998   5.344  14.740  0.6166 -0.1240 -0.4145
17451TIP3    H173844   4.046   5.408  14.794  1.2344 -1.2746  0.4490
17451TIP3    H273845   3.911   5.383  14.729  0.8618  0.6999  0.4014
17452TIP3   OH273846   3.713   2.733   1.727 -0.4442  0.2065  0.1982
17452TIP3    H173847   3.767   2.700   1.798 -2.8219 -1.2577  1.4438
17452TIP3    H273848   3.765   2.717   1.648  0.9634 -1.0175  1.3246
17453TIP3   OH273849   0.602   5.935  15.414  0.5605 -0.1214 -0.1597
17453TIP3    H173850   0.646   5.901  15.493 -1.0242  1.2106  1.3638
17453TIP3    H273851   0.617   5.867  15.348  2.8154 -0.8260  0.9528
17454TIP3   OH273852   4.308   6.757   4.679  0.3739  0.0008  0.4523
17454TIP3    H173853   4.283   6.789   4.766  0.2970  0.8187  0.1345
17454TIP3    H273854   4.328   6.836   4.629 -1.5071 -0.3094 -0.9020
17455TIP3   OH273855   2.326   1.786  12.007 -0.2074  0.1101 -0.5030
17455TIP3    H173856   2.236   1.794  12.039  0.2028  0.6028  0.5871
17455TIP3    H273857   2.358   1.703  12.044  0.1014  0.4338 -0.0191
17456TIP3   OH273858   1.052   0.730   1.103  0.8345  0.3862  0.1379
17456TIP3    H173859   1.130   0.754   1.154  0.2027  2.6749  0.1510
17456TIP3    H273860   1.015   0.655   1.150  2.4116 -0.0440  0.7634
17457TIP3   OH273861   4.082   3.270  14.862  0.6308  0.4866 -0.0247
17457TIP3    H173862   4.113   3.221  14.786  0.1144 -0.1903  0.1939
17457TIP3    H273863   4.031   3.207  14.912  1.1775  0.8577  1.0249
17458TIP3   OH273864   1.970   0.553  12.138 -0.4112  0.3447  0.9407
17458TIP3    H173865   2.057   0.560  12.098 -0.0693  1.4663  1.8053
17458TIP3    H273866   1.915   0.610  12.085 -0.9180 -1.2079 -0.2766
17459TIP3   OH273867   2.089   6.227  13.613 -0.1137  0.2176 -0.4545
17459TIP3    H173868   2.058   6.306  13.658 -0.3621 -2.1328  4.1163
17459TIP3    H273869   2.174   6.209  13.652 -0.7994 -2.5882 -0.0356
17460TIP3   OH273870   3.589   3.837   5.487 -0.1389  0.4074 -0.4159
17460TIP3    H173871   3.535   3.898   5.436  0.0601  0.0223 -1.0946
17460TIP3    H273872   3.662   3.816   5.430 -1.0061 -1.7012 -0.8379
17461TIP3   OH273873   5.087   1.792  15.019  0.3401  0.0963  0.3559
17461TIP3    H173874   4.991   1.788  15.010  0.4130 -0.4346 -0.2763
17461TIP3    H273875   5.110   1.713  15.067  0.4491  0.3158  0.6684
17462TIP3   OH273876   1.751   0.351  15.910 -0.5583 -0.3771  0.7909
17462TIP3    H173877   1.706   0.425  15.869  0.8593  0.1084  0.0236
17462TIP3    H273878   1.791   0.304  15.836  0.7180 -0.4108  1.4806
17463TIP3   OH273879   0.066   1.219  12.004 -0.1261  0.3591 -0.4408
17463TIP3    H173880   0.132   1.198  12.070  0.8498 -0.5416 -1.6601
17463TIP3    H273881  -0.011   1.167  12.030 -0.2189  1.0380  0.7108
17464TIP3   OH273882   0.779   4.798   4.396  0.1675  0.4504  0.5977
17464TIP3    H173883   0.829   4.744   4.334 -0.9722 -1.8213  1.5327
17464TIP3    H273884   0.832   4.799   4.475 -1.0629 -1.8939  1.5632
17465TIP3   OH273885   3.018   1.723  13.912 -0.4546 -0.7683 -0.0782
17465TIP3    H173886   3.000   1.633  13.884 -1.8848 -1.8060  3.6129
17465TIP3    H273887   3.073   1.714  13.990 -0.6201  1.5825  0.3972
17466TIP3   OH273888   0.786   2.238  15.987  0.2699 -0.4227  0.1544
17466TIP3    H173889   0.718   2.285  16.037 -0.5398  0.1749 -1.4277
17466TIP3    H273890   0.784   2.279  15.901 -0.3886 -3.2514 -1.3056
17467TIP3   OH273891   4.755   1.814  14.592 -0.2871  0.0003 -0.1191
17467TIP3    H173892   4.752   1.748  14.523 -1.5797 -0.4474  0.3461
17467TIP3    H273893   4.846   1.812  14.623 -0.4874 -2.1596  0.4576
17468TIP3   OH273894   2.248   2.902  13.963 -0.9533 -0.3543 -0.1073
17468TIP3    H173895   2.334   2.877  13.998 -0.6248  1.4861  0.4839
17468TIP3    H273896   2.186   2.848  14.012 -0.1325 -2.9748 -1.6982
17469TIP3   OH273897   3.095   3.647  13.434 -0.4536 -0.0583 -0.5008
17469TIP3    H173898   3.053   3.694  13.507  0.0296  0.0264 -0.2718
17469TIP3    H273899   3.022   3.612  13.383 -0.8002 -0.2651  0.1230
17470TIP3   OH273900   0.914   2.621  17.203  0.1471  1.0051  0.0680
17470TIP3    H173901   0.972   2.577  17.141  0.4458  0.9144  0.4090
17470TIP3    H273902   0.913   2.712  17.173 -1.5324  0.5502 -1.4442
17471TIP3   OH273903   3.753   0.275  15.086 -0.2951  0.3399 -0.2093
17471TIP3    H173904   3.723   0.194  15.125 -0.8137  0.7786  0.3185
17471TIP3    H273905   3.780   0.330  15.160  1.1043  0.2511 -0.6170
17472TIP3   OH273906   0.181   3.736  11.652  0.0322  0.0779  0.1635
17472TIP3    H173907   0.241   3.763  11.722 -1.5416  0.9164  1.2313
17472TIP3    H273908   0.149   3.651  11.680 -0.8243  0.5457  0.6242
17473TIP3   OH273909   3.195   4.746  15.061 -0.1570  0.1235  0.3299
17473TIP3    H173910   3.210   4.810  14.991  1.6733  0.6495  1.1213
17473TIP3    H273911   3.100   4.735  15.064 -0.3608  0.9882 -1.4141
17474TIP3   OH273912   3.406   6.278  10.611 -0.0639 -0.1405  1.2627
17474TIP3    H173913   3.321   6.322  10.610 -0.6842 -1.2569 -0.8267
17474TIP3    H273914   3.468   6.345  10.581 -1.2799 -0.9322 -3.8912
17475TIP3   OH273915   0.063   6.117  12.965  0.1907  0.6944  0.1850
17475TIP3    H173916   0.020   6.162  13.038 -1.4118 -1.0917  0.4233
17475TIP3    H273917   0.023   6.155  12.887 -1.3161 -0.3837  0.3884
17476TIP3   OH273918   5.105   6.302   1.195  0.0503  0.5753  0.0463
17476TIP3    H173919   5.135   6.309   1.104 -0.3214  0.4909 -0.0831
17476TIP3    H273920   5.033   6.240   1.191  0.4086  0.1300  0.4908
17477TIP3   OH273921   6.004   1.206  15.151  0.6723 -0.6029 -0.3525
17477TIP3    H173922   6.069   1.250  15.096 -1.5908  0.0834 -2.6473
17477TIP3    H273923   6.005   1.115  15.122  0.6505 -0.6154 -0.3152
17478TIP3   OH273924   0.278   4.214   2.193 -0.4855 -0.3624 -0.0252
17478TIP3    H173925   0.328   4.265   2.129 -0.9050  0.2741  0.1474
17478TIP3    H273926   0.295   4.123   2.169  1.7166 -0.2044  0.7724
17479TIP3   OH273927   1.408   2.072  11.867 -0.6359  0.0977  0.2577
17479TIP3    H173928   1.488   2.019  11.871 -0.6388  0.1796  2.4191
17479TIP3    H273929   1.435   2.152  11.822  0.5898  0.2362  1.1850
17480TIP3   OH273930   5.381   6.662  15.675  0.5473 -0.4151  0.5844
17480TIP3    H173931   5.332   6.622  15.747 -3.4965  3.0203  0.1283
17480TIP3    H273932   5.372   6.600  15.603 -1.0140 -1.0808  1.2962
17481TIP3   OH273933   2.113   2.915   3.335 -0.0204 -0.3974  0.3872
17481TIP3    H173934   2.064   2.845   3.378  0.7439 -1.4999 -0.4708
17481TIP3    H273935   2.150   2.874   3.257  0.8880  0.8290  0.1396
17482TIP3   OH273936   1.353   3.505  15.995 -0.2610  0.0220  0.0060
17482TIP3    H173937   1.423   3.440  15.998 -1.3131 -1.1209  0.7081
17482TIP3    H273938   1.298   3.485  16.071 -1.1834  1.0926 -0.3444
17483TIP3   OH273939   4.128   5.190   0.147  0.0584  0.1979  0.0428
17483TIP3    H173940   4.219   5.220   0.146 -0.4139  1.7391 -1.0471
17483TIP3    H273941   4.084   5.249   0.209 -0.6581  1.1178 -1.2780
17484TIP3   OH273942   4.281   0.511  17.085 -0.1240  0.0236 -0.4421
17484TIP3    H173943   4.334   0.590  17.075 -2.0605  1.2532 -1.6674
17484TIP3    H273944   4.341   0.439  17.064  1.3985  1.2333 -0.4135
17485TIP3   OH273945   2.076   6.011   4.771 -0.2425  0.4865  0.2824
17485TIP3    H173946   2.146   5.992   4.708 -0.7215 -0.4392  0.0135
17485TIP3    H273947   2.104   6.092   4.815  0.4426  0.7501 -0.6139
17486TIP3   OH273948   0.916   0.871   6.558  0.5633  0.1844  0.0279
17486TIP3    H173949   0.838   0.854   6.505  0.3160 -0.5996  0.6092
17486TIP3    H273950   0.897   0.953   6.603  0.4828  0.4921 -0.5675
17487TIP3   OH273951   2.888   4.750  16.520  0.5930  0.5473 -0.1478
17487TIP3    H173952   2.968   4.730  16.568  0.0886 -0.2420  0.3782
17487TIP3    H273953   2.841   4.812  16.577  1.1510  1.5969 -0.7921
17488TIP3   OH273954   1.983   3.474  15.540 -0.0027  0.2259 -0.2190
17488TIP3    H173955   1.983   3.568  15.557  1.7942  0.1154  0.6901
17488TIP3    H273956   2.010   3.466  15.449  0.5909  0.5882 -0.0831
17489TIP3   OH273957   0.856   0.779   3.212 -0.3205  0.3640 -0.2326
17489TIP3    H173958   0.834   0.775   3.119  0.5093 -0.9859 -0.4019
17489TIP3    H273959   0.944   0.816   3.215 -0.1247 -0.1081 -0.0343
17490TIP3   OH273960   1.911   2.772   2.537 -0.2588  0.1732 -0.2225
17490TIP3    H173961   1.907   2.822   2.618  1.8181  1.2088 -0.6747
17490TIP3    H273962   1.908   2.839   2.468 -0.5866 -0.5723 -0.9431
17491TIP3   OH273963   5.191   2.113  14.541 -0.0499 -0.3482 -0.9681
17491TIP3    H173964   5.136   2.152  14.608  0.9657  2.0561 -1.4242
17491TIP3    H273965   5.207   2.024  14.571 -1.9651 -0.2707  0.4730
17492TIP3   OH273966   4.801   2.730   2.911  0.6066  0.4929 -0.5980
17492TIP3    H173967   4.773   2.752   3.000 -0.5533 -0.1366 -0.7781
17492TIP3    H273968   4.896   2.742   2.911  0.4440  2.0461  0.2647
17493TIP3   OH273969   1.270   6.759  14.976  0.5835  0.6188 -0.7214
17493TIP3    H173970   1.365   6.768  14.986  0.4511  0.7494  0.6004
17493TIP3    H273971   1.254   6.666  14.995  0.3697  0.7461 -0.2904
17494TIP3   OH273972   5.293   2.886  13.333 -0.3759 -0.3606 -0.6206
17494TIP3    H173973   5.382   2.892  13.368 -0.4069 -1.1518 -0.3815
17494TIP3    H273974   5.275   2.793  13.330 -0.5151 -0.3073 -2.4503
17495TIP3   OH273975   6.365   0.770  12.521 -0.1106  0.4347 -0.6573
17495TIP3    H173976   6.303   0.828  12.475 -2.0136 -0.1305  1.0438
17495TIP3    H273977   6.314   0.691  12.539  0.9233  0.1687  1.3182
17496TIP3   OH273978   1.244   6.656   5.413 -0.0750  0.2147  0.2483
17496TIP3    H173979   1.186   6.586   5.383  2.3473 -1.0609 -1.9368
17496TIP3    H273980   1.243   6.650   5.508 -1.2093 -1.7076  0.1584
17497TIP3   OH273981   3.566   6.252   0.789  0.0155  0.2272 -0.3793
17497TIP3    H173982   3.558   6.254   0.884  1.2535 -0.9113 -0.2198
17497TIP3    H273983   3.484   6.214   0.758 -1.6109  3.2080 -0.0120
17498TIP3   OH273984   4.311   0.473   4.342  0.4718  0.7255 -0.5620
17498TIP3    H173985   4.246   0.489   4.410  1.5047  2.4209  0.0796
17498TIP3    H273986   4.311   0.378   4.330 -0.5429  0.5046  0.9735
17499TIP3   OH273987   1.990   2.580   0.091 -0.0966  0.4903  0.0784
17499TIP3    H173988   2.034   2.656   0.130 -0.2728  1.0229 -0.7264
17499TIP3    H273989   2.019   2.581  -0.001 -1.6711  0.7850 -0.4370
17500TIP3   OH273990   5.137   1.504  17.096  0.0716 -0.3759  0.5040
17500TIP3    H173991   5.145   1.586  17.048  0.6330 -0.4497  0.4628
17500TIP3    H273992   5.227   1.473  17.106 -0.1129 -0.8385  0.7758
17501TIP3   OH273993   0.038   1.042   6.158  0.4543 -0.1024 -0.5864
17501TIP3    H173994   0.083   0.999   6.231  0.8716  1.4593  0.1178
17501TIP3    H273995  -0.040   1.081   6.197  0.0061 -0.3146 -1.2413
17502TIP3   OH273996   2.469   1.931   0.307 -0.7632 -0.0701 -0.1372
17502TIP3    H173997   2.513   1.881   0.238 -1.7943 -0.8687 -0.2484
17502TIP3    H273998   2.533   1.996   0.335  0.1764 -0.6687 -0.8533
17503TIP3   OH273999   6.777   1.377   3.653  0.1661  0.1907  0.1602
17503TIP3    H174000   6.770   1.448   3.717 -0.6842  0.9572 -0.7433
17503TIP3    H274001   6.846   1.406   3.593 -1.3512  1.1399 -1.2205
17504TIP3   OH274002   4.714   2.804   1.353  0.2291 -0.0375  0.3017
17504TIP3    H174003   4.792   2.803   1.299 -0.3024  0.1006 -0.4811
17504TIP3    H274004   4.673   2.719   1.338  0.9791 -0.7137  1.8504
17505TIP3   OH274005   0.169   0.463  16.041  0.4375 -0.0154 -0.5708
17505TIP3    H174006   0.120   0.529  16.091 -0.2596 -0.8117 -0.1785
17505TIP3    H274007   0.148   0.482  15.950 -1.7214 -1.1485 -0.3730
17506TIP3   OH274008   4.081   5.225   5.415  0.5202 -0.2620 -0.0620
17506TIP3    H174009   3.986   5.212   5.418  0.6795 -1.6502 -0.0280
17506TIP3    H274010   4.116   5.147   5.459  1.6546  0.5748  0.5451
17507TIP3   OH274011   0.863   6.541  16.117  0.2965  0.0922  0.2043
17507TIP3    H174012   0.891   6.504  16.200 -0.6372 -1.2452 -0.0535
17507TIP3    H274013   0.819   6.469  16.072 -1.7853  1.5533 -0.2273
17508TIP3   OH274014   3.696   1.184  16.926  0.0857 -0.4752 -0.2787
17508TIP3    H174015   3.714   1.154  17.015 -2.0236  0.6580  0.6176
17508TIP3    H274016   3.655   1.109  16.883 -0.5367 -0.4763  0.3057
17509TIP3   OH274017   1.277   1.673  15.136  0.5963  0.4163 -0.1719
17509TIP3    H174018   1.182   1.669  15.134  0.5954 -0.4158  0.6660
17509TIP3    H274019   1.305   1.604  15.076  0.6394 -1.0100  1.4152
17510TIP3   OH274020   2.104   4.460   1.151  0.2327  0.0972 -0.2269
17510TIP3    H174021   2.037   4.517   1.188 -1.1070 -1.5271 -0.0648
17510TIP3    H274022   2.172   4.456   1.218 -1.3718 -1.4209  1.4170
17511TIP3   OH274023   1.479   5.278   1.447 -0.1633  0.4657  0.1839
17511TIP3    H174024   1.397   5.243   1.481  1.1000 -0.8919  1.9789
17511TIP3    H274025   1.474   5.262   1.352 -1.0301 -1.6761  0.5285
17512TIP3   OH274026   3.272   4.812   2.561 -0.4841 -0.2514 -0.0250
17512TIP3    H174027   3.262   4.716   2.561  2.6590 -0.6845  0.8182
17512TIP3    H274028   3.313   4.832   2.477 -1.1114  0.3934 -0.1904
17513TIP3   OH274029   0.472   4.542  14.075  0.3394 -0.4610 -0.1376
17513TIP3    H174030   0.455   4.609  14.142 -0.7227 -2.1834  1.4118
17513TIP3    H274031   0.396   4.546  14.018  0.0997 -0.5932  0.1698
17514TIP3   OH274032   5.931   6.792   6.233  0.3753  0.8908  0.3359
17514TIP3    H174033   5.994   6.807   6.162  0.7525  1.3911  0.7678
17514TIP3    H274034   5.971   6.721   6.284  0.1086  0.5379  0.0590
17515TIP3   OH274035   0.979   6.008   3.453  0.1171 -0.3496 -0.1799
17515TIP3    H174036   0.902   6.064   3.464  0.6710 -0.0512  3.0896
17515TIP3    H274037   0.992   5.968   3.539  2.8076 -1.4742 -1.0229
17516TIP3   OH274038   4.977   1.043  11.609 -0.5242 -0.5849  0.1154
17516TIP3    H174039   5.035   0.974  11.577  1.2893 -0.2170  2.4092
17516TIP3    H274040   5.009   1.123  11.567  1.1377 -0.2819  1.8353
17517TIP3   OH274041   3.092   3.489   0.230 -0.1150 -0.4670 -0.2681
17517TIP3    H174042   3.059   3.400   0.242 -1.1032 -0.1010 -0.1310
17517TIP3    H274043   3.097   3.525   0.319  1.0765 -0.6458 -0.2510
17518TIP3   OH274044   0.847   3.178   2.648  0.0913 -0.0159 -0.1486
17518TIP3    H174045   0.846   3.214   2.560  1.4375  0.4564  0.0091
17518TIP3    H274046   0.837   3.084   2.636 -1.2857  0.1761 -0.6904
17519TIP3   OH274047   1.260   5.508   0.047 -0.1851 -0.4684 -0.3162
17519TIP3    H174048   1.259   5.412   0.041 -1.7702 -0.4871 -0.1896
17519TIP3    H274049   1.262   5.537  -0.045  0.3345 -0.6063 -0.3546
17520TIP3   OH274050   5.930   3.698  14.241  0.1944  0.0498 -0.0798
17520TIP3    H174051   5.907   3.769  14.181 -1.3353 -0.8492 -0.5969
17520TIP3    H274052   5.860   3.696  14.305  1.0889  0.0752  0.9237
17521TIP3   OH274053   5.096   0.424  16.432 -0.5408 -0.2803 -0.1801
17521TIP3    H174054   5.043   0.503  16.421  1.8838  1.3530 -0.7407
17521TIP3    H274055   5.111   0.392  16.343  0.1232 -0.2196 -0.0956
17522TIP3   OH274056   1.185   2.194  11.726  0.5512 -0.4071  0.6359
17522TIP3    H174057   1.277   2.217  11.717  0.1518  0.9486 -0.2155
17522TIP3    H274058   1.174   2.118  11.669  0.5377  1.2290 -1.6737
17523TIP3   OH274059   1.642   3.432  11.807  0.2450 -0.0569  0.1571
17523TIP3    H174060   1.658   3.344  11.842  0.2511  0.2443  0.9207
17523TIP3    H274061   1.726   3.459  11.770  0.5025  0.0129  0.7896
17524TIP3   OH274062   5.584   6.313  10.648  0.2034  0.5124 -0.1262
17524TIP3    H174063   5.524   6.248  10.684 -1.3957  0.9603 -1.8029
17524TIP3    H274064   5.554   6.396  10.685 -1.6944  1.0301 -2.5631
17525TIP3   OH274065   6.692   2.322   2.302  0.3002  0.0971  0.5562
17525TIP3    H174066   6.736   2.284   2.378 -0.6839 -0.7780  0.7140
17525TIP3    H274067   6.645   2.249   2.262  0.7851  0.5386 -0.9012
17526TIP3   OH274068   5.528   5.613  13.521 -0.6418 -0.1493 -0.0270
17526TIP3    H174069   5.538   5.678  13.590 -0.3217 -0.8357  0.5736
17526TIP3    H274070   5.474   5.545  13.560 -1.7290  0.1561 -0.9400
17527TIP3   OH274071   4.709   4.208  16.074 -0.2690  0.1301 -0.3487
17527TIP3    H174072   4.754   4.135  16.116  0.0143  0.8016  0.5290
17527TIP3    H274073   4.616   4.185  16.078 -0.3109  0.5064  1.2952
17528TIP3   OH274074   3.774   0.536  13.226 -0.6657 -0.2015  0.5239
17528TIP3    H174075   3.723   0.509  13.150 -0.2529 -2.1629  0.8834
17528TIP3    H274076   3.864   0.511  13.203 -0.2574  0.8662  0.9298
17529TIP3   OH274077   2.728   3.811  10.990 -0.3898 -0.6888 -0.8035
17529TIP3    H174078   2.824   3.812  10.982 -0.4770  0.1176 -1.9926
17529TIP3    H274079   2.712   3.782  11.079  0.9703 -0.7987 -0.5716
17530TIP3   OH274080   5.636   0.013  11.469 -0.3660 -0.3271 -0.1958
17530TIP3    H174081   5.679  -0.023  11.391  0.9502  0.2739  0.2130
17530TIP3    H274082   5.709   0.037  11.527 -1.2608  0.8846  0.4757
17531TIP3   OH274083   2.028   5.564  12.390 -0.5220  0.1548 -0.0978
17531TIP3    H174084   2.018   5.515  12.308 -0.1124  1.6962 -1.1094
17531TIP3    H274085   2.119   5.593  12.390 -0.8002  1.0779  0.3748
17532TIP3   OH274086   5.764   6.227   3.889  0.4282 -0.0204 -0.6125
17532TIP3    H174087   5.817   6.223   3.810  0.7483  1.8966 -0.5562
17532TIP3    H274088   5.755   6.136   3.917 -0.5183 -0.8653 -3.3482
17533TIP3   OH274089   3.045   0.351   6.078 -0.4413  0.0514 -0.5745
17533TIP3    H174090   2.988   0.311   6.144 -0.5956 -1.0357 -1.3434
17533TIP3    H274091   2.993   0.351   5.998  0.5001 -0.6422 -1.2010
17534TIP3   OH274092   4.450   0.551  11.331 -0.1381  0.6259 -0.4805
17534TIP3    H174093   4.438   0.547  11.426  0.3618  0.5678 -0.4213
17534TIP3    H274094   4.382   0.611  11.301  1.0043  2.2898  0.1460
17535TIP3   OH274095   2.652   6.155  15.549 -0.4967 -0.4052  0.2485
17535TIP3    H174096   2.605   6.186  15.626  0.4957 -0.4469  0.8853
17535TIP3    H274097   2.617   6.067  15.533 -2.8756  0.6996 -1.2007
17536TIP3   OH274098   5.161   5.576  15.196  0.1544 -0.0229 -0.3454
17536TIP3    H174099   5.206   5.571  15.280  1.2090  2.5620 -0.6766
17536TIP3    H274100   5.217   5.525  15.136 -0.2657 -1.3236  0.3181
17537TIP3   OH274101   3.568   1.112  17.229 -0.5321 -0.5627  0.1570
17537TIP3    H174102   3.645   1.169  17.232  0.4559 -1.8544  0.6239
17537TIP3    H274103   3.602   1.025  17.253 -2.5856 -0.7171  2.9205
17538TIP3   OH274104   2.746   0.856   3.727  0.3940 -0.0610  0.9769
17538TIP3    H174105   2.687   0.793   3.767 -0.6811 -0.0552 -0.5145
17538TIP3    H274106   2.813   0.872   3.794  0.7404 -2.7834  1.4234
17539TIP3   OH274107   1.636   3.665   4.672 -0.1301  0.6682 -0.3963
17539TIP3    H174108   1.549   3.632   4.693 -0.5239  0.8753 -1.6030
17539TIP3    H274109   1.691   3.587   4.672 -0.5718  0.3463 -0.8342
17540TIP3   OH274110   3.919   2.670   1.921  0.3337 -0.1135 -0.5055
17540TIP3    H174111   3.983   2.690   1.990  0.1954 -0.1859 -0.3571
17540TIP3    H274112   3.849   2.623   1.966  0.1488  0.0149 -0.6595
17541TIP3   OH274113   0.379   4.201   1.497 -0.1056  0.0656  0.1576
17541TIP3    H174114   0.444   4.167   1.436 -0.9832 -0.2768 -0.6093
17541TIP3    H274115   0.368   4.131   1.561  0.1698  0.0696  0.2121
17542TIP3   OH274116   5.777   1.566   1.420  0.0106  0.1512  0.0548
17542TIP3    H174117   5.843   1.621   1.377 -0.8991  0.6227 -0.7598
17542TIP3    H274118   5.711   1.549   1.353  0.1619 -1.8040  0.3458
17543TIP3   OH274119   6.384   2.340   2.160  0.6742 -0.5197  0.1304
17543TIP3    H174120   6.413   2.417   2.209 -0.2350  0.5513 -0.9445
17543TIP3    H274121   6.411   2.265   2.214  0.4381  0.5712  1.8344
17544TIP3   OH274122   1.629   5.847   3.149  0.5318 -0.5488  0.1100
17544TIP3    H174123   1.568   5.812   3.084  2.2207 -1.6128 -0.9946
17544TIP3    H274124   1.589   5.826   3.233  1.1053 -4.8501 -0.4518
17545TIP3   OH274125   0.545   2.896  17.197 -0.2758  0.3204  0.2845
17545TIP3    H174126   0.602   2.905  17.121  0.4333  0.1104  0.7778
17545TIP3    H274127   0.572   2.813  17.237  0.7697  1.3724  1.8944
17546TIP3   OH274128   4.714   2.989   3.625 -0.1581 -0.4050  0.5305
17546TIP3    H174129   4.659   2.910   3.630 -2.5989  1.0762 -0.9114
17546TIP3    H274130   4.775   2.980   3.698  0.0604 -3.8740  0.0909
17547TIP3   OH274131   0.509   5.348   4.877  0.3974 -0.4992  0.3794
17547TIP3    H174132   0.441   5.413   4.860  1.6873  0.9660  0.7038
17547TIP3    H274133   0.511   5.340   4.972  0.2326 -1.0562  0.3416
17548TIP3   OH274134   2.069   0.954   5.862  1.1079 -0.3400 -0.4045
17548TIP3    H174135   2.096   0.945   5.953 -0.7713  0.2950  0.2731
17548TIP3    H274136   2.067   0.865   5.828 -1.4009 -1.0304  1.2424
17549TIP3   OH274137   3.658   6.323  13.588  0.1310 -1.1843 -1.1034
17549TIP3    H174138   3.698   6.400  13.629  0.5492 -2.2192  0.5585
17549TIP3    H274139   3.566   6.348  13.576  0.0383 -0.7135  0.3109
17550TIP3   OH274140   6.735   0.077  15.071 -0.2062  0.0454  0.1209
17550TIP3    H174141   6.686   0.040  14.997  0.7286 -1.1896  0.0891
17550TIP3    H274142   6.680   0.059  15.147  0.3460 -1.7359  0.1433
17551TIP3   OH274143   6.252   4.226   5.328  0.3345  0.1296  0.6591
17551TIP3    H174144   6.270   4.188   5.242 -0.0412  0.3521  0.4831
17551TIP3    H274145   6.157   4.222   5.337  0.5104 -3.1082  2.5162
17552TIP3   OH274146   2.632   5.134  14.065  0.0819 -0.3261  0.5656
17552TIP3    H174147   2.602   5.153  13.976 -1.6038  1.2901  1.4168
17552TIP3    H274148   2.590   5.051  14.087  2.1438 -1.8276 -0.8026
17553TIP3   OH274149   0.473   1.148  11.497 -0.4910  0.2032  0.2248
17553TIP3    H174150   0.409   1.187  11.557 -2.2913 -2.5388  0.2229
17553TIP3    H274151   0.549   1.130  11.551  0.0633  2.7513  0.4088
17554TIP3   OH274152   4.087   1.724   5.035  0.0635 -0.3889  0.0395
17554TIP3    H174153   4.055   1.713   4.945 -1.1177  0.4324  0.3421
17554TIP3    H274154   4.008   1.734   5.088  0.7657 -0.3613  1.1113
17555TIP3   OH274155   3.158   0.970  12.531  0.0150 -0.2409  0.2269
17555TIP3    H174156   3.166   0.880  12.499 -2.2797  0.1933 -1.8388
17555TIP3    H274157   3.079   0.969  12.585 -1.3981  0.9643 -1.7247
17556TIP3   OH274158   5.521   2.462  12.802 -0.2484  0.5008 -0.2577
17556TIP3    H174159   5.592   2.417  12.756  0.7587 -0.3439  1.9799
17556TIP3    H274160   5.565   2.532  12.850 -0.8910 -0.0081  1.1300
17557TIP3   OH274161   6.054   2.441   4.134 -0.2558  0.3376 -0.2617
17557TIP3    H174162   5.996   2.461   4.207  0.4323  0.9794  0.1251
17557TIP3    H274163   6.049   2.346   4.125  0.9005  0.0164  1.7340
17558TIP3   OH274164   3.035   0.080   0.898 -0.2803  0.0557 -0.0313
17558TIP3    H174165   2.992   0.060   0.815 -1.0261 -0.7012  0.5180
17558TIP3    H274166   2.979   0.148   0.938 -1.1126 -1.0535  0.7623
17559TIP3   OH274167   2.301   1.643  12.623  0.2947  0.1172  0.0542
17559TIP3    H174168   2.387   1.640  12.582 -0.5245  0.8090 -1.7934
17559TIP3    H274169   2.283   1.736  12.636 -0.1911 -0.0220  0.4127
17560TIP3   OH274170   0.454   1.925  11.509 -0.6095 -0.7129 -0.1146
17560TIP3    H174171   0.536   1.876  11.507 -0.5728 -0.6791  0.5454
17560TIP3    H274172   0.393   1.872  11.457 -0.1813 -0.7500 -0.5816
17561TIP3   OH274173   6.667   5.973   1.286 -0.1192 -0.0587  0.0731
17561TIP3    H174174   6.612   5.896   1.291  0.8190 -0.6890  1.1053
17561TIP3    H274175   6.608   6.044   1.260 -1.9271 -0.1976  3.3733
17562TIP3   OH274176   5.499   2.622   0.553  0.3915  0.0774  0.3686
17562TIP3    H174177   5.500   2.682   0.479 -1.4548 -0.4805 -0.1699
17562TIP3    H274178   5.590   2.593   0.562  0.7779  0.6935 -1.2309
17563TIP3   OH274179   4.635   2.785  15.805  0.1763  0.1158  0.0802
17563TIP3    H174180   4.700   2.723  15.771  1.0713  2.2606 -2.4282
17563TIP3    H274181   4.554   2.734  15.809  1.1196 -1.5545 -0.6535
17564TIP3   OH274182   0.585   4.922  11.787 -0.1202 -1.0465  0.0392
17564TIP3    H174183   0.538   4.839  11.795 -1.7491 -0.0132  2.4455
17564TIP3    H274184   0.550   4.976  11.858  2.2275  1.0651 -0.2708
17565TIP3   OH274185   1.029   6.019  12.158  0.0161 -0.3641 -0.1696
17565TIP3    H174186   1.038   5.953  12.227 -0.6779  0.1844  0.4660
17565TIP3    H274187   0.953   5.990  12.107 -1.4549  0.8846  1.2275
17566TIP3   OH274188   1.258   0.471  16.001 -0.0954 -0.1858 -0.3955
17566TIP3    H174189   1.278   0.462  15.908  0.6736 -0.6803 -0.1959
17566TIP3    H274190   1.261   0.565  16.018  1.4431 -0.1950 -0.5207
17567TIP3   OH274191   1.243   4.351   1.106  0.1280 -0.0611  0.4617
17567TIP3    H174192   1.312   4.355   1.173 -0.5654 -0.7586  1.2408
17567TIP3    H274193   1.290   4.355   1.023  1.2707 -2.1128  0.9313
17568TIP3   OH274194   4.085   5.726   5.282  0.8821  0.2764  0.4737
17568TIP3    H174195   4.107   5.776   5.204  1.5921  1.6952  1.5538
17568TIP3    H274196   4.080   5.635   5.251 -0.5420  0.9623 -1.5482
17569TIP3   OH274197   5.548   0.488   1.500 -0.0943  0.5992  0.1292
17569TIP3    H174198   5.623   0.473   1.557 -0.8029 -0.4176  0.8259
17569TIP3    H274199   5.505   0.403   1.494 -1.4807  1.2667  0.1666
17570TIP3   OH274200   5.812   6.165   2.669  0.2506  0.0652  0.1147
17570TIP3    H174201   5.900   6.154   2.633 -0.2486  1.2561 -1.5747
17570TIP3    H274202   5.818   6.241   2.726  0.0202  1.0779 -1.1692
17571TIP3   OH274203   0.575   1.149   0.952  0.0577  0.3017 -0.1214
17571TIP3    H174204   0.523   1.183   1.025  1.0699 -0.5215  1.0290
17571TIP3    H274205   0.618   1.226   0.916  1.4511  0.4819  1.7424
17572TIP3   OH274206   6.541   6.754  11.898  0.1983  0.3121  0.2201
17572TIP3    H174207   6.446   6.740  11.898  0.1675  0.5191 -0.1015
17572TIP3    H274208   6.553   6.832  11.952  0.0797  0.9611 -0.6630
17573TIP3   OH274209   6.118   0.815   4.464  0.9730  0.2510  0.1982
17573TIP3    H174210   6.070   0.894   4.438 -0.4895 -0.3174  1.1309
17573TIP3    H274211   6.116   0.760   4.386  1.5841  0.9040 -0.3014
17574TIP3   OH274212   3.333   6.772   1.813  0.2428 -0.0022  0.1191
17574TIP3    H174213   3.388   6.698   1.787  0.7857  0.4642 -0.0735
17574TIP3    H274214   3.316   6.819   1.732  0.3418  0.3802  0.3174
17575TIP3   OH274215   0.699   2.655   1.763 -0.9124  0.0481 -0.2244
17575TIP3    H174216   0.732   2.567   1.743 -0.3380  0.4390 -1.0287
17575TIP3    H274217   0.613   2.658   1.722 -0.6119  0.1184 -0.8654
17576TIP3   OH274218   5.795   6.354  16.145  0.0144  0.3610 -0.9258
17576TIP3    H174219   5.750   6.273  16.168 -2.5106  1.5767 -1.2193
17576TIP3    H274220   5.829   6.387  16.228 -0.5292 -0.0989 -0.5126
17577TIP3   OH274221   5.946   1.518  10.579  0.3454 -0.2210 -0.2743
17577TIP3    H174222   5.888   1.527  10.655  0.4305 -2.1945  0.0630
17577TIP3    H274223   6.032   1.545  10.611 -0.3023  2.8967 -0.8216
17578TIP3   OH274224   2.600   0.588  13.359  0.2138 -0.4215  0.6477
17578TIP3    H174225   2.594   0.659  13.294  0.7951 -0.3087  0.7158
17578TIP3    H274226   2.559   0.625  13.437  2.2812  0.6095  1.3273
17579TIP3   OH274227   5.066   4.228   3.710  0.2291  0.3509 -0.1345
17579TIP3    H174228   5.123   4.157   3.740 -0.6171 -0.1311  0.3754
17579TIP3    H274229   5.035   4.269   3.791 -0.1608  0.6006 -0.4082
17580TIP3   OH274230   4.127   6.759  13.376 -0.8638  0.5394  0.0952
17580TIP3    H174231   4.175   6.840  13.391 -0.6845  0.5862 -0.6618
17580TIP3    H274232   4.119   6.753  13.280  1.1908 -1.5076 -0.0392
17581TIP3   OH274233   4.771   5.424  12.272 -0.2297 -0.2666 -0.1069
17581TIP3    H174234   4.799   5.472  12.194 -0.0278 -0.8580 -0.4001
17581TIP3    H274235   4.814   5.339  12.265  1.3666  0.3165  1.5944
17582TIP3   OH274236   4.169   0.654  16.812  0.0312 -0.0552 -0.5717
17582TIP3    H174237   4.238   0.632  16.749 -1.2060 -1.7577 -1.3991
17582TIP3    H274238   4.094   0.680  16.758 -1.0058 -1.3891  0.1551
17583TIP3   OH274239   3.963   4.844   1.849  0.2013 -0.1008 -0.2497
17583TIP3    H174240   3.961   4.938   1.869  0.5940 -0.1011 -0.1981
17583TIP3    H274241   4.054   4.818   1.867  0.7896  0.0390 -2.6610
17584TIP3   OH274242   5.830   1.386  14.407  0.0369  0.1239  0.4215
17584TIP3    H174243   5.845   1.307  14.354 -0.2441  0.5102 -0.2456
17584TIP3    H274244   5.885   1.373  14.485 -0.3994 -0.9634  0.5664
17585TIP3   OH274245   5.693   6.730   6.082  0.5676  0.4451 -0.4320
17585TIP3    H174246   5.751   6.754   6.155 -0.5799  1.4331  0.1839
17585TIP3    H274247   5.729   6.776   6.007  1.2671  0.1030 -0.3151
17586TIP3   OH274248   6.073   1.107   5.010  0.3705 -0.5132  0.1669
17586TIP3    H174249   6.069   1.186   5.064 -0.4890 -0.9605  0.7822
17586TIP3    H274250   6.123   1.133   4.932  1.4914  0.1884  1.0939
17587TIP3   OH274251   6.017   3.971   4.072  0.0448 -0.2670  0.5302
17587TIP3    H174252   5.956   3.928   4.132 -0.2264  0.3529  0.7151
17587TIP3    H274253   6.097   3.982   4.124 -0.3805  0.8029  1.0032
17588TIP3   OH274254   4.298   6.420   3.913 -0.4465 -0.2030  0.5170
17588TIP3    H174255   4.354   6.497   3.897 -0.4838  0.1186  1.8330
17588TIP3    H274256   4.329   6.384   3.996 -1.0170 -1.0970  0.3580
17589TIP3   OH274257   0.747   4.245  12.313  0.2503 -0.1327  0.1067
17589TIP3    H174258   0.691   4.246  12.235  1.6747  1.1658 -0.9645
17589TIP3    H274259   0.710   4.313  12.370  0.9851  1.0802 -0.8197
17590TIP3   OH274260   3.052   5.634   2.998 -0.5784  0.1696 -0.0044
17590TIP3    H174261   3.009   5.570   3.054 -2.1186  2.2417  1.3811
17590TIP3    H274262   3.078   5.704   3.058 -1.4430  2.0689 -1.6998
17591TIP3   OH274263   2.528   2.717   0.542 -0.1485  0.4730  0.6714
17591TIP3    H174264   2.519   2.623   0.528  1.7830  0.4401 -0.8386
17591TIP3    H274265   2.527   2.728   0.637  1.5795 -1.3450  0.9586
17592TIP3   OH274266   3.004   5.474  13.620 -0.6611  0.2312 -0.0952
17592TIP3    H174267   3.023   5.459  13.528 -0.3704  0.1776 -0.0292
17592TIP3    H274268   3.001   5.569  13.629  0.0222  0.2520 -0.0241
17593TIP3   OH274269   4.970   6.070  12.159 -0.3278 -0.0307 -0.8370
17593TIP3    H174270   4.982   6.082  12.253 -1.3729  1.1572 -0.8215
17593TIP3    H274271   5.052   6.101  12.120 -0.1128  0.0220 -0.3432
17594TIP3   OH274272   4.402   3.544   5.528 -0.5469 -0.6597 -0.2935
17594TIP3    H174273   4.389   3.586   5.613  0.3415  1.1291 -0.9836
17594TIP3    H274274   4.452   3.464   5.548 -1.5943 -1.0234  0.9880
17595TIP3   OH274275   1.342   5.879   0.380 -0.2060 -0.4745 -0.4849
17595TIP3    H174276   1.276   5.940   0.412 -0.5004 -0.1055 -1.7576
17595TIP3    H274277   1.318   5.863   0.289  0.9005 -1.1065 -0.6810
17596TIP3   OH274278   4.830   4.033   1.516 -0.0602  0.3108  0.0311
17596TIP3    H174279   4.784   4.111   1.485  0.3822  0.3151 -0.6347
17596TIP3    H274280   4.858   4.055   1.605  2.9553  2.2391 -1.2403
17597TIP3   OH274281   4.398   0.816  15.223 -0.3309  0.5602  0.2411
17597TIP3    H174282   4.334   0.887  15.231 -0.0423  0.8758 -0.2144
17597TIP3    H274283   4.457   0.829  15.297 -0.1421  0.9416  0.0276
17598TIP3   OH274284   3.792   5.040   2.379 -0.1196 -0.7014 -0.0699
17598TIP3    H174285   3.782   5.022   2.473  0.9248  0.4353  0.2841
17598TIP3    H274286   3.719   5.097   2.358 -0.1214 -0.6182  0.1563
17599TIP3   OH274287   4.133   4.366  17.019  0.1091  0.7311 -0.2102
17599TIP3    H174288   4.148   4.272  17.018  0.0038  0.7163 -1.1211
17599TIP3    H274289   4.116   4.387  17.111  0.5181 -0.0727  0.0510
17600TIP3   OH274290   0.143   0.101  16.758  0.3797 -0.0335  0.5454
17600TIP3    H174291   0.200   0.151  16.700 -0.7422  3.2354  2.0076
17600TIP3    H274292   0.201   0.069  16.827  0.9643  0.1827  0.1629
17601TIP3   OH274293   5.317   5.801   6.196  0.4972 -0.7903  0.4369
17601TIP3    H174294   5.247   5.770   6.253  0.1328 -1.4342 -0.3268
17601TIP3    H274295   5.397   5.772   6.238  0.3170 -0.0372  1.3277
17602TIP3   OH274296   0.832   5.032  15.175 -0.2272  0.1355 -0.5079
17602TIP3    H174297   0.917   4.987  15.180 -0.5442 -0.3328  1.6613
17602TIP3    H274298   0.769   4.966  15.204 -0.8556  1.5467  1.5690
17603TIP3   OH274299   6.494   4.454  11.549  0.0173  0.2520 -0.3845
17603TIP3    H174300   6.541   4.377  11.582  2.2108  1.9838  0.7602
17603TIP3    H274301   6.445   4.487  11.624  1.3331  1.5391 -0.0476
17604TIP3   OH274302   3.321   2.193  15.627 -0.1141 -0.2008  0.2275
17604TIP3    H174303   3.257   2.124  15.640 -0.9256  0.3146 -0.9153
17604TIP3    H274304   3.288   2.244  15.553  2.0210 -0.3934 -0.9477
17605TIP3   OH274305   4.903   6.667   2.441 -0.4316  0.0583 -1.0091
17605TIP3    H174306   4.942   6.737   2.389 -1.4688 -0.6693 -2.8428
17605TIP3    H274307   4.809   6.685   2.440 -0.4222  0.8580  1.9429
17606TIP3   OH274308   5.007   5.780   1.651 -0.4959  0.3645  0.2847
17606TIP3    H174309   5.036   5.695   1.619  3.2101  1.0723  1.2928
17606TIP3    H274310   4.930   5.801   1.598  0.2878 -2.2322 -2.0963
17607TIP3   OH274311   5.308   1.980   6.889  0.1431 -0.3046 -0.0652
17607TIP3    H174312   5.265   2.050   6.840 -2.6351  0.0355  2.5640
17607TIP3    H274313   5.259   1.901   6.866  1.1914 -0.8038 -0.6030
17608TIP3   OH274314   3.020   0.413   5.563  0.5770 -0.2674  0.3693
17608TIP3    H174315   3.017   0.447   5.474 -1.4930  1.0941  0.8587
17608TIP3    H274316   2.984   0.484   5.616  2.2417 -0.8284  2.3869
17609TIP3   OH274317   6.135   5.780   0.405  0.0072 -0.5569  0.8141
17609TIP3    H174318   6.118   5.793   0.312  0.6890  0.6482  0.8357
17609TIP3    H274319   6.207   5.839   0.425  0.6228 -1.6056  1.8755
17610TIP3   OH274320   4.637   3.134   6.295  0.2057 -0.5487 -0.0284
17610TIP3    H174321   4.658   3.201   6.360 -0.2309 -0.7894  0.3678
17610TIP3    H274322   4.555   3.164   6.255  0.2656 -0.6049 -0.1966
17611TIP3   OH274323   0.415   2.104  14.804  0.4228  0.9213 -0.5667
17611TIP3    H174324   0.362   2.184  14.806  1.5625  1.7311 -1.1561
17611TIP3    H274325   0.427   2.086  14.711  1.7342  1.1731 -0.4695
17612TIP3   OH274326   5.395   5.335   1.987  0.0836 -0.1718 -0.5432
17612TIP3    H174327   5.317   5.291   2.020  0.8852 -0.2164  1.3987
17612TIP3    H274328   5.416   5.289   1.906 -0.7924 -1.4309 -0.0805
17613TIP3   OH274329   3.890   3.020  15.264 -0.2211  0.2624  0.0026
17613TIP3    H174330   3.919   3.057  15.348  1.8159  1.7879 -1.2849
17613TIP3    H274331   3.797   3.042  15.260 -0.5952 -0.6189  2.2173
17614TIP3   OH274332   3.916   3.526   0.231 -0.1615  0.1888  0.0167
17614TIP3    H174333   3.981   3.508   0.298  1.3847 -1.2009 -1.7540
17614TIP3    H274334   3.856   3.452   0.234  0.1482 -0.0867 -0.3583
17615TIP3   OH274335   6.497   5.151   2.014 -0.3613  0.0246  0.6960
17615TIP3    H174336   6.505   5.068   1.968  0.1960  0.3637  0.1638
17615TIP3    H274337   6.546   5.137   2.096  0.1720 -0.0073  0.3760
17616TIP3   OH274338   6.284   3.043   6.196  0.2093  0.7078  0.0403
17616TIP3    H174339   6.293   3.058   6.290 -2.8170  0.2974  0.4974
17616TIP3    H274340   6.258   3.128   6.160 -2.3455  0.1185  0.2750
17617TIP3   OH274341   4.949   1.744   4.003 -0.0899 -0.3856 -0.3037
17617TIP3    H174342   4.895   1.756   4.081 -0.2032  0.5432 -0.5138
17617TIP3    H274343   4.912   1.804   3.939  0.7845 -0.2076 -0.6592
17618TIP3   OH274344   1.598   0.147  14.371  0.0257  1.0729 -0.4536
17618TIP3    H174345   1.593   0.198  14.451 -0.8190  0.7903 -0.3191
17618TIP3    H274346   1.645   0.067  14.396  0.3866  1.2982 -0.4101
17619TIP3   OH274347   4.359   0.957   3.954  0.1863 -0.4218  0.0442
17619TIP3    H174348   4.428   0.891   3.961 -0.2655 -0.9593 -0.4693
17619TIP3    H274349   4.360   0.984   3.862 -0.2813 -0.4214  0.0364
17620TIP3   OH274350   6.498   3.723  15.549 -0.2777  0.3175  0.5233
17620TIP3    H174351   6.469   3.775  15.624 -2.2581  0.8175 -0.5243
17620TIP3    H274352   6.421   3.716  15.493  0.6227 -1.6488 -0.5872
17621TIP3   OH274353   2.860   5.769   2.854  0.1585  0.7029 -0.0532
17621TIP3    H174354   2.909   5.750   2.934  1.4770  0.5317 -0.8749
17621TIP3    H274355   2.768   5.769   2.882  0.4558 -1.1173  1.1065
17622TIP3   OH274356   4.182   3.795  10.861  0.2909  0.4674 -0.8188
17622TIP3    H174357   4.189   3.761  10.772  1.0543  0.3372 -0.7192
17622TIP3    H274358   4.163   3.888  10.850  1.1881  0.6260 -1.1418
17623TIP3   OH274359   6.265   3.644   5.982 -0.0059 -0.5015 -0.0929
17623TIP3    H174360   6.336   3.629   6.045  0.6161  1.0696 -0.3610
17623TIP3    H274361   6.226   3.727   6.009 -0.1912 -0.1585 -1.3283
17624TIP3   OH274362   0.275   4.493   1.050  0.1327 -0.2102 -0.6902
17624TIP3    H174363   0.322   4.558   1.104 -0.4189 -0.3047 -0.0881
17624TIP3    H274364   0.226   4.441   1.113  0.8981 -1.5006 -1.1355
17625TIP3   OH274365   3.540   6.507  15.773 -0.7345 -0.3804 -0.7206
17625TIP3    H174366   3.500   6.586  15.738 -0.3569  0.7604  1.2422
17625TIP3    H274367   3.472   6.468  15.828 -0.6881 -1.0457 -1.1228
17626TIP3   OH274368   4.339   4.555   5.739 -0.2455 -0.7896  0.1690
17626TIP3    H174369   4.327   4.486   5.804 -1.7570 -0.3431  0.4187
17626TIP3    H274370   4.429   4.584   5.750 -0.0252 -1.7568  1.0258
17627TIP3   OH274371   4.124   3.267   4.366  0.0795  0.0537  0.0139
17627TIP3    H174372   4.088   3.190   4.412 -1.9801  0.6660 -0.4958
17627TIP3    H274373   4.078   3.341   4.404  2.8452  1.2499  1.3097
17628TIP3   OH274374   2.471   4.773  12.855  0.0326 -0.1117 -0.4686
17628TIP3    H174375   2.556   4.816  12.868 -0.7610  1.0069  1.5082
17628TIP3    H274376   2.431   4.821  12.783  1.4054 -1.2786 -2.0925
17629TIP3   OH274377   4.298   1.476  14.533 -0.5210  0.0008  0.2759
17629TIP3    H174378   4.293   1.500  14.625  0.4573 -0.2191  0.3987
17629TIP3    H274379   4.348   1.547  14.492 -0.3079 -0.2727  0.0568
17630TIP3   OH274380   2.734   2.764  14.366  0.4171 -0.5582 -0.2892
17630TIP3    H174381   2.786   2.684  14.372 -1.0348 -1.4600  1.1126
17630TIP3    H274382   2.644   2.736  14.379 -0.0984  1.3559  0.7312
17631TIP3   OH274383   6.486   5.898  13.314  0.6010 -0.1562  0.4455
17631TIP3    H174384   6.431   5.832  13.356 -1.5091  1.2750  0.0947
17631TIP3    H274385   6.461   5.980  13.355  1.7972  0.6996 -0.4496
17632TIP3   OH274386   3.446   3.060   0.498 -0.0487 -0.4115  0.0702
17632TIP3    H174387   3.423   3.115   0.423  0.4954  1.7642  1.4016
17632TIP3    H274388   3.362   3.034   0.535 -0.3540  1.0452  0.4404
17633TIP3   OH274389   5.521   0.858   2.025 -0.4257 -0.2448 -0.4086
17633TIP3    H174390   5.483   0.886   2.108 -0.4444 -0.7117 -0.2627
17633TIP3    H274391   5.612   0.838   2.046  0.6491  3.0856 -1.1684
17634TIP3   OH274392   2.714   5.859   3.725  0.1531  0.0813 -0.1170
17634TIP3    H174393   2.767   5.923   3.677  1.7435 -1.0572  0.0183
17634TIP3    H274394   2.730   5.879   3.817 -1.1959  0.9249 -0.0520
17635TIP3   OH274395   5.235   4.259  13.540  0.4261  0.1879  0.2182
17635TIP3    H174396   5.144   4.238  13.517  1.4897 -1.9951 -2.5181
17635TIP3    H274397   5.271   4.177  13.574  1.7002  0.6973  0.1473
17636TIP3   OH274398   2.223   2.693  12.182  0.0620 -0.0171 -0.2094
17636TIP3    H174399   2.159   2.760  12.206 -1.4364 -1.0676 -1.0691
17636TIP3    H274400   2.248   2.714  12.092  0.7814  0.2689  0.0531
17637TIP3   OH274401   3.496   6.470   5.089 -0.4429  0.3203 -0.4140
17637TIP3    H174402   3.506   6.556   5.048 -2.9898  2.1835  2.4358
17637TIP3    H274403   3.550   6.475   5.168  1.2336 -1.6794 -1.3470
17638TIP3   OH274404   3.593   5.406  13.351  0.4582  0.7178 -0.1118
17638TIP3    H174405   3.624   5.319  13.324  0.8179  0.8416 -0.0929
17638TIP3    H274406   3.654   5.467  13.310  0.2321  0.9615 -0.0854
17639TIP3   OH274407   6.647   6.156  12.150  0.1042 -0.4230  0.0525
17639TIP3    H174408   6.678   6.223  12.088  2.5071 -0.5410  1.0601
17639TIP3    H274409   6.572   6.198  12.194 -0.5767  0.2939 -1.6770
17640TIP3   OH274410   1.382   6.381   1.624 -0.0894 -0.0997  0.1296
17640TIP3    H174411   1.342   6.460   1.586  0.3423 -0.0277 -0.1791
17640TIP3    H274412   1.368   6.389   1.718  0.1967  0.4787  0.1226
17641TIP3   OH274413   5.015   6.246  13.545  0.1066 -0.1694  0.8123
17641TIP3    H174414   5.093   6.191  13.553  1.1014  1.0619  0.0610
17641TIP3    H274415   5.044   6.332  13.574 -0.8372  0.4091  0.0830
17642TIP3   OH274416   3.164   2.734   4.289  0.1664 -0.2445  0.1434
17642TIP3    H174417   3.076   2.716   4.256 -0.5197  0.0063  1.7480
17642TIP3    H274418   3.179   2.668   4.357 -0.5933  2.2285  2.9578
17643TIP3   OH274419   0.726   3.749  14.042 -0.0154 -0.3112  0.2178
17643TIP3    H174420   0.657   3.685  14.026 -1.5082  1.5692 -1.3120
17643TIP3    H274421   0.790   3.733  13.973  0.7941 -1.5891  1.2133
17644TIP3   OH274422   6.432   6.436   3.882  0.5421  0.4676  0.1905
17644TIP3    H174423   6.376   6.513   3.888 -0.1446 -0.0498  0.7365
17644TIP3    H274424   6.519   6.470   3.863  0.3432  1.4021  0.8736
17645TIP3   OH274425   6.608   4.444  14.102 -0.7534 -0.2215 -0.3241
17645TIP3    H174426   6.544   4.411  14.166 -0.4887 -1.1539 -0.5351
17645TIP3    H274427   6.652   4.516  14.147 -1.1843 -0.2954  0.2220
17646TIP3   OH274428   2.868   4.412  12.280  0.3930 -0.0578 -0.3754
17646TIP3    H174429   2.774   4.400  12.271  0.4817 -1.0097 -0.1027
17646TIP3    H274430   2.902   4.407  12.190  0.3581 -1.3683 -0.3332
17647TIP3   OH274431   6.380   1.645   5.710  0.2469  0.1543 -0.4855
17647TIP3    H174432   6.396   1.643   5.804  2.2549 -0.7555 -0.7981
17647TIP3    H274433   6.317   1.574   5.695  1.1419 -0.7568 -0.0123
17648TIP3   OH274434   4.832   6.554  11.185  0.4019  0.1321  0.0088
17648TIP3    H174435   4.860   6.494  11.254 -0.5718 -1.1860 -0.6898
17648TIP3    H274436   4.912   6.598  11.157  1.0429 -0.4071  0.9512
17649TIP3   OH274437   4.593   5.046  12.640 -0.6238  0.2598 -0.1493
17649TIP3    H174438   4.599   5.037  12.545 -0.8741  0.7826 -0.2153
17649TIP3    H274439   4.565   5.136  12.654  0.8704  0.6440  0.4815
17650TIP3   OH274440   6.509   1.464  15.555  0.0362 -0.4628  0.0576
17650TIP3    H174441   6.591   1.513  15.557 -0.4496  0.4284 -0.6841
17650TIP3    H274442   6.484   1.453  15.647 -0.0354  1.0506  0.2354
17651TIP3   OH274443   1.240   5.529  13.337 -0.1178  0.2666  0.0079
17651TIP3    H174444   1.283   5.526  13.252  0.1735 -0.3098  0.1680
17651TIP3    H274445   1.277   5.607  13.380  3.6169 -2.0879  1.5697
17652TIP3   OH274446   5.103   4.954  16.237 -0.4311 -0.4306 -0.5053
17652TIP3    H174447   5.101   4.866  16.276 -0.5295  0.5854  1.9417
17652TIP3    H274448   5.196   4.969  16.218 -0.1918 -0.4648  0.5812
17653TIP3   OH274449   4.346   2.438  15.029  0.5031 -0.4961  0.0554
17653TIP3    H174450   4.389   2.403  15.107  0.0567 -0.8174  0.1594
17653TIP3    H274451   4.325   2.362  14.976  0.7742 -0.2810 -0.3652
17654TIP3   OH274452   4.162   3.259  16.873  0.6894 -0.0064  0.9590
17654TIP3    H174453   4.120   3.284  16.955  1.4123  0.6350  1.1391
17654TIP3    H274454   4.255   3.276  16.887  0.6967  1.2341 -0.3722
17655TIP3   OH274455   0.270   5.393  10.734  0.7251 -0.5684 -0.1363
17655TIP3    H174456   0.341   5.362  10.678  1.5909  1.7104 -0.3999
17655TIP3    H274457   0.310   5.460  10.790 -0.4517 -1.7024  2.2167
17656TIP3   OH274458   4.492   5.297   4.018 -0.8188  0.6952  0.6253
17656TIP3    H174459   4.465   5.389   4.023 -0.6612  0.7301  0.8451
17656TIP3    H274460   4.491   5.266   4.108  0.4681  0.8746  0.7163
17657TIP3   OH274461   6.179   4.943  13.244 -0.0406  0.4382  0.7084
17657TIP3    H174462   6.243   4.886  13.288 -0.8256  0.0501  1.3678
17657TIP3    H274463   6.117   4.967  13.312 -1.2884 -0.1821 -0.1705
17658TIP3   OH274464   3.669   5.755  12.615 -0.0559  0.0046  0.1746
17658TIP3    H174465   3.739   5.743  12.550 -0.3749  0.9602 -0.3696
17658TIP3    H274466   3.607   5.814  12.572 -1.9319 -1.9374  0.0722
17659TIP3   OH274467   1.221   5.202   0.033  0.1606 -0.4811 -0.0953
17659TIP3    H174468   1.282   5.142  -0.008 -0.1597  0.2755 -1.7521
17659TIP3    H274469   1.134   5.173   0.004 -0.0251  0.4771 -0.5554
17660TIP3   OH274470   0.867   2.832  13.310 -0.2164  1.2310 -0.5154
17660TIP3    H174471   0.800   2.857  13.373  0.1452  0.2209  0.2947
17660TIP3    H274472   0.893   2.914  13.268 -1.7109  1.6762 -0.6019
17661TIP3   OH274473   1.829   4.561  13.715 -0.3227 -0.3903  0.3712
17661TIP3    H174474   1.893   4.571  13.645 -0.2154 -1.4679  0.2950
17661TIP3    H274475   1.838   4.640  13.768  0.6492 -0.2557  0.0169
17662TIP3   OH274476   2.396   3.971  17.131 -0.2329  0.1345 -0.2698
17662TIP3    H174477   2.365   3.935  17.048 -0.5892 -0.4787  0.1143
17662TIP3    H274478   2.327   4.032  17.158 -1.3332 -1.4732  0.7447
17663TIP3   OH274479   5.334   5.250   4.931 -0.1508  0.2637  0.7866
17663TIP3    H174480   5.372   5.168   4.901  1.8125  1.3167  0.2269
17663TIP3    H274481   5.404   5.293   4.980 -0.7292  2.1079  0.0951
17664TIP3   OH274482   3.189   3.983   1.216 -0.0437 -0.5474  0.0058
17664TIP3    H174483   3.105   4.011   1.252  1.5073  0.7748  2.9420
17664TIP3    H274484   3.240   4.063   1.207  1.2220 -1.4148 -0.9035
17665TIP3   OH274485   2.751   1.616   4.690  0.4547 -0.2456  0.3558
17665TIP3    H174486   2.662   1.581   4.683  0.8617 -1.6055  1.5124
17665TIP3    H274487   2.792   1.593   4.607 -0.9695  2.6819 -1.3061
17666TIP3   OH274488   3.834   2.181   2.857 -0.6007 -0.0610  0.8230
17666TIP3    H174489   3.752   2.213   2.895 -1.0590 -1.4826  1.1179
17666TIP3    H274490   3.819   2.087   2.845  1.4986 -0.6698  2.3366
17667TIP3   OH274491   4.078   5.318   5.710 -0.0621 -0.3189 -0.2431
17667TIP3    H174492   4.084   5.324   5.615  0.1892 -0.6550 -0.2507
17667TIP3    H274493   4.163   5.347   5.742 -0.8792  1.9719 -0.0038
17668TIP3   OH274494   2.593   5.458   1.962  0.1770 -0.1851 -0.0961
17668TIP3    H174495   2.664   5.490   2.018 -1.4164  1.3804  1.1595
17668TIP3    H274496   2.573   5.532   1.905 -1.5026  0.0373  0.7104
17669TIP3   OH274497   5.289   0.547  16.906 -0.0375 -0.0075 -0.4569
17669TIP3    H174498   5.200   0.548  16.871  0.2594  0.5259 -1.2280
17669TIP3    H274499   5.345   0.550  16.829  0.6344  1.3725  0.0456
17670TIP3   OH274500   4.359   6.084   6.220  0.2510  0.4916  0.0571
17670TIP3    H174501   4.302   6.052   6.151  1.8864  1.5281 -1.8716
17670TIP3    H274502   4.301   6.100   6.295 -1.9098  1.1780 -1.6879
17671TIP3   OH274503   0.156   2.802  15.101 -0.0946  0.5860 -0.2705
17671TIP3    H174504   0.122   2.844  15.180 -2.3931  0.9771 -1.3709
17671TIP3    H274505   0.088   2.738  15.077  0.0508  1.1641 -2.4323
17672TIP3   OH274506   4.265   1.499  13.338  0.1593 -0.4724 -0.1436
17672TIP3    H174507   4.347   1.484  13.385 -0.2409 -2.2481  0.0547
17672TIP3    H274508   4.244   1.414  13.299 -1.5609 -0.0323 -0.2484
17673TIP3   OH274509   2.492   1.018   0.867 -0.4153  0.6750 -0.0273
17673TIP3    H174510   2.400   1.019   0.842 -0.0714  0.3787 -1.4425
17673TIP3    H274511   2.537   1.064   0.796  0.9805 -2.8126 -1.6792
17674TIP3   OH274512   3.714   4.830   0.422  0.5005 -0.5268  0.0441
17674TIP3    H174513   3.638   4.777   0.400 -1.2698  1.3632  1.2913
17674TIP3    H274514   3.753   4.853   0.337 -1.7693  0.4613 -0.8061
17675TIP3   OH274515   6.516   2.222  12.105 -0.0895 -0.1347  0.7349
17675TIP3    H174516   6.582   2.219  12.174  0.5588 -1.1443  0.0900
17675TIP3    H274517   6.433   2.209  12.150  0.1043  1.2451  1.5693
17676TIP3   OH274518   1.008   0.618  15.168  0.0364 -0.0710 -0.2037
17676TIP3    H174519   1.075   0.556  15.139 -0.1405  0.1603 -1.1519
17676TIP3    H274520   0.947   0.565  15.219  0.7365 -0.3584  0.3468
17677TIP3   OH274521   0.990   3.163   3.450  0.1076 -0.0652  0.0226
17677TIP3    H174522   0.963   3.101   3.517  0.5541  1.1502  1.3886
17677TIP3    H274523   1.079   3.136   3.426  1.1766  1.2201  2.1920
17678TIP3   OH274524   2.035   6.166   4.056  0.4462  0.2123  0.0916
17678TIP3    H174525   1.984   6.236   4.096  2.8445  1.8933  0.3853
17678TIP3    H274526   2.048   6.194   3.965  0.2490 -0.5574 -0.1840
17679TIP3   OH274527   3.314   4.157  14.759  0.2329 -0.6196  0.6232
17679TIP3    H174528   3.376   4.213  14.712  1.3857  0.2934  3.0589
17679TIP3    H274529   3.369   4.089  14.798 -0.8780 -2.1990 -0.4436
17680TIP3   OH274530   1.352   3.147   3.636  0.1271  1.0836  0.2379
17680TIP3    H174531   1.437   3.190   3.649  1.9252 -1.6796 -1.3576
17680TIP3    H274532   1.334   3.158   3.543 -1.1708  1.4101  0.5132
17681TIP3   OH274533   6.550   0.639   1.036 -0.2726  0.4607  0.0903
17681TIP3    H174534   6.559   0.734   1.026  3.2135  0.2890  0.2120
17681TIP3    H274535   6.535   0.626   1.130  0.7800  0.8754  0.3301
17682TIP3   OH274536   1.618   4.836  13.546  0.5920  0.4076 -0.3454
17682TIP3    H174537   1.661   4.919  13.565  2.1425 -0.8310  2.0679
17682TIP3    H274538   1.680   4.789  13.491  0.6551  0.0741  0.0024
17683TIP3   OH274539   3.246   4.514  14.612  0.1763  0.0245  0.5268
17683TIP3    H174540   3.196   4.435  14.595  1.3761 -0.5938 -0.3475
17683TIP3    H274541   3.230   4.535  14.704 -2.0203  0.1416  0.1612
17684TIP3   OH274542   2.573   3.064  15.147  0.0550  0.3612 -0.2423
17684TIP3    H174543   2.626   3.130  15.191 -0.5197  0.5765  0.1357
17684TIP3    H274544   2.583   3.085  15.054  0.8124  0.2546 -0.1970
17685TIP3   OH274545   1.848   3.353  15.901 -0.0752 -0.2763  0.1779
17685TIP3    H174546   1.839   3.347  15.996  1.0472 -1.7332  0.2261
17685TIP3    H274547   1.765   3.322  15.866 -0.5523  0.4246  0.6734
17686TIP3   OH274548   5.511   4.724   1.663  0.3254  0.9031 -0.1511
17686TIP3    H174549   5.593   4.765   1.690  1.5963 -1.1473 -0.6915
17686TIP3    H274550   5.502   4.648   1.720 -0.2417  0.0835 -1.3028
17687TIP3   OH274551   1.174   3.394   1.381  0.3551  0.3180  0.2027
17687TIP3    H174552   1.252   3.443   1.406  0.1842  0.8395 -0.2626
17687TIP3    H274553   1.112   3.461   1.351  1.0156 -0.2732 -2.8689
17688TIP3   OH274554   0.074   0.542   4.082 -0.3841  0.0078 -0.4794
17688TIP3    H174555   0.084   0.610   4.150 -2.2338  0.2820 -0.4429
17688TIP3    H274556   0.099   0.587   4.001 -2.8992  1.2226 -0.6613
17689TIP3   OH274557   1.793   2.602   0.945  0.4561 -0.1024 -0.4271
17689TIP3    H174558   1.770   2.658   1.018 -0.4936 -0.6235 -0.3084
17689TIP3    H274559   1.762   2.515   0.970  2.3644 -0.8165 -0.3827
17690TIP3   OH274560   3.670   4.595  12.583  0.0125  0.2774 -0.2394
17690TIP3    H174561   3.725   4.570  12.508  1.7837 -0.2255  1.1579
17690TIP3    H274562   3.626   4.514  12.609  0.3498  0.1780  0.0198
17691TIP3   OH274563   1.994   5.112  13.136  0.8645 -0.0794  0.5590
17691TIP3    H174564   2.077   5.157  13.123  0.5667  0.0417 -1.1004
17691TIP3    H274565   1.969   5.080  13.049 -0.2419 -1.1542  1.2279
17692TIP3   OH274566   3.001   6.462   0.014  0.2557 -0.4860 -0.2501
17692TIP3    H174567   2.977   6.549  -0.018  3.2969  1.0147  1.1665
17692TIP3    H274568   2.923   6.431   0.060 -0.4746  2.0999  0.4046
17693TIP3   OH274569   3.610   0.752  15.740 -0.2279 -0.0750 -0.0529
17693TIP3    H174570   3.647   0.694  15.807 -0.7539 -1.6424 -1.0721
17693TIP3    H274571   3.677   0.820  15.728 -0.9896  1.5799  3.5636
17694TIP3   OH274572   3.735   5.377   1.790  0.2549  0.1525  0.4257
17694TIP3    H174573   3.702   5.384   1.880  0.0646 -0.3491  0.3994
17694TIP3    H274574   3.830   5.384   1.799  0.1830  1.0300  0.5649
17695TIP3   OH274575   3.593   0.828  11.682 -0.2403  0.2642 -0.3975
17695TIP3    H174576   3.614   0.863  11.596 -0.1888  0.0947 -0.4552
17695TIP3    H274577   3.602   0.902  11.742  0.2581  0.2555 -0.4594
17696TIP3   OH274578   5.475   6.519   0.348  0.3460 -0.1182 -0.8757
17696TIP3    H174579   5.418   6.582   0.391  3.0992  2.4381 -0.5710
17696TIP3    H274580   5.428   6.493   0.269 -1.5108  1.2600 -0.2785
17697TIP3   OH274581   3.090   3.293   3.961 -0.0618 -0.2490  0.4972
17697TIP3    H174582   3.014   3.336   3.999 -0.7789 -1.2339  0.2203
17697TIP3    H274583   3.163   3.353   3.978 -0.6903  0.1965  1.7493
17698TIP3   OH274584   2.154   2.105  11.830  0.0257  0.2866  0.2829
17698TIP3    H174585   2.145   2.154  11.748  1.1058 -0.0348 -0.0483
17698TIP3    H274586   2.197   2.023  11.805 -1.7149 -0.8634  0.8280
17699TIP3   OH274587   0.527   4.140  10.825 -0.3393  0.4942  0.1291
17699TIP3    H174588   0.564   4.055  10.800 -3.1469 -0.6519 -0.4833
17699TIP3    H274589   0.455   4.154  10.765 -1.5858  2.0607  1.8650
17700TIP3   OH274590   4.939   6.295   3.004 -0.4044  0.0135  0.4393
17700TIP3    H174591   4.998   6.335   3.067  0.0182 -0.5608  0.4111
17700TIP3    H274592   4.851   6.320   3.035 -0.1522  1.9396 -0.2307
17701TIP3   OH274593   2.665   0.504   6.203  0.4172  0.6159 -0.0644
17701TIP3    H174594   2.733   0.561   6.168 -0.0364  1.2331  0.0393
17701TIP3    H274595   2.588   0.561   6.211  0.2498  0.2685  1.0579
17702TIP3   OH274596   5.441   6.227   1.741 -0.1284 -0.0463  0.0372
17702TIP3    H174597   5.440   6.162   1.672 -1.3499  2.2494 -2.2876
17702TIP3    H274598   5.527   6.270   1.733  0.0167 -0.2445  0.4635
17703TIP3   OH274599   3.961   1.984  13.851  0.1200 -0.0967 -0.0180
17703TIP3    H174600   3.906   2.041  13.905  1.8755  1.3676  0.3050
17703TIP3    H274601   3.910   1.904  13.842 -0.7943  0.0757  2.7193
17704TIP3   OH274602   4.736   2.395  13.140  0.3504  0.2166  0.4972
17704TIP3    H174603   4.774   2.475  13.102  0.4651  0.2695  0.7263
17704TIP3    H274604   4.647   2.419  13.162 -0.0817 -0.1297 -0.7747
17705TIP3   OH274605   5.388   4.737   3.892 -0.3661 -0.4019  0.2430
17705TIP3    H174606   5.297   4.763   3.876 -0.9000 -1.8912  0.6720
17705TIP3    H274607   5.409   4.775   3.977 -0.6363 -0.1953  0.2200
17706TIP3   OH274608   6.713   3.928   3.614 -0.1228 -0.3519 -0.0421
17706TIP3    H174609   6.725   3.894   3.525 -0.8176 -0.2142 -0.1985
17706TIP3    H274610   6.681   4.017   3.601  0.0685 -0.2253  0.3488
17707TIP3   OH274611   6.313   3.471   3.714 -0.3990  0.0216 -0.1447
17707TIP3    H174612   6.373   3.438   3.646  0.0260  0.4878  0.0027
17707TIP3    H274613   6.256   3.396   3.733 -0.5077 -0.1280 -0.9943
17708TIP3   OH274614   5.788   0.600  14.691  0.7600  0.1412 -0.1903
17708TIP3    H174615   5.797   0.567  14.780 -1.5513 -0.2686 -0.0381
17708TIP3    H274616   5.728   0.674  14.698 -0.9252 -1.0100 -1.5681
17709TIP3   OH274617   0.893   1.291  16.972 -0.1350 -0.7124 -0.0705
17709TIP3    H174618   0.981   1.259  16.952  0.7506  0.0942  2.1910
17709TIP3    H274619   0.857   1.227  17.033 -1.2795 -1.1972 -1.2150
17710TIP3   OH274620   4.823   2.313   2.488  0.5451  0.3772  0.5448
17710TIP3    H174621   4.886   2.363   2.435  0.6903  0.6752  0.9915
17710TIP3    H274622   4.749   2.373   2.500  0.0789 -0.0440 -0.1482
17711TIP3   OH274623   0.919   5.530   4.027 -0.2381 -0.3686  0.2565
17711TIP3    H174624   0.835   5.575   4.016 -1.0740 -2.1631 -1.4373
17711TIP3    H274625   0.896   5.447   4.069  0.6905 -0.8209 -0.0996
17712TIP3   OH274626   2.252   2.064  11.425  0.3779 -0.7315 -0.2171
17712TIP3    H174627   2.288   1.986  11.383  1.7059 -0.5836  0.5973
17712TIP3    H274628   2.328   2.118  11.446 -0.2800 -0.4369  1.6331
17713TIP3   OH274629   0.124   6.774   5.508 -0.1045 -0.4587 -0.2446
17713TIP3    H174630   0.097   6.832   5.579  1.0007 -2.5539  2.0294
17713TIP3    H274631   0.043   6.732   5.479 -0.4205 -0.5243  0.6953
17714TIP3   OH274632   0.607   5.806   1.994 -0.0254 -0.1007 -0.1576
17714TIP3    H174633   0.589   5.788   2.086  0.4062  1.2812  0.2210
17714TIP3    H274634   0.544   5.874   1.971 -0.2687 -0.5885 -0.9459
17715TIP3   OH274635   1.554   3.080   5.540  0.3131 -0.0939  0.0138
17715TIP3    H174636   1.530   3.117   5.625  2.1522 -0.1389  0.5963
17715TIP3    H274637   1.643   3.045   5.553  0.2524 -0.9855 -1.6613
17716TIP3   OH274638   4.654   1.677  11.916 -0.0812 -0.2884  0.3087
17716TIP3    H174639   4.709   1.751  11.940 -0.6771 -0.2812  1.7356
17716TIP3    H274640   4.614   1.703  11.833  0.0472  0.8049  0.5768
17717TIP3   OH274641   6.035   2.283  12.268  0.0444  0.0520  0.0098
17717TIP3    H174642   6.128   2.291  12.247 -0.3921 -0.7165 -2.5975
17717TIP3    H274643   6.016   2.190  12.260 -0.5564 -0.1207  2.6926
17718TIP3   OH274644   3.478   2.533   4.511 -0.2317  0.0841  0.5040
17718TIP3    H174645   3.447   2.603   4.453 -0.0267  0.8787  1.3129
17718TIP3    H274646   3.523   2.580   4.581  1.0838 -0.9434  0.3756
17719TIP3   OH274647   4.586   6.138   2.744 -0.0963  0.0669 -0.3373
17719TIP3    H174648   4.553   6.163   2.657  1.0270  1.1880 -0.4648
17719TIP3    H274649   4.681   6.142   2.736  0.0580 -1.0582  0.6145
17720TIP3   OH274650   4.789   5.867   1.295 -0.0657  0.2762  0.2588
17720TIP3    H174651   4.794   5.793   1.233  1.1876  1.0470 -0.6026
17720TIP3    H274652   4.822   5.942   1.245 -1.4926  1.4778  1.0591
17721TIP3   OH274653   2.749   6.078  14.094 -0.1095  0.4840 -0.2380
17721TIP3    H174654   2.773   6.005  14.151  1.4776  1.7446  0.7943
17721TIP3    H274655   2.829   6.099  14.046 -0.3323  1.9654 -0.0001
17722TIP3   OH274656   2.141   1.820  14.446  0.4244  0.7006 -0.4046
17722TIP3    H174657   2.125   1.808  14.352 -0.6910  0.3566 -0.1860
17722TIP3    H274658   2.150   1.731  14.480  1.1304  0.8355 -0.2277
17723TIP3   OH274659   4.516   0.059   3.173  0.6430  0.2679  0.5917
17723TIP3    H174660   4.604   0.045   3.138 -0.2715  1.1088 -2.3396
17723TIP3    H274661   4.507   0.155   3.179 -0.1085  0.1991  0.7282
17724TIP3   OH274662   4.447   6.672   3.533  0.4847 -0.0085  0.3570
17724TIP3    H174663   4.424   6.765   3.527 -0.7332 -0.3968 -2.7764
17724TIP3    H274664   4.369   6.630   3.569 -0.1905 -0.1559 -1.2157
17725TIP3   OH274665   4.346   4.270   4.479  0.3651  0.4509  0.6611
17725TIP3    H174666   4.441   4.268   4.493  0.9538  1.4347 -2.4316
17725TIP3    H274667   4.323   4.363   4.487 -0.3501  0.2345  1.2431
17726TIP3   OH274668   3.657   5.088  11.052  0.0305 -0.1804  0.4036
17726TIP3    H174669   3.720   5.160  11.055  1.2856 -1.2000 -0.4134
17726TIP3    H274670   3.705   5.016  11.011 -1.5792 -1.1061  0.0733
17727TIP3   OH274671   5.773   5.472  11.237  0.2506  0.1662 -0.1775
17727TIP3    H174672   5.782   5.432  11.323  1.9037  0.4040 -0.2074
17727TIP3    H274673   5.783   5.399  11.176 -4.0171 -0.5938 -0.2593
17728TIP3   OH274674   4.063   4.960   3.972  0.3106  0.0622 -1.0799
17728TIP3    H174675   4.126   4.959   3.901 -1.3540  0.9648 -2.6554
17728TIP3    H274676   4.088   5.035   4.026  1.2591 -0.3051 -0.9919
17729TIP3   OH274677   2.979   5.978   1.969 -0.1450  0.0597  0.1936
17729TIP3    H174678   2.896   6.015   1.939  1.1167  2.5951 -0.4648
17729TIP3    H274679   3.039   6.052   1.970  2.5961 -1.9927 -1.0503
17730TIP3   OH274680   1.096   0.630  14.790  0.4959  0.4927 -0.1315
17730TIP3    H174681   1.135   0.646  14.876 -0.5725 -1.5478  0.8022
17730TIP3    H274682   1.018   0.685  14.788 -0.7048 -1.0671  1.1888
17731TIP3   OH274683   0.454   1.553   5.749 -0.8021  0.2044 -0.0085
17731TIP3    H174684   0.530   1.496   5.747  0.0363  1.3116 -0.5793
17731TIP3    H274685   0.388   1.503   5.797  0.6280 -0.3468  1.4737
17732TIP3   OH274686   5.933   0.028   4.812  0.0057 -0.4751 -0.1385
17732TIP3    H174687   5.983   0.100   4.773 -2.5871 -0.1762 -3.3620
17732TIP3    H274688   5.970  -0.051   4.773  1.1213 -0.7531  1.3770
17733TIP3   OH274689   0.781   0.952  16.782 -0.8222 -0.1950 -1.1431
17733TIP3    H174690   0.700   0.945  16.833 -0.7026  2.3806 -0.4442
17733TIP3    H274691   0.839   0.887  16.821 -1.6150 -0.0954  0.3132
17734TIP3   OH274692   4.941   0.472   1.243  0.4846  0.0679  0.9044
17734TIP3    H174693   5.019   0.417   1.252  0.0473 -0.6724  0.3336
17734TIP3    H274694   4.887   0.426   1.179  0.1606  1.2507  0.2961
17735TIP3   OH274695   1.351   1.714   5.245 -0.6243 -0.0825  0.1197
17735TIP3    H174696   1.292   1.639   5.235  0.5919 -1.0661 -0.0028
17735TIP3    H274697   1.376   1.712   5.338 -1.8307  1.1661  0.4922
17736TIP3   OH274698   1.106   5.786   4.378  0.4551 -0.4847  0.0029
17736TIP3    H174699   1.182   5.756   4.327  1.2447 -0.2752  1.0135
17736TIP3    H274700   1.138   5.787   4.468 -1.1234 -1.5589  0.6139
17737TIP3   OH274701   5.849   2.803   3.042  0.3230  0.2774  0.1269
17737TIP3    H174702   5.759   2.770   3.043  0.8679 -1.3553 -1.1574
17737TIP3    H274703   5.903   2.725   3.053  1.6013  1.3190  1.5819
17738TIP3   OH274704   3.517   0.267   0.409  0.0635 -0.2464 -0.2738
17738TIP3    H174705   3.429   0.306   0.408  0.8991  1.9276  1.7517
17738TIP3    H274706   3.522   0.224   0.494  1.3539  0.7493  0.1802
17739TIP3   OH274707   5.156   0.010  16.422 -0.6087 -1.4385  0.6662
17739TIP3    H174708   5.093  -0.028  16.360 -2.0263  0.9609  0.5229
17739TIP3    H274709   5.109   0.016  16.504 -0.4877  0.0482  0.6568
17740TIP3   OH274710   2.736   4.884  12.377 -0.1562 -0.3257 -0.3412
17740TIP3    H174711   2.722   4.801  12.331 -0.8159  0.0563 -0.8498
17740TIP3    H274712   2.814   4.922  12.337 -0.6009 -0.0974 -1.0146
17741TIP3   OH274713   3.479   5.319   1.704 -0.3190  0.0933  1.3180
17741TIP3    H174714   3.405   5.367   1.741 -0.8599  0.4683 -0.1796
17741TIP3    H274715   3.555   5.351   1.754 -1.1991 -0.7551  3.2961
17742TIP3   OH274716   2.083   2.594   5.147 -0.8799 -0.2088 -0.2104
17742TIP3    H174717   2.047   2.565   5.063  1.9132  2.3778 -2.5569
17742TIP3    H274718   2.156   2.534   5.164  0.6501  1.1839 -1.5126
17743TIP3   OH274719   6.642   1.489   5.885 -0.6114  0.2170 -0.3512
17743TIP3    H174720   6.610   1.420   5.827 -1.8271 -0.0206  0.5736
17743TIP3    H274721   6.612   1.463   5.972  1.1848  0.5516  0.4228
17744TIP3   OH274722   0.899   2.063   4.021  0.6479 -0.3648  0.6246
17744TIP3    H174723   0.812   2.046   3.984  0.8014 -1.3980  0.7086
17744TIP3    H274724   0.937   2.130   3.964 -0.5921  0.8923  1.2015
17745TIP3   OH274725   0.324   3.044   0.733 -0.2070  0.1490 -0.1309
17745TIP3    H174726   0.279   2.964   0.707 -1.9119  0.9906  0.0751
17745TIP3    H274727   0.255   3.109   0.741  0.6347  0.8071  3.1368
17746TIP3   OH274728   1.015   1.162  15.387 -0.5635  0.3845 -0.4098
17746TIP3    H174729   1.082   1.169  15.455 -0.8067  0.2648 -0.1521
17746TIP3    H274730   1.062   1.132  15.309 -0.0466  1.8265 -0.6750
17747TIP3   OH274731   6.075   1.405   1.543 -0.1571  0.8045 -0.5497
17747TIP3    H174732   5.981   1.421   1.542  0.0508  2.4059  1.3773
17747TIP3    H274733   6.112   1.477   1.492  0.0192 -0.6139 -2.5911
17748TIP3   OH274734   5.829   6.202   4.204 -0.1858 -0.1923 -0.3753
17748TIP3    H174735   5.850   6.237   4.118  1.5965  2.0949  0.8723
17748TIP3    H274736   5.848   6.274   4.264 -3.9039 -0.7232  1.7639
17749TIP3   OH274737   3.934   2.710  16.321  0.3195 -0.9770  0.3823
17749TIP3    H174738   3.954   2.630  16.273  0.3175  0.1538 -1.5991
17749TIP3    H274739   4.014   2.730  16.370  0.6564 -1.6601  0.1155
17750TIP3   OH274740   3.539   1.597   5.351 -0.3279 -0.2374 -0.0102
17750TIP3    H174741   3.476   1.646   5.404  0.8557  0.6076  0.6520
17750TIP3    H274742   3.590   1.546   5.415  1.2439  0.9402 -0.2747
17751TIP3   OH274743   4.621   6.708   2.414  0.1755 -0.2516 -0.0253
17751TIP3    H174744   4.630   6.803   2.417  0.8971 -0.2740 -1.0173
17751TIP3    H274745   4.592   6.689   2.324 -0.6599 -0.9229  0.3662
17752TIP3   OH274746   0.377   6.552  11.217 -0.0228 -0.4131 -0.2992
17752TIP3    H174747   0.384   6.543  11.122  1.1310  0.8107 -0.3534
17752TIP3    H274748   0.466   6.541  11.249 -0.1611  0.6081  0.4936
17753TIP3   OH274749   6.283   4.727   3.197 -0.3459  0.0626 -0.4111
17753TIP3    H174750   6.268   4.760   3.109 -0.3756 -1.3034 -0.9547
17753TIP3    H274751   6.314   4.802   3.247 -1.3619  1.0975 -1.3068
17754TIP3   OH274752   2.895   1.536  13.319 -0.6676 -0.5638 -0.0675
17754TIP3    H174753   2.928   1.622  13.293  1.9939 -1.2741  0.6256
17754TIP3    H274754   2.852   1.502  13.240  0.6437  0.3261 -1.2253
17755TIP3   OH274755   5.387   5.443  11.127  0.5949 -0.0498 -0.2849
17755TIP3    H174756   5.418   5.383  11.195 -1.2732  0.5258  1.1589
17755TIP3    H274757   5.352   5.386  11.059  0.1429 -0.6326  0.4202
17756TIP3   OH274758   5.942   0.871  12.311 -0.1304  0.5434  0.2674
17756TIP3    H174759   5.976   0.932  12.247  0.4221  0.9124  0.9011
17756TIP3    H274760   5.914   0.926  12.384 -0.9412  0.1457  0.2645
17757TIP3   OH274761   4.062   0.106  12.274  0.5369  0.3169 -0.1902
17757TIP3    H174762   4.129   0.144  12.332 -1.1195  0.9491  1.4019
17757TIP3    H274763   4.032   0.028  12.321  0.0437  0.1397 -0.7972
17758TIP3   OH274764   1.065   4.986   5.617 -0.4116  0.7863 -0.0351
17758TIP3    H174765   1.055   4.944   5.532  0.3853  0.0599  0.2112
17758TIP3    H274766   1.124   5.060   5.601 -0.8861  1.1262 -0.2494
17759TIP3   OH274767   0.102   6.568  12.265 -0.1334 -0.0552 -0.2195
17759TIP3    H174768   0.191   6.601  12.258 -0.6887  1.8143  0.8994
17759TIP3    H274769   0.061   6.590  12.181  0.3785 -0.8132 -0.6893
17760TIP3   OH274770   5.601   0.353  13.377  0.2818 -0.0080 -0.0454
17760TIP3    H174771   5.601   0.276  13.320 -0.5398  0.6465 -0.9643
17760TIP3    H274772   5.598   0.427  13.317 -0.6889  0.7037  0.8455
17761TIP3   OH274773   2.074   1.929  13.487 -0.2553 -0.5733  0.3465
17761TIP3    H174774   2.076   1.993  13.416 -1.2804  1.0180  1.6551
17761TIP3    H274775   2.019   1.970  13.554  1.7519 -1.3468  2.6477
17762TIP3   OH274776   4.804   4.884  17.176  0.5246  0.2318  0.1194
17762TIP3    H174777   4.757   4.926  17.104  0.6938  1.0266  0.4583
17762TIP3    H274778   4.896   4.889  17.152  0.6199  0.8986  0.5743
17763TIP3   OH274779   5.631   5.273  16.735  0.1274  0.2398  0.1064
17763TIP3    H174780   5.556   5.231  16.694 -0.0230 -0.9716  1.5576
17763TIP3    H274781   5.674   5.203  16.785  1.6550  1.1283  0.1040
17764TIP3   OH274782   6.817   6.428   3.372 -0.8098  0.0027  0.4386
17764TIP3    H174783   6.855   6.344   3.346 -0.5479  0.0936  0.5206
17764TIP3    H274784   6.811   6.478   3.291 -0.6626  0.0229  0.4393
17765TIP3   OH274785   6.359   4.560  11.763 -1.1871 -0.0217 -0.1572
17765TIP3    H174786   6.346   4.520  11.848 -0.2672 -0.5455 -0.2471
17765TIP3    H274787   6.271   4.577  11.730 -1.5682 -0.8204  0.4221
17766TIP3   OH274788   5.142   3.216   0.008 -0.1148  0.0841  0.2293
17766TIP3    H174789   5.219   3.271   0.022  0.2077 -0.5386  0.9977
17766TIP3    H274790   5.089   3.264  -0.056  1.1194  0.3094 -0.6570
17767TIP3   OH274791   2.703   5.181   4.318 -0.4497 -0.0518  0.6374
17767TIP3    H174792   2.651   5.111   4.359 -1.5158  0.2960 -0.0969
17767TIP3    H274793   2.780   5.136   4.282 -1.3491 -0.9322 -0.2348
17768TIP3   OH274794   2.500   4.007   4.858  0.5622 -0.5040 -0.4799
17768TIP3    H174795   2.461   4.028   4.773  0.0168 -0.1117 -0.1381
17768TIP3    H274796   2.485   3.913   4.869 -1.8878 -0.0824  0.4177
17769TIP3   OH274797   1.817   3.289  13.136  0.5632 -0.0113  0.4793
17769TIP3    H174798   1.862   3.299  13.220 -0.0226  1.9336  0.6107
17769TIP3    H274799   1.842   3.367  13.086  0.3600 -0.7997 -0.9100
17770TIP3   OH274800   0.969   6.551  15.226  0.6816  0.0411  0.8216
17770TIP3    H174801   0.949   6.552  15.320  0.6867  1.3750  0.8321
17770TIP3    H274802   0.884   6.569  15.184  0.8772  0.5099  0.6238
17771TIP3   OH274803   3.466   2.632  14.889 -0.1640  0.1545  0.1529
17771TIP3    H174804   3.546   2.662  14.845 -1.1480  1.4671 -0.8588
17771TIP3    H274805   3.484   2.642  14.982  1.2326 -0.6409 -0.0177
17772TIP3   OH274806   2.393   5.721  15.402 -0.2257 -0.7498  0.0551
17772TIP3    H174807   2.326   5.775  15.359 -0.6974 -1.8062 -0.5620
17772TIP3    H274808   2.350   5.687  15.480  0.0984 -0.1823  0.4868
17773TIP3   OH274809   2.383   2.166  13.789 -0.2329  0.5666 -0.2496
17773TIP3    H174810   2.446   2.137  13.855 -1.0756  2.7641  1.6444
17773TIP3    H274811   2.411   2.121  13.708  1.7063 -1.0966  1.2286
17774TIP3   OH274812   6.147   2.180   4.436 -0.5992  0.6474 -0.0178
17774TIP3    H174813   6.094   2.148   4.363 -0.0840  0.2765 -0.2293
17774TIP3    H274814   6.094   2.251   4.474 -0.6916  1.1172 -0.9915
17775TIP3   OH274815   1.201   0.277  16.667  0.2114  0.4897  1.0430
17775TIP3    H174816   1.143   0.297  16.740 -0.4943  1.5787  0.2183
17775TIP3    H274817   1.209   0.360  16.620 -0.9689 -0.5892 -1.2385
17776TIP3   OH274818   6.365   0.037  13.520 -0.3459 -0.7299 -0.2163
17776TIP3    H174819   6.416   0.067  13.446  0.6379 -2.5652 -0.3258
17776TIP3    H274820   6.275   0.030  13.486 -0.1007 -0.5331 -0.9200
17777TIP3   OH274821   6.511   3.774   2.081  0.6072 -0.2756 -0.2639
17777TIP3    H174822   6.488   3.864   2.057  0.0035 -0.2810  0.2625
17777TIP3    H274823   6.432   3.724   2.066  0.0609 -0.2112  2.0055
17778TIP3   OH274824   2.642   0.443  12.280  1.0286  0.1828 -0.1295
17778TIP3    H174825   2.690   0.525  12.271  1.3977  0.0408  0.4694
17778TIP3    H274826   2.660   0.396  12.199 -0.5796  1.3872 -1.2540
17779TIP3   OH274827   3.575   4.436  11.163  0.3738  0.6620 -0.4583
17779TIP3    H174828   3.592   4.521  11.121  1.6713  1.2108  1.0557
17779TIP3    H274829   3.514   4.392  11.104  0.8539  2.0248 -2.0695
17780TIP3   OH274830   2.454   2.388  16.449  0.0290  0.5582 -0.1963
17780TIP3    H174831   2.431   2.336  16.372 -2.0772  1.3503 -0.1624
17780TIP3    H274832   2.424   2.476  16.429 -0.4966  0.8011  1.4997
17781TIP3   OH274833   4.327   5.957  12.171 -0.1760 -0.1743 -0.3344
17781TIP3    H174834   4.411   5.976  12.213 -0.5794 -0.0678  0.4478
17781TIP3    H274835   4.302   6.038  12.127  0.5435 -0.4684 -1.3228
17782TIP3   OH274836   0.700   3.097  11.735  0.4478  0.1870  0.3431
17782TIP3    H174837   0.735   3.166  11.790  0.3906 -0.2220  0.9007
17782TIP3    H274838   0.708   3.131  11.646  0.4641  0.8852  0.6055
17783TIP3   OH274839   1.936   2.740  16.730 -0.5641 -0.3653 -0.2884
17783TIP3    H174840   1.864   2.803  16.722  0.4880  0.8468 -0.6078
17783TIP3    H274841   1.945   2.725  16.824  1.4061  2.7782  0.2004
17784TIP3   OH274842   5.525   5.717   6.391 -0.5180 -0.4189 -0.3426
17784TIP3    H174843   5.614   5.705   6.425 -0.2957 -0.3190 -0.8880
17784TIP3    H274844   5.488   5.629   6.389 -1.3437 -0.2412  2.2865
17785TIP3   OH274845   3.095   2.210  12.051  0.0751 -0.0867  0.2702
17785TIP3    H174846   3.079   2.116  12.040  1.0847 -0.1957 -0.4321
17785TIP3    H274847   3.181   2.216  12.092 -0.0972  0.5341  0.5609
17786TIP3   OH274848   0.173   5.072   0.341  0.3986  0.3458 -0.0883
17786TIP3    H174849   0.116   5.044   0.412  1.0528  1.1672  0.7937
17786TIP3    H274850   0.204   5.159   0.367  1.8164  0.0544 -0.6595
17787TIP3   OH274851   2.785   3.762  14.669  0.2335 -0.6745 -0.6283
17787TIP3    H174852   2.798   3.813  14.588 -1.2842 -0.6162 -0.8594
17787TIP3    H274853   2.694   3.778  14.693  0.7537 -0.3507  1.3520
17788TIP3   OH274854   6.642   5.173   3.325  0.4766  0.2574  0.3164
17788TIP3    H174855   6.699   5.104   3.291  0.4011 -0.0969  0.9007
17788TIP3    H274856   6.599   5.133   3.400  0.5219  0.9808  0.7321
17789TIP3   OH274857   4.618   1.316  14.378  0.5172 -0.3899 -0.1137
17789TIP3    H174858   4.572   1.353  14.303 -0.1014 -1.2969 -0.1905
17789TIP3    H274859   4.557   1.325  14.451  1.1960  0.6777  0.3486
17790TIP3   OH274860   2.637   4.266  14.788 -0.1344  0.1462  0.2095
17790TIP3    H174861   2.574   4.327  14.750 -1.4769 -1.5297 -0.3452
17790TIP3    H274862   2.658   4.205  14.717  1.0367 -0.1733  0.7985
17791TIP3   OH274863   0.326   5.375  11.285  0.1242  0.2400 -0.1572
17791TIP3    H174864   0.256   5.347  11.343  1.0271 -0.1821  0.7628
17791TIP3    H274865   0.307   5.331  11.202  0.3935 -1.5148  0.6715
17792TIP3   OH274866   5.218   4.109   1.895  0.1021 -0.3386  0.2215
17792TIP3    H174867   5.194   4.201   1.884  0.9043 -0.2154 -0.5758
17792TIP3    H274868   5.271   4.108   1.975  0.2588 -0.0839  0.1196
17793TIP3   OH274869   5.297   1.400  16.813  0.7738  0.6935 -0.2028
17793TIP3    H174870   5.358   1.470  16.788  0.2888  0.5061 -2.1096
17793TIP3    H274871   5.323   1.375  16.901  2.2664  1.8814 -0.2718
17794TIP3   OH274872   5.911   5.450  15.778 -0.3612 -0.3019 -0.3264
17794TIP3    H174873   5.859   5.509  15.832  0.1341  0.3807 -0.5851
17794TIP3    H274874   5.923   5.372  15.833  0.0431  0.3365  0.5173
17795TIP3   OH274875   1.600   0.077  14.670 -0.4554  0.6096 -0.0866
17795TIP3    H174876   1.653   0.052  14.745 -0.3014  1.5675  0.1314
17795TIP3    H274877   1.597   0.173  14.673  1.4196  0.8483 -2.5343
17796TIP3   OH274878   4.222   5.827  11.321  0.0818 -0.0373  0.5471
17796TIP3    H174879   4.291   5.815  11.256 -0.5433  0.8939 -0.3278
17796TIP3    H274880   4.265   5.872  11.394  0.4349  0.3916  0.0783
17797TIP3   OH274881   3.061   6.312  12.575 -0.0888 -0.5198 -0.0143
17797TIP3    H174882   3.145   6.266  12.578  2.2123  3.3169  1.2241
17797TIP3    H274883   3.066   6.365  12.496 -1.2726 -0.0618  0.2023
17798TIP3   OH274884   4.933   2.958   2.366 -0.5631 -0.2289  0.1831
17798TIP3    H174885   4.992   3.024   2.331 -0.4447 -1.0403 -1.2417
17798TIP3    H274886   4.860   3.008   2.402 -0.7346  0.6890 -1.3428
17799TIP3   OH274887   4.903   4.224  11.189  0.5635 -0.2351  0.0200
17799TIP3    H174888   4.978   4.175  11.225 -1.0993 -3.5602 -0.6609
17799TIP3    H274889   4.826   4.173  11.216 -1.4895  2.7160  0.1841
17800TIP3   OH274890   0.874   0.484  11.891  0.1166  0.2512 -0.1320
17800TIP3    H174891   0.880   0.401  11.937 -0.4756 -0.1825 -0.8078
17800TIP3    H274892   0.809   0.535  11.940  0.9378  0.5599  0.6403
17801TIP3   OH274893   2.198   5.537  15.593  0.3245 -0.1988  0.1071
17801TIP3    H174894   2.256   5.517  15.666 -0.6951 -0.0716  0.9819
17801TIP3    H274895   2.111   5.540  15.632 -0.1964  0.2861 -1.0420
17802TIP3   OH274896   0.608   1.129   5.430 -0.4243 -0.5156 -0.4709
17802TIP3    H174897   0.610   1.150   5.336 -0.4572 -0.4807 -0.4641
17802TIP3    H274898   0.692   1.087   5.447 -0.7703 -1.3075 -0.6984
17803TIP3   OH274899   3.829   3.436  13.258 -0.1394  0.3407  0.1468
17803TIP3    H174900   3.816   3.518  13.306  1.8734 -0.1379  1.6701
17803TIP3    H274901   3.779   3.371  13.308  0.5589  0.1520  0.6118
17804TIP3   OH274902   5.558   2.594   3.323  0.1023  0.2424 -0.2062
17804TIP3    H174903   5.598   2.618   3.240  0.0201  2.0668  0.2297
17804TIP3    H274904   5.625   2.613   3.389 -0.3316  0.1866  0.2585
17805TIP3   OH274905   0.222   2.398   0.846  0.3442 -0.5555  0.0178
17805TIP3    H174906   0.175   2.337   0.788  2.1197 -1.3273 -0.6771
17805TIP3    H274907   0.195   2.372   0.934  1.4141 -2.7204 -0.2348
17806TIP3   OH274908   5.831   4.769  11.523  0.3389 -0.1849  0.4258
17806TIP3    H174909   5.907   4.734  11.477  1.4519  1.1000  1.2023
17806TIP3    H274910   5.867   4.815  11.598 -1.1561  0.9892  0.4923
17807TIP3   OH274911   0.171   6.492  12.809 -0.0549 -0.2292 -0.8798
17807TIP3    H174912   0.148   6.580  12.839 -0.8463 -0.7383  0.0737
17807TIP3    H274913   0.113   6.476  12.734 -0.7696 -0.3788 -0.3087
17808TIP3   OH274914   0.759   4.444   0.630 -0.2102  0.1725 -0.5794
17808TIP3    H174915   0.709   4.485   0.701  1.1932  0.0515  0.5138
17808TIP3    H274916   0.846   4.484   0.636  0.5853 -1.4562 -0.8061
17809TIP3   OH274917   0.341   4.923   5.923  0.6348  0.3287  0.0609
17809TIP3    H174918   0.344   4.976   6.003  0.5888  0.7230 -0.1925
17809TIP3    H274919   0.346   4.833   5.953 -0.1781  0.4407  0.5633
17810TIP3   OH274920   0.420   4.041   0.886  0.2374  0.2127 -0.6197
17810TIP3    H174921   0.421   3.964   0.941  0.3444 -0.0677 -1.0094
17810TIP3    H274922   0.351   4.025   0.821  0.9994 -0.0552 -1.3884
17811TIP3   OH274923   0.236   5.399   2.087 -0.5437 -0.6979 -0.6259
17811TIP3    H174924   0.317   5.443   2.111 -1.3212 -0.0687  0.9933
17811TIP3    H274925   0.222   5.335   2.156 -2.7318  1.0020  0.6700
17812TIP3   OH274926   5.501   4.419  10.862 -0.0500  0.0902  0.2237
17812TIP3    H174927   5.553   4.431  10.941  0.0260 -1.2567  0.4062
17812TIP3    H274928   5.412   4.442  10.888  0.2543  1.3761  0.1988
17813TIP3   OH274929   3.955   2.829   4.669  0.6052 -0.6610 -0.2109
17813TIP3    H174930   3.959   2.806   4.762 -2.1953 -0.7683 -0.0174
17813TIP3    H274931   3.932   2.748   4.625  1.6941 -0.5600 -1.0117
17814TIP3   OH274932   6.277   5.859   2.120  0.0055 -0.8706 -0.0023
17814TIP3    H174933   6.183   5.844   2.109  0.0688 -2.0074  0.8301
17814TIP3    H274934   6.285   5.892   2.210  0.4560 -1.2896  0.1131
17815TIP3   OH274935   1.659   1.547  16.178  0.0052  0.3233  0.8476
17815TIP3    H174936   1.569   1.576  16.192 -1.0059 -2.4184  0.7027
17815TIP3    H274937   1.705   1.573  16.258 -1.2715  0.5171  1.5461
17816TIP3   OH274938   5.642   5.519   0.076 -0.3476  0.4743 -0.7732
17816TIP3    H174939   5.552   5.550   0.086 -0.4824  0.2950 -1.3736
17816TIP3    H274940   5.691   5.566   0.143 -1.1388 -0.5251  0.5489
17817TIP3   OH274941   4.666   3.896  11.741  0.0667  0.0878  0.5938
17817TIP3    H174942   4.612   3.973  11.762 -0.3939 -0.4066  1.2526
17817TIP3    H274943   4.605   3.836  11.697  1.1017  1.3091 -2.7944
17818TIP3   OH274944   5.522   3.823  10.796  0.4125 -0.2379 -0.7651
17818TIP3    H174945   5.455   3.818  10.729 -0.2142  0.8280 -0.2447
17818TIP3    H274946   5.598   3.779  10.758 -0.2723 -0.5994 -1.7362
17819TIP3   OH274947   5.545   5.304  14.215 -0.8302 -0.0895 -0.1759
17819TIP3    H174948   5.516   5.253  14.290 -0.4502  0.1668  0.1470
17819TIP3    H274949   5.585   5.383  14.253 -0.1820 -0.1958 -0.6274
17820TIP3   OH274950   6.663   3.737  14.283 -0.0897  0.4946  0.3546
17820TIP3    H174951   6.603   3.784  14.226 -0.3108  1.3178  1.2495
17820TIP3    H274952   6.612   3.719  14.363  0.3362 -0.2827  0.4676
17821TIP3   OH274953   5.060   1.405   1.676 -0.3999  0.5774 -0.1345
17821TIP3    H174954   5.036   1.328   1.625 -0.1874 -1.1369  2.1688
17821TIP3    H274955   5.155   1.402   1.682 -0.4662  0.1835  1.0921
17822TIP3   OH274956   1.634   5.106  17.195  0.3328  0.1100 -0.7664
17822TIP3    H174957   1.697   5.041  17.223  1.4003  1.7054  0.7431
17822TIP3    H274958   1.665   5.135  17.109  1.0892  0.1425 -0.4899
17823TIP3   OH274959   4.096   3.373  11.428 -0.4684  0.3764  0.5198
17823TIP3    H174960   4.013   3.380  11.474 -0.4385 -1.0364  0.8263
17823TIP3    H274961   4.072   3.353  11.338 -0.4559 -0.4610  0.7005
17824TIP3   OH274962   5.851   2.885  15.545 -0.0693  0.0951 -0.4147
17824TIP3    H174963   5.763   2.921  15.541  0.3809  1.1346 -1.1862
17824TIP3    H274964   5.876   2.893  15.637 -0.3880  0.7391 -0.3835
17825TIP3   OH274965   0.169   4.369  11.269  0.4951  0.3467  0.0020
17825TIP3    H174966   0.256   4.409  11.274  0.7800 -0.2660  0.0394
17825TIP3    H274967   0.139   4.366  11.360  0.4496  0.5261 -0.0072
17826TIP3   OH274968   6.136   0.667  12.310 -0.0416  0.0472  0.0937
17826TIP3    H174969   6.064   0.730  12.319 -0.9686 -0.9874  0.1588
17826TIP3    H274970   6.093   0.585  12.286  1.2275 -0.3390 -0.9848
17827TIP3   OH274971   5.370   5.301   1.243 -0.0463  0.4112 -0.1447
17827TIP3    H174972   5.328   5.241   1.304  0.0433  1.9189  1.4595
17827TIP3    H274973   5.308   5.374   1.235  0.2857  0.5850 -1.2756
17828TIP3   OH274974   5.508   4.050  14.140  0.1404 -0.0267  0.1015
17828TIP3    H174975   5.465   4.014  14.063  0.5858 -1.2155  0.3848
17828TIP3    H274976   5.597   4.071  14.111 -0.5281  2.3798 -0.4698
17829TIP3   OH274977   4.183   1.019   6.089 -0.4591 -0.3580  0.4741
17829TIP3    H174978   4.231   0.948   6.131 -0.2378  0.2668  1.3050
17829TIP3    H274979   4.230   1.098   6.115 -1.3292  0.1810  0.4414
17830TIP3   OH274980   5.841   2.741   4.990  0.0860  0.0323 -0.1397
17830TIP3    H174981   5.888   2.696   4.920 -1.0698 -1.8351  0.2131
17830TIP3    H274982   5.901   2.809   5.020  1.2380 -0.1766 -1.8391
17831TIP3   OH274983   4.450   4.310   2.027  0.0976 -0.0546  0.1275
17831TIP3    H174984   4.444   4.263   1.944 -1.7222  1.9503 -0.9519
17831TIP3    H274985   4.488   4.245   2.088 -0.2525 -2.1682 -1.7655
17832TIP3   OH274986   3.500   2.823   1.885  0.3551  0.6298 -0.2904
17832TIP3    H174987   3.551   2.764   1.830  0.3295 -0.0921  0.4454
17832TIP3    H274988   3.409   2.798   1.869  0.4262 -1.6694  2.2975
17833TIP3   OH274989   6.268   6.102  11.199 -0.0162 -0.1069 -0.4937
17833TIP3    H174990   6.216   6.029  11.231  1.2696  0.3070  2.9968
17833TIP3    H274991   6.339   6.061  11.149 -0.7159 -1.0266 -0.7526
17834TIP3   OH274992   0.793   6.678  10.544  0.2788 -0.3097 -0.4590
17834TIP3    H174993   0.741   6.598  10.547  1.6580 -1.3475 -2.2336
17834TIP3    H274994   0.881   6.651  10.570  1.0282  0.3479 -2.1193
17835TIP3   OH274995   3.917   2.588   4.505  0.2607 -0.6692 -0.0835
17835TIP3    H174996   3.896   2.608   4.413  1.8852 -2.2734 -0.8742
17835TIP3    H274997   4.013   2.587   4.507  0.2573 -0.0688  1.8047
17836TIP3   OH274998   3.531   4.617   1.646 -0.2522  0.0421 -0.8090
17836TIP3    H174999   3.563   4.696   1.691  1.4939 -0.0417 -1.8346
17836TIP3    H275000   3.599   4.552   1.661 -0.0419 -0.2532 -2.7983
17837TIP3   OH275001   2.384   5.180  11.178  0.3801  0.6134 -0.3144
17837TIP3    H175002   2.378   5.243  11.250 -0.8254  1.6527 -1.2825
17837TIP3    H275003   2.308   5.123  11.190 -0.3139  1.3164 -1.2080
17838TIP3   OH275004   6.063   4.115  16.574 -0.4057 -0.3753  0.8044
17838TIP3    H175005   5.975   4.137  16.543 -0.2957 -0.8761  0.0999
17838TIP3    H275006   6.122   4.149  16.506 -0.0901 -0.4781  1.0250
17839TIP3   OH275007   3.498   5.578   1.216 -0.2265 -0.3628  0.2147
17839TIP3    H175008   3.433   5.620   1.273  0.8646  2.1891 -0.2724
17839TIP3    H275009   3.573   5.563   1.272  0.1517  0.3809 -0.0690
17840TIP3   OH275010   0.929   1.828   4.241 -0.2995 -0.3214  0.0322
17840TIP3    H175011   0.929   1.914   4.201 -0.8290  0.5269  1.7326
17840TIP3    H275012   0.890   1.770   4.175  1.6641  0.3488 -1.8088
17841TIP3   OH275013   4.559   3.689  12.837 -0.3578  0.0421 -0.0280
17841TIP3    H175014   4.625   3.700  12.906  1.5728  2.2723 -2.0575
17841TIP3    H275015   4.487   3.643  12.880  1.2038  0.3066  3.1568
17842TIP3   OH275016   6.569   5.964  13.718 -0.6311 -0.8795 -0.4208
17842TIP3    H175017   6.530   5.956  13.805  2.0398 -2.5732  0.7492
17842TIP3    H275018   6.549   5.881  13.675 -2.5807  0.2137 -1.8620
17843TIP3   OH275019   2.969   1.759   1.589  0.4329 -0.0232 -0.1288
17843TIP3    H175020   3.010   1.801   1.512 -1.0622 -0.6094 -1.2866
17843TIP3    H275021   3.019   1.678   1.600  1.5286  0.6922  0.3874
17844TIP3   OH275022   4.897   6.488  12.142 -0.3913  0.0478  0.0666
17844TIP3    H175023   4.975   6.484  12.086 -0.6349  0.3765 -0.2994
17844TIP3    H275024   4.851   6.405  12.124 -0.5464  0.2190 -0.3380
17845TIP3   OH275025   3.976   3.625  12.502  0.4924  0.3085 -0.0238
17845TIP3    H175026   4.024   3.610  12.421 -1.1619 -3.3175 -0.5290
17845TIP3    H275027   4.043   3.646  12.566  2.6601 -2.7379 -1.0582
17846TIP3   OH275028   4.278   1.134  12.421  0.4283 -0.1881 -0.1162
17846TIP3    H175029   4.198   1.113  12.374  1.0419 -0.9883 -0.8475
17846TIP3    H275030   4.329   1.187  12.359  0.4078  0.4310  0.3918
17847TIP3   OH275031   5.930   2.660  15.265 -0.3226  0.0492  0.2515
17847TIP3    H175032   6.020   2.653  15.296 -0.2730 -0.2636  0.0324
17847TIP3    H275033   5.931   2.735  15.205 -0.2782  0.2418  0.4897
17848TIP3   OH275034   5.922   5.950   0.788 -0.4393  0.4768  0.2678
17848TIP3    H175035   5.870   5.965   0.709 -0.0941  0.1990 -0.0124
17848TIP3    H275036   5.986   5.884   0.763 -0.9417 -0.3374  1.0519
17849TIP3   OH275037   5.499   0.708  15.501  0.2239  0.0488  0.1252
17849TIP3    H175038   5.477   0.800  15.511 -2.7238 -0.5025 -0.4686
17849TIP3    H275039   5.417   0.666  15.475  1.4897 -2.7388  0.2700
17850TIP3   OH275040   4.599   3.899   2.678 -0.3711 -0.0939 -0.1446
17850TIP3    H175041   4.687   3.870   2.657 -0.1065 -0.4320  1.3021
17850TIP3    H275042   4.543   3.851   2.617  0.3751 -0.6184 -0.4321
17851TIP3   OH275043   4.940   6.760  12.147  0.1369 -0.3321 -0.0861
17851TIP3    H175044   4.919   6.735  12.057  0.9250 -0.9059 -0.1210
17851TIP3    H275045   4.907   6.687  12.200  0.0296 -0.1842  0.0496
17852TIP3   OH275046   5.408   4.976   0.369 -0.2233  0.3986 -0.2308
17852TIP3    H175047   5.325   5.022   0.358 -0.0749  0.6147 -0.4208
17852TIP3    H275048   5.422   4.930   0.286 -0.3524  0.0349 -0.0577
17853TIP3   OH275049   1.833   1.383  12.255  0.0234 -0.2481 -0.3430
17853TIP3    H175050   1.784   1.342  12.184  0.2371 -0.9977 -0.0657
17853TIP3    H275051   1.800   1.473  12.257 -0.2905 -0.3326 -1.1079
17854TIP3   OH275052   4.619   6.580   2.146  0.4735  0.4715 -0.3329
17854TIP3    H175053   4.672   6.567   2.068 -1.5752 -0.6894 -1.6395
17854TIP3    H275054   4.592   6.492   2.172 -0.9659  1.0080  0.1248
17855TIP3   OH275055   5.164   1.307  14.234 -0.1734 -0.7010  0.1329
17855TIP3    H175056   5.181   1.324  14.327 -0.7356 -0.3477  0.1751
17855TIP3    H275057   5.249   1.282  14.199  0.3683  0.5816  0.4389
17856TIP3   OH275058   5.220   6.650   6.523  0.5267 -0.2518 -0.2491
17856TIP3    H175059   5.169   6.586   6.573 -0.4790  0.9428  0.3043
17856TIP3    H275060   5.180   6.652   6.437  0.5120 -0.3191 -0.2434
17857TIP3   OH275061   3.859   2.880  11.981 -0.0021 -0.3026 -0.1751
17857TIP3    H175062   3.876   2.861  12.073 -0.3407  0.6697  0.1096
17857TIP3    H275063   3.770   2.846  11.966  0.2276 -0.8666 -0.2717
17858TIP3   OH275064   1.200   3.634  12.782  0.3606 -0.1151 -0.1892
17858TIP3    H175065   1.220   3.657  12.872  1.1109  0.1669 -0.4256
17858TIP3    H275066   1.221   3.713  12.731 -1.0885  0.1118 -0.4881
17859TIP3   OH275067   4.362   1.541  12.644 -0.3197  0.4616 -0.5496
17859TIP3    H175068   4.302   1.470  12.621  0.2249  0.1975 -1.2053
17859TIP3    H275069   4.437   1.529  12.586  0.0436  1.2289 -0.2622
17860TIP3   OH275070   5.066   0.890   4.423  0.5769  0.1079  0.1195
17860TIP3    H175071   5.041   0.894   4.331  2.9756  0.0198 -0.6071
17860TIP3    H275072   5.018   0.962   4.465  1.1010  1.5483 -1.6386
17861TIP3   OH275073   3.910   2.676  15.884 -0.0528  0.3828  0.1742
17861TIP3    H175074   3.952   2.656  15.800 -0.0925 -1.5908  0.5851
17861TIP3    H275075   3.968   2.638  15.950 -1.3308 -0.4190  0.8821
17862TIP3   OH275076   0.226   5.442  13.956 -0.3756  0.2030 -0.4374
17862TIP3    H175077   0.262   5.523  13.919 -1.9962  1.2693  0.1791
17862TIP3    H275078   0.211   5.463  14.048  0.9842 -1.4872  0.2264
17863TIP3   OH275079   6.110   4.607  12.425  0.1022  0.6413  0.0325
17863TIP3    H175080   6.022   4.644  12.424  1.2004  3.5126 -0.1721
17863TIP3    H275081   6.157   4.659  12.490  1.3607 -1.7325  1.1648
17864TIP3   OH275082   4.406   6.770  16.823  0.8425  0.0908 -0.1429
17864TIP3    H175083   4.491   6.752  16.863  0.0990  0.1345  1.5548
17864TIP3    H275084   4.350   6.793  16.896 -0.4273  0.9131 -1.3257
17865TIP3   OH275085   0.959   6.198   0.385  0.3196 -0.5896  0.4341
17865TIP3    H175086   0.966   6.290   0.361  0.7600 -0.7707 -0.1654
17865TIP3    H275087   0.902   6.197   0.462 -1.7357 -0.0373 -1.0066
17866TIP3   OH275088   0.097   2.853  14.326  0.2236 -0.2785 -0.1492
17866TIP3    H175089   0.105   2.758  14.330 -0.6307 -0.3358  0.4020
17866TIP3    H275090   0.114   2.883  14.415 -0.8575 -0.0367 -0.0075
17867TIP3   OH275091   2.489   0.249  14.629  0.6916 -0.5861 -0.4575
17867TIP3    H175092   2.482   0.190  14.555  2.3607 -1.7402  0.2474
17867TIP3    H275093   2.415   0.226  14.685 -0.3692  0.0520 -1.5515
17868TIP3   OH275094   4.403   0.140   3.560 -0.7121 -0.1392 -0.6253
17868TIP3    H175095   4.353   0.195   3.621  0.9620  0.6881  0.0531
17868TIP3    H275096   4.370   0.164   3.473 -1.1998  0.6885 -0.2189
17869TIP3   OH275097   5.448   6.762  14.909  0.2532  0.3056  0.4194
17869TIP3    H175098   5.439   6.814  14.830 -2.1679 -1.5199 -0.6145
17869TIP3    H275099   5.527   6.710  14.894 -1.0059 -1.1638 -1.6009
17870TIP3   OH275100   2.633   6.239   2.451  0.4003 -0.4191 -0.4662
17870TIP3    H175101   2.696   6.301   2.417  1.7329 -2.1110 -1.2287
17870TIP3    H275102   2.652   6.157   2.405 -0.4166 -1.7399  1.3932
17871TIP3   OH275103   3.790   1.034  13.236  0.1896 -0.1046  0.7444
17871TIP3    H175104   3.701   1.005  13.253 -0.0511 -0.3934 -0.8364
17871TIP3    H275105   3.781   1.102  13.169  1.2502 -1.2784 -0.6403
17872TIP3   OH275106   2.645   0.259   0.208  0.0726  0.4563 -0.3795
17872TIP3    H175107   2.575   0.236   0.270  1.1334  0.2748  0.7789
17872TIP3    H275108   2.641   0.354   0.202 -0.3439  0.4414 -0.4141
17873TIP3   OH275109   2.474   2.995   0.512  0.3460  0.5382  0.9569
17873TIP3    H175110   2.512   2.911   0.536  0.4813  0.7087  1.3371
17873TIP3    H275111   2.498   3.006   0.419  1.0628  0.5508  1.1356
17874TIP3   OH275112   6.638   5.471   1.616  0.1281 -0.0552  0.2670
17874TIP3    H175113   6.730   5.496   1.614  0.6966 -2.0373 -0.6849
17874TIP3    H275114   6.629   5.420   1.697  0.2984 -1.2831 -0.4684
17875TIP3   OH275115   6.231   3.629  11.584 -0.0645 -0.6133 -0.3897
17875TIP3    H175116   6.161   3.671  11.535  0.7565  1.3206  0.0095
17875TIP3    H275117   6.264   3.561  11.525 -1.9075 -1.2575 -0.7616
17876TIP3   OH275118   1.254   3.397  11.895  0.1004 -0.3177  0.1158
17876TIP3    H175119   1.295   3.483  11.889  0.0199 -0.3367 -1.0781
17876TIP3    H275120   1.239   3.372  11.803 -0.8775 -1.1129  0.4733
17877TIP3   OH275121   1.803   2.703  12.250  0.0353 -0.2621 -0.1933
17877TIP3    H175122   1.875   2.766  12.241  0.1930 -0.2648  0.8647
17877TIP3    H275123   1.734   2.751  12.296  0.3235 -0.9555  1.0154
17878TIP3   OH275124   5.204   5.584  12.607 -0.4788 -0.0486  0.6320
17878TIP3    H175125   5.212   5.512  12.544 -0.5012  0.4915  0.0006
17878TIP3    H275126   5.271   5.647  12.580 -2.1439  1.3467 -0.4328
17879TIP3   OH275127   2.161   6.024  10.933 -0.0516  0.3036  0.3968
17879TIP3    H175128   2.206   6.103  10.904 -0.2998  0.2776 -0.0802
17879TIP3    H275129   2.231   5.959  10.944 -0.1549 -0.6727 -3.3354
17880TIP3   OH275130   1.161   6.679   3.918 -0.4951  0.2252 -0.4459
17880TIP3    H175131   1.144   6.650   4.007 -0.7062 -1.0667 -0.8826
17880TIP3    H275132   1.182   6.598   3.870  0.7488  1.0205 -1.3051
17881TIP3   OH275133   2.808   1.508  14.568 -0.5396 -0.1924 -0.4632
17881TIP3    H175134   2.849   1.442  14.512 -1.3320 -0.3403 -0.8769
17881TIP3    H275135   2.718   1.514  14.537 -1.2986 -1.0071  1.4340
17882TIP3   OH275136   2.866   3.819  11.520 -0.0427  0.3600  0.3855
17882TIP3    H175137   2.872   3.752  11.451 -1.7300  1.8471 -1.3067
17882TIP3    H275138   2.902   3.898  11.479 -0.6102  1.1606  1.3863
17883TIP3   OH275139   6.634   2.520   2.117 -0.1429 -0.1953 -0.2011
17883TIP3    H175140   6.634   2.430   2.151  0.1648 -0.7439 -1.5906
17883TIP3    H275141   6.644   2.574   2.195  0.5341 -1.3974  0.5931
17884TIP3   OH275142   1.420   6.428   3.083 -0.4965 -0.0030 -0.2316
17884TIP3    H175143   1.378   6.355   3.038  0.0155  0.2240 -1.1197
17884TIP3    H275144   1.355   6.499   3.081 -1.3890 -0.7038  1.5334
17885TIP3   OH275145   0.475   5.224   0.121  0.0990 -0.1272 -0.1247
17885TIP3    H175146   0.400   5.282   0.116  0.3902  0.2347 -0.3334
17885TIP3    H275147   0.462   5.174   0.202  0.2966  0.8608  0.5404
17886TIP3   OH275148   4.523   5.358  15.251 -0.4348  0.3544  0.0572
17886TIP3    H175149   4.590   5.336  15.186 -1.1983 -1.0998 -0.2628
17886TIP3    H275150   4.571   5.405  15.319  0.5864  0.8851 -0.9836
17887TIP3   OH275151   4.149   1.514   5.179 -0.1640  0.2128  0.1979
17887TIP3    H175152   4.125   1.586   5.121  0.2601 -0.5284 -0.9265
17887TIP3    H275153   4.207   1.554   5.244  0.3618  0.8321 -0.6288
17888TIP3   OH275154   0.127   4.584   0.469 -0.5580  0.1373 -0.9296
17888TIP3    H175155   0.133   4.597   0.374 -1.3341  0.3760 -0.9541
17888TIP3    H275156   0.033   4.582   0.487 -0.4168  0.1770 -0.1503
17889TIP3   OH275157   2.204   2.742   2.691 -0.3031 -0.5186 -0.4331
17889TIP3    H175158   2.279   2.797   2.667 -0.1680 -0.5171 -0.0239
17889TIP3    H275159   2.129   2.784   2.649 -0.6477  1.5510  1.9552
17890TIP3   OH275160   5.752   1.909  14.658  0.0343 -0.0636 -0.3021
17890TIP3    H175161   5.782   1.982  14.605  0.2985 -0.9219 -1.3786
17890TIP3    H275162   5.666   1.937  14.691  1.3511  1.8600  1.6996
17891TIP3   OH275163   5.220   4.055   4.883 -0.0866 -0.2024  0.2081
17891TIP3    H175164   5.129   4.037   4.858 -0.1431 -0.4919  0.6180
17891TIP3    H275165   5.235   4.145   4.854 -1.4899  0.9828  2.8306
17892TIP3   OH275166   0.837   2.553   0.221 -0.2396  0.2558  0.1604
17892TIP3    H175167   0.893   2.609   0.168 -0.1051  1.7418  1.7765
17892TIP3    H275168   0.844   2.467   0.181  1.6566  0.8159 -0.8244
17893TIP3   OH275169   1.369   6.768   2.994 -0.0573 -0.0546  0.1486
17893TIP3    H175170   1.386   6.850   3.040 -0.0762  1.0835 -1.7534
17893TIP3    H275171   1.316   6.717   3.055  0.6680  0.9788  1.7152
17894TIP3   OH275172   5.558   5.058   1.420  0.0412 -0.2710  0.6379
17894TIP3    H175173   5.571   5.108   1.339  0.7935  0.2485  1.0596
17894TIP3    H275174   5.548   5.125   1.488  0.6174 -0.6885  1.1492
17895TIP3   OH275175   6.646   0.754   3.984  0.0105  0.3985 -0.3374
17895TIP3    H175176   6.699   0.713   3.916  3.2433  1.5729  1.2764
17895TIP3    H275177   6.631   0.843   3.952  0.9917  0.7504  0.1143
17896TIP3   OH275178   6.352   1.108   3.053  0.2137  0.5359 -0.0481
17896TIP3    H175179   6.356   1.123   3.148  1.0250  1.8539 -0.2663
17896TIP3    H275180   6.332   1.015   3.045 -1.4968  0.7199  1.4206
17897TIP3   OH275181   4.094   2.186  17.028 -0.0786 -0.1673  0.2337
17897TIP3    H175182   3.999   2.183  17.029 -0.0971  0.3857  1.3061
17897TIP3    H275183   4.116   2.273  17.062  0.8238 -1.1808  2.4548
17898TIP3   OH275184   2.751   6.364   3.901  0.0816 -0.2771  0.3251
17898TIP3    H175185   2.711   6.435   3.952  1.2606  0.0945  0.7688
17898TIP3    H275186   2.682   6.299   3.892 -1.0481  0.9320 -0.1246
17899TIP3   OH275187   5.347   4.033   5.737  0.3193  0.8513 -0.1199
17899TIP3    H175188   5.252   4.025   5.740  0.3007  0.1386 -1.7486
17899TIP3    H275189   5.366   4.115   5.782 -1.1847  1.7757 -1.1134
17900TIP3   OH275190   0.375   4.484  14.655  0.5338 -0.7012 -0.3944
17900TIP3    H175191   0.323   4.560  14.627 -0.4906 -0.9532  0.7432
17900TIP3    H275192   0.450   4.484  14.597 -0.6577 -0.2241 -2.0052
17901TIP3   OH275193   1.639   6.319   2.848  0.4642  0.1417  0.0585
17901TIP3    H175194   1.735   6.324   2.848  0.5315 -0.6563  0.9744
17901TIP3    H275195   1.620   6.235   2.892 -0.6443  0.1414 -0.3928
17902TIP3   OH275196   4.071   0.879  12.942  0.3341 -0.1101 -0.1758
17902TIP3    H175197   4.075   0.892  13.037  0.3570 -0.3984 -0.1346
17902TIP3    H275198   4.059   0.966  12.906 -1.4976 -0.1862  0.1933
17903TIP3   OH275199   2.192   1.717  16.504  0.0411  0.6888 -0.0341
17903TIP3    H175200   2.148   1.634  16.521  1.7986 -0.6870 -1.6922
17903TIP3    H275201   2.230   1.741  16.588 -0.2497 -0.3611  0.4217
17904TIP3   OH275202   1.169   2.885   0.999  0.2189  0.1195  0.5595
17904TIP3    H175203   1.077   2.901   1.021  0.6350 -0.2408  2.7891
17904TIP3    H275204   1.177   2.790   0.992 -0.3823  0.2031 -3.8987
17905TIP3   OH275205   0.100   5.078   5.921 -0.0351  0.6469  0.0532
17905TIP3    H175206   0.021   5.091   5.868  0.4649 -0.4121 -0.9894
17905TIP3    H275207   0.096   4.985   5.946  2.0722 -0.0947 -2.0426
17906TIP3   OH275208   1.548   6.487  16.279  0.6876 -0.4622 -0.2618
17906TIP3    H175209   1.457   6.496  16.251  0.6740 -1.8501 -0.7359
17906TIP3    H275210   1.586   6.426  16.216  1.8001 -0.3442  0.2795
17907TIP3   OH275211   0.880   5.379  11.414  0.0411 -0.3407 -0.0912
17907TIP3    H175212   0.801   5.363  11.361  0.3055  0.0221 -0.6131
17907TIP3    H275213   0.933   5.300  11.401  1.2725  0.7615 -2.5294
17908TIP3   OH275214   6.151   1.847   3.841 -0.2748  0.1334 -0.4605
17908TIP3    H175215   6.244   1.861   3.856 -0.5259  0.5558  0.7419
17908TIP3    H275216   6.137   1.880   3.752  1.2180 -2.3662 -1.7494
17909TIP3   OH275217   4.797   4.530  16.179  0.4785  0.6186 -0.1026
17909TIP3    H175218   4.783   4.537  16.273  3.0952  0.9791  0.3408
17909TIP3    H275219   4.770   4.615  16.144  0.1156  0.7179  0.4055
17910TIP3   OH275220   2.751   1.593   2.123  0.5786 -0.4747  0.1357
17910TIP3    H175221   2.708   1.640   2.052  1.3136  0.3278  0.2130
17910TIP3    H275222   2.757   1.503   2.092  0.9209 -0.1304 -0.8381
17911TIP3   OH275223   4.130   6.686  11.665 -0.5661 -0.2268 -0.7870
17911TIP3    H175224   4.072   6.646  11.730  0.2264  0.8620  0.6671
17911TIP3    H275225   4.175   6.612  11.625 -0.2694 -0.9192  0.7233
17912TIP3   OH275226   2.107   5.024   5.777  0.3177 -0.4243  0.0819
17912TIP3    H175227   2.179   4.968   5.807  0.8471  0.1696 -0.0545
17912TIP3    H275228   2.066   4.974   5.707  1.2596 -0.3373 -0.5530
17913TIP3   OH275229   4.078   4.622  13.693 -0.0252  0.0596 -0.0396
17913TIP3    H175230   4.021   4.646  13.765  0.0828 -2.8871  1.1845
17913TIP3    H275231   4.019   4.599  13.621 -0.3216 -0.8312  0.4779
17914TIP3   OH275232   2.953   2.858  15.622 -0.8930  0.5368  0.7223
17914TIP3    H175233   2.967   2.953  15.626  0.4815  0.5690 -2.2992
17914TIP3    H275234   2.879   2.848  15.562 -2.1554 -0.3187  2.3443
17915TIP3   OH275235   2.985   6.537   0.660  0.3985 -0.0204 -0.2511
17915TIP3    H175236   3.035   6.617   0.643 -0.2040  0.3492 -0.3145
17915TIP3    H275237   2.913   6.565   0.717 -0.5224 -0.2685 -1.2485
17916TIP3   OH275238   0.882   4.459  15.685  0.8003 -0.5805 -0.2373
17916TIP3    H175239   0.900   4.549  15.711  2.9700  0.1192 -3.5239
17916TIP3    H275240   0.962   4.411  15.708 -0.5740 -1.9341  2.0859
17917TIP3   OH275241   2.012   5.122  16.128  0.2720  0.0668  0.4322
17917TIP3    H175242   2.047   5.059  16.192 -0.0205  0.0674  0.5957
17917TIP3    H275243   2.081   5.187  16.119  0.1383  0.3113  1.0911
17918TIP3   OH275244   5.489   1.542  16.602 -0.2741  0.0997  0.2766
17918TIP3    H175245   5.545   1.486  16.548  1.5752  1.6398  0.4791
17918TIP3    H275246   5.512   1.520  16.692  0.2585  0.9120  0.3597
17919TIP3   OH275247   5.830   3.805   0.816  0.5704 -0.5462  0.0192
17919TIP3    H175248   5.861   3.809   0.726  1.0550 -1.1117  0.1603
17919TIP3    H275249   5.747   3.756   0.811  1.2727 -1.7715  0.0508
17920TIP3   OH275250   0.584   4.672  10.518  0.1206 -0.0320  0.1802
17920TIP3    H175251   0.499   4.629  10.518 -0.6880  1.4540 -1.3607
17920TIP3    H275252   0.635   4.625  10.584 -2.4099  0.0725  2.3700
17921TIP3   OH275253   4.375   5.019  13.648 -0.6610 -0.8005 -0.3497
17921TIP3    H175254   4.315   4.948  13.626  0.0386 -2.0101  1.3972
17921TIP3    H275255   4.346   5.049  13.734 -1.0276  1.1895 -1.1058
17922TIP3   OH275256   6.218   2.843   3.169 -0.5358 -0.9044 -0.1015
17922TIP3    H175257   6.306   2.881   3.178  0.4792 -2.8404 -1.1745
17922TIP3    H275258   6.164   2.895   3.229  0.9870  1.3319 -0.5156
17923TIP3   OH275259   3.997   6.703   4.753  0.1593  0.6691 -0.1998
17923TIP3    H175260   4.054   6.630   4.728 -0.7486 -0.1039 -0.0801
17923TIP3    H275261   4.000   6.762   4.678  0.8212  0.4622 -0.3439
17924TIP3   OH275262   3.999   1.291   0.847  0.1426 -0.3150  0.5869
17924TIP3    H175263   3.978   1.317   0.757 -1.5064 -0.0879  1.0070
17924TIP3    H275264   4.054   1.362   0.880 -1.2374  0.8448  0.5084
17925TIP3   OH275265   5.605   1.300  11.774 -0.4681 -0.1081  0.4048
17925TIP3    H175266   5.666   1.245  11.726  0.9619  1.0924  0.7724
17925TIP3    H275267   5.569   1.243  11.842 -2.5797 -1.8636 -1.9839
17926TIP3   OH275268   2.430   4.817   1.991 -0.8115 -0.4181  0.0894
17926TIP3    H175269   2.421   4.778   2.078 -1.0962  0.1510  0.3143
17926TIP3    H275270   2.497   4.884   2.002 -1.0014 -0.1993 -0.0792
17927TIP3   OH275271   5.485   0.710   1.053  0.3822 -0.0638  0.0531
17927TIP3    H175272   5.546   0.718   1.126  0.8130  1.2830 -0.4126
17927TIP3    H275273   5.515   0.634   1.003  0.8219 -0.2505  0.5997
17928TIP3   OH275274   1.571   1.650   0.251  0.3909 -0.5822 -0.3650
17928TIP3    H175275   1.517   1.710   0.199  0.0611 -1.7773 -1.4739
17928TIP3    H275276   1.657   1.692   0.254 -0.2361  0.7132  0.2857
17929TIP3   OH275277   6.179   3.793   0.256  0.1111 -0.4603  0.5955
17929TIP3    H175278   6.238   3.731   0.300 -0.9791 -1.6564  0.4260
17929TIP3    H275279   6.100   3.742   0.237 -0.1953  0.5411 -1.0236
17930TIP3   OH275280   5.805   0.839   1.659 -0.8443 -0.0137  0.0905
17930TIP3    H175281   5.838   0.858   1.571 -2.3035  0.2081 -0.4513
17930TIP3    H275282   5.875   0.868   1.718 -0.6572  1.8103 -0.9261
17931TIP3   OH275283   6.789   5.746  16.095 -0.0140  0.4482 -0.1771
17931TIP3    H175284   6.752   5.657  16.090 -4.0060  1.9032 -0.1005
17931TIP3    H275285   6.878   5.733  16.128  0.1497 -3.5856 -1.6113
17932TIP3   OH275286   6.438   0.918   0.331  0.1737 -0.3072  0.1406
17932TIP3    H175287   6.347   0.889   0.323  0.4421 -1.0102 -0.5490
17932TIP3    H275288   6.468   0.881   0.414  0.3063 -1.4743 -0.4095
17933TIP3   OH275289   6.758   0.201  12.631 -0.0012  0.3625 -0.4458
17933TIP3    H175290   6.810   0.123  12.610  0.3624  0.4150  0.2368
17933TIP3    H275291   6.823   0.268  12.652 -0.3378  0.5532 -0.0042
17934TIP3   OH275292   5.821   3.615  16.215  0.0856  0.3162 -0.2281
17934TIP3    H175293   5.796   3.697  16.172  0.9300  1.7340  1.8184
17934TIP3    H275294   5.788   3.623  16.304  0.9974 -1.1736  0.2830
17935TIP3   OH275295   4.515   0.814   5.648  0.2165  0.4437 -0.0090
17935TIP3    H175296   4.485   0.853   5.566  1.2182  1.3081  0.0189
17935TIP3    H275297   4.482   0.873   5.717  2.5270  1.8582 -0.0163
17936TIP3   OH275298   0.083   3.024  16.960 -0.4678 -0.1721 -0.6279
17936TIP3    H175299   0.120   3.104  16.997 -0.5789 -0.8749  1.1025
17936TIP3    H275300   0.087   2.961  17.031  0.4312 -1.9933 -2.1851
17937TIP3   OH275301   1.606   4.643  12.611 -0.1008  0.4998  0.8810
17937TIP3    H175302   1.622   4.671  12.701 -1.4958  0.5698  1.1313
17937TIP3    H275303   1.692   4.616  12.579  0.3303 -0.0950  2.4255
17938TIP3   OH275304   1.718   0.179   6.141 -0.1634 -0.8978  0.4830
17938TIP3    H175305   1.768   0.127   6.204 -2.1517 -1.6082  1.6007
17938TIP3    H275306   1.640   0.205   6.189 -0.8715  0.1563 -1.1512
17939TIP3   OH275307   4.412   0.635   0.061  0.0082  0.0719  0.4916
17939TIP3    H175308   4.448   0.718   0.030 -1.8975  1.9388  2.8982
17939TIP3    H275309   4.327   0.628   0.019 -0.4201  0.0686  1.3357
17940TIP3   OH275310   6.081   1.310   0.307 -0.3859  0.3489  0.3251
17940TIP3    H175311   6.160   1.274   0.347 -0.4161 -0.7062 -0.5211
17940TIP3    H275312   6.018   1.316   0.379 -0.7056 -2.2642  0.3656
17941TIP3   OH275313   3.712   3.684   3.542  0.1915  0.0555  0.0979
17941TIP3    H175314   3.745   3.620   3.604  0.0229  0.6067  0.7693
17941TIP3    H275315   3.626   3.709   3.577 -0.3986 -0.4332 -0.9443
17942TIP3   OH275316   4.510   3.452   3.439 -0.0360 -0.2831 -0.6472
17942TIP3    H175317   4.531   3.513   3.369  2.1223 -0.9960 -0.7072
17942TIP3    H275318   4.474   3.506   3.509  0.9172  0.9343 -1.0597
17943TIP3   OH275319   4.463   1.228   3.574 -0.1840  0.0477 -0.0220
17943TIP3    H175320   4.445   1.148   3.524  1.9162 -1.0909  0.9269
17943TIP3    H275321   4.406   1.221   3.651  2.0749 -2.1838  1.6236
17944TIP3   OH275322   3.286   1.661  15.416  0.6041  0.0212 -0.0476
17944TIP3    H175323   3.247   1.651  15.329  0.2733 -0.6755  0.1693
17944TIP3    H275324   3.299   1.755  15.426  2.3941 -0.0102 -1.5946
17945TIP3   OH275325   0.761   1.690  10.725  0.1772 -0.2323 -0.0548
17945TIP3    H175326   0.713   1.746  10.664  2.7587  0.0498 -1.9967
17945TIP3    H275327   0.786   1.748  10.797 -0.0655  0.2407 -0.3494
17946TIP3   OH275328   5.415   5.264   2.650  0.8854  0.0612  0.0462
17946TIP3    H175329   5.420   5.289   2.558 -0.4333 -0.5403 -0.2072
17946TIP3    H275330   5.389   5.344   2.695 -1.3628 -0.2866 -0.5124
17947TIP3   OH275331   2.603   5.254   5.274 -0.0255  0.0016  0.1171
17947TIP3    H175332   2.578   5.337   5.314  0.7439  0.3568 -0.1083
17947TIP3    H275333   2.645   5.279   5.191  1.3914 -0.5100  0.6478
17948TIP3   OH275334   5.859   5.799  14.842  0.3255 -0.0099  0.8805
17948TIP3    H175335   5.919   5.724  14.845  0.1584 -0.1501  0.7270
17948TIP3    H275336   5.775   5.761  14.818  0.5176  0.4069 -0.5236
17949TIP3   OH275337   0.734   3.117   5.354 -0.3179  0.4108  0.0150
17949TIP3    H175338   0.794   3.087   5.285 -0.6257 -0.2621  0.0391
17949TIP3    H275339   0.727   3.212   5.340  1.3881  0.6500  0.4983
17950TIP3   OH275340   2.798   0.284  13.891  0.1600 -0.0411  0.3075
17950TIP3    H175341   2.869   0.269  13.829  0.3034 -2.1212  0.8995
17950TIP3    H275342   2.791   0.379  13.896  2.2471  0.2200 -0.5167
17951TIP3   OH275343   0.291   4.262   4.995  0.0871  0.2508  0.4358
17951TIP3    H175344   0.261   4.182   5.040 -1.2477 -0.0646 -0.9455
17951TIP3    H275345   0.214   4.319   4.995  0.4758  0.7808 -0.2332
17952TIP3   OH275346   1.665   1.734  14.617  0.3096  0.5051  0.4012
17952TIP3    H175347   1.712   1.814  14.641  0.9428  0.6563 -1.1925
17952TIP3    H275348   1.573   1.753  14.635  0.0694  2.6729 -2.3968
17953TIP3   OH275349   5.080   5.318   1.241 -0.3138  0.2187 -0.1195
17953TIP3    H175350   4.985   5.319   1.251 -0.2856  0.8516  0.1000
17953TIP3    H275351   5.105   5.229   1.267 -0.5703  0.8324  2.4710
17954TIP3   OH275352   3.586   0.717  15.309 -0.2259 -0.7229 -0.1524
17954TIP3    H175353   3.590   0.812  15.317  0.9217 -0.8041  0.5457
17954TIP3    H275354   3.500   0.700  15.270  0.0988  0.6574 -1.5924
17955TIP3   OH275355   3.541   2.949   3.922 -0.4460  0.2108 -0.1752
17955TIP3    H175356   3.583   2.971   4.005 -0.9747  0.0300  0.1451
17955TIP3    H275357   3.450   2.930   3.945 -0.0512 -2.2828 -0.4056
17956TIP3   OH275358   2.080   1.153  16.073 -0.0045  0.3703 -0.3030
17956TIP3    H175359   2.013   1.195  16.127 -0.2820  1.3934 -1.4108
17956TIP3    H275360   2.034   1.084  16.027  0.4364 -1.1882  1.4601
17957TIP3   OH275361   3.390   1.397   2.712 -0.2566 -0.2243 -0.0396
17957TIP3    H175362   3.317   1.421   2.769 -1.5564 -3.4320 -0.2073
17957TIP3    H275363   3.368   1.435   2.627 -1.9261 -1.3333 -0.1539
17958TIP3   OH275364   2.445   1.017   4.271 -0.5542  0.3668  0.5356
17958TIP3    H175365   2.402   1.084   4.218 -0.3346  0.3690  0.3549
17958TIP3    H275366   2.434   0.936   4.220 -1.0662  0.2114  0.8904
17959TIP3   OH275367   0.414   2.196  14.248  0.2726 -0.1278 -0.6522
17959TIP3    H175368   0.367   2.258  14.192  1.2384  1.3222  0.0579
17959TIP3    H275369   0.446   2.250  14.321  0.7294 -1.5782  0.2633
17960TIP3   OH275370   3.225   2.309   1.384 -0.0376  1.0774 -0.1226
17960TIP3    H175371   3.320   2.304   1.375 -0.1309  0.5708 -0.9076
17960TIP3    H275372   3.193   2.227   1.347 -0.7997  1.3914 -0.1795
17961TIP3   OH275373   1.078   6.279  12.316  0.5689  0.0086  0.0449
17961TIP3    H175374   1.023   6.212  12.276  0.6527 -1.2788  1.9818
17961TIP3    H275375   1.164   6.238  12.324  1.3525  1.3018 -1.1119
17962TIP3   OH275376   4.869   2.717  11.953 -0.0686 -0.1435  0.4154
17962TIP3    H175377   4.872   2.764  12.037  0.5931  0.2861  0.1578
17962TIP3    H275378   4.775   2.704  11.936 -0.3770  2.4086 -0.2359
17963TIP3   OH275379   2.176   6.221   6.544 -0.5767  0.0222 -0.5306
17963TIP3    H175380   2.114   6.172   6.599 -1.6886  0.4038 -1.3984
17963TIP3    H275381   2.160   6.313   6.566 -0.2376  0.1199 -0.6894
17964TIP3   OH275382   6.384   4.650   0.242 -0.2120  0.0046  0.2480
17964TIP3    H175383   6.398   4.572   0.296  2.4449  0.0338 -0.2450
17964TIP3    H275384   6.348   4.618   0.160  1.4643 -0.8611 -0.1956
17965TIP3   OH275385   1.361   3.699   0.813  0.4416 -0.3965  0.2291
17965TIP3    H175386   1.352   3.793   0.798  0.7155 -0.0731  1.9245
17965TIP3    H275387   1.399   3.665   0.732 -2.1533  0.4821 -1.4840
17966TIP3   OH275388   2.476   5.983   4.775 -0.3060  0.5699  0.5280
17966TIP3    H175389   2.417   6.026   4.713  1.9939  1.6357 -1.0979
17966TIP3    H275390   2.547   6.046   4.786  1.8575 -1.6859  0.2452
17967TIP3   OH275391   5.129   2.230  16.065 -0.0299  0.2142 -0.2527
17967TIP3    H175392   5.072   2.249  15.991  0.0270 -1.5037 -0.7752
17967TIP3    H275393   5.070   2.217  16.139 -0.1270  1.2296 -0.1399
17968TIP3   OH275394   0.771   1.708  12.780 -0.2057 -0.3373  0.1391
17968TIP3    H175395   0.771   1.614  12.765  0.9426 -0.1580 -1.2872
17968TIP3    H275396   0.701   1.723  12.843 -0.3011 -2.1531  0.5111
17969TIP3   OH275397   2.163   5.657   1.887  0.4402 -0.0078 -0.4048
17969TIP3    H175398   2.092   5.652   1.822  1.2496 -0.1904 -1.3020
17969TIP3    H275399   2.156   5.576   1.937 -0.2473  0.1709 -0.1964
17970TIP3   OH275400   5.519   3.793   4.703 -0.0869 -0.4428 -0.4558
17970TIP3    H175401   5.527   3.697   4.703  2.0942 -0.3274 -1.0302
17970TIP3    H275402   5.609   3.824   4.690 -0.9610  1.6674 -2.1006
17971TIP3   OH275403   1.065   3.969  15.009 -0.2377 -0.4127  0.5791
17971TIP3    H175404   1.069   3.900  14.943 -0.0185  0.0152  0.1325
17971TIP3    H275405   1.093   4.048  14.962  0.0133 -0.1216  1.2124
17972TIP3   OH275406   1.182   2.890  12.219 -0.2066 -0.3171  0.2646
17972TIP3    H175407   1.116   2.953  12.189  0.7950  0.7803  0.2975
17972TIP3    H275408   1.232   2.869  12.140 -0.3246 -0.8132  0.3233
17973TIP3   OH275409   1.296   0.607   5.581 -0.0430 -0.3714 -0.0592
17973TIP3    H175410   1.303   0.538   5.647 -2.9273 -0.9534 -0.2242
17973TIP3    H275411   1.209   0.645   5.595 -0.1956  0.4382 -2.6336
17974TIP3   OH275412   2.714   4.963  15.890 -0.0061  0.4388  0.2218
17974TIP3    H175413   2.693   4.921  15.806  2.1690 -0.0341 -0.1577
17974TIP3    H275414   2.667   5.046  15.888 -2.0438 -0.6601 -0.3173
17975TIP3   OH275415   4.699   4.153   5.733 -0.3917 -0.0966  0.2750
17975TIP3    H175416   4.727   4.159   5.825 -0.1868 -2.4769  0.4402
17975TIP3    H275417   4.780   4.159   5.683 -0.6237  2.5686  0.0949
17976TIP3   OH275418   6.044   6.311   0.878  0.1518 -0.4605 -0.2182
17976TIP3    H175419   6.134   6.305   0.846 -0.2138  0.1172 -1.3984
17976TIP3    H275420   5.992   6.268   0.811 -0.5586  0.0661 -0.0138
17977TIP3   OH275421   1.799   2.485  12.553 -0.4851 -0.1204 -0.2859
17977TIP3    H175422   1.709   2.459  12.573 -1.0521  0.0065 -2.4049
17977TIP3    H275423   1.799   2.498  12.458  1.2267  1.9823 -0.0638
17978TIP3   OH275424   3.050   3.378  17.205 -0.2019  0.0777  0.4043
17978TIP3    H175425   3.091   3.303  17.162  1.0899 -0.3590  2.2579
17978TIP3    H275426   3.022   3.345  17.291 -1.0342  1.3334  0.6504
17979TIP3   OH275427   1.381   4.097  15.460 -0.2653 -0.4287 -0.3280
17979TIP3    H175428   1.318   4.041  15.507 -0.3611 -0.9197 -1.0178
17979TIP3    H275429   1.461   4.091  15.512 -0.8391  0.3673  0.6744
17980TIP3   OH275430   3.938   2.559   2.553  0.3018 -0.3984  0.3639
17980TIP3    H175431   3.961   2.523   2.638 -1.3358 -1.8411  0.2538
17980TIP3    H275432   3.882   2.634   2.573  1.7843  0.7049  0.5510
17981TIP3   OH275433   3.626   4.640  12.051 -0.3303  0.1199 -0.6259
17981TIP3    H175434   3.595   4.655  12.141 -1.9535  1.3921 -1.3597
17981TIP3    H275435   3.681   4.716  12.032 -2.3209  1.3541 -1.6736
17982TIP3   OH275436   5.078   5.996   2.130  0.0573  0.1054  0.2135
17982TIP3    H175437   5.081   5.965   2.039  0.3308  2.3053 -0.5943
17982TIP3    H275438   4.989   5.975   2.160  0.3330 -1.7161 -0.1041
17983TIP3   OH275439   6.779   1.981  13.483 -0.4867  0.0281  0.8286
17983TIP3    H175440   6.732   2.039  13.423  0.9956  1.6795  1.1595
17983TIP3    H275441   6.766   2.020  13.569  0.2135 -0.3411  1.1108
17984TIP3   OH275442   6.647   3.723  11.176  0.5536 -0.2182 -0.4342
17984TIP3    H175443   6.631   3.735  11.270 -0.0308 -1.0761 -0.4197
17984TIP3    H275444   6.645   3.628  11.163  2.6971 -0.2458 -0.9584
17985TIP3   OH275445   5.512   4.467  11.905  0.4806  0.0297  0.4050
17985TIP3    H175446   5.606   4.481  11.892  0.2497  1.1335 -0.2074
17985TIP3    H275447   5.494   4.385  11.860  1.2642 -0.5481  1.1004
17986TIP3   OH275448   0.068   4.351  11.549 -0.1922 -0.4022 -0.3502
17986TIP3    H175449   0.139   4.378  11.608 -1.3766  1.6227  0.2401
17986TIP3    H275450   0.049   4.261  11.575 -0.0164  0.1056  1.7661
17987TIP3   OH275451   1.414   3.024  12.028 -0.4661 -0.0212  0.6402
17987TIP3    H175452   1.361   3.099  12.058  0.7732  1.3677 -0.5413
17987TIP3    H275453   1.484   3.017  12.093 -0.2809  0.1902  0.4647
17988TIP3   OH275454   4.663   0.270   4.230  0.2495 -0.3189 -0.4948
17988TIP3    H175455   4.689   0.208   4.299 -0.2486  0.2827  0.2439
17988TIP3    H275456   4.568   0.269   4.232  0.1937 -1.3268 -2.1303
17989TIP3   OH275457   2.260   3.107  15.126 -0.3005  0.4380  0.4626
17989TIP3    H175458   2.271   3.196  15.159  1.6995 -0.0784  1.3308
17989TIP3    H275459   2.347   3.067  15.134 -0.5595 -0.8610 -2.1379
17990TIP3   OH275460   0.395   4.523  11.271 -0.0701 -0.3156  0.5480
17990TIP3    H175461   0.475   4.511  11.322  0.1558  0.8645  0.5013
17990TIP3    H275462   0.424   4.520  11.179 -0.5224 -2.7837  0.4026
17991TIP3   OH275463   0.448   1.623  11.161  0.2489  0.3583 -0.1606
17991TIP3    H175464   0.420   1.536  11.188  0.0307  0.4301 -0.1548
17991TIP3    H275465   0.463   1.615  11.067  1.2447  0.0458  0.0167
17992TIP3   OH275466   1.046   0.991  15.963 -0.0006  0.3675 -0.7409
17992TIP3    H175467   1.028   1.082  15.939  1.4318  0.5444 -1.2198
17992TIP3    H275468   0.999   0.979  16.046 -0.6768  1.3616 -0.9653
17993TIP3   OH275469   4.545   5.308  12.710 -0.4925  0.2834 -0.1945
17993TIP3    H175470   4.531   5.398  12.681 -1.4985 -0.2944 -1.6229
17993TIP3    H275471   4.638   5.291  12.692  0.1734  1.5516  1.7334
17994TIP3   OH275472   3.201   5.675  12.361 -0.2542 -0.2697  0.1558
17994TIP3    H175473   3.259   5.635  12.425  1.3203  1.7714  0.1011
17994TIP3    H275474   3.151   5.739  12.412  0.6565  1.0150 -0.5151
17995TIP3   OH275475   6.437   0.832   2.864 -0.4015 -0.3955  0.3391
17995TIP3    H175476   6.462   0.909   2.916 -0.3331 -1.5445  2.0789
17995TIP3    H275477   6.397   0.772   2.927 -0.0894 -1.9679 -0.8901
17996TIP3   OH275478   3.099   5.452   3.884  0.0420 -0.4615 -0.8864
17996TIP3    H175479   3.113   5.407   3.968 -0.2081 -1.5780 -1.4327
17996TIP3    H275480   3.029   5.403   3.842 -0.9101  1.0342 -1.0937
17997TIP3   OH275481   2.062   4.730  14.157  0.0310 -0.3552  0.1329
17997TIP3    H175482   2.052   4.826  14.160  1.5426 -0.1903  0.5145
17997TIP3    H275483   2.069   4.704  14.249  1.7645 -0.5626 -0.0311
17998TIP3   OH275484   0.503   1.403  12.200  0.2365 -0.3155  0.2629
17998TIP3    H175485   0.565   1.408  12.127 -0.1113  0.9711  0.0333
17998TIP3    H275486   0.442   1.475  12.184  0.3955  0.2526  2.0291
17999TIP3   OH275487   2.910   6.443  15.512  0.5783  0.0185  0.5142
17999TIP3    H175488   2.884   6.379  15.445  0.5750  0.9721 -0.4368
17999TIP3    H275489   2.933   6.391  15.588 -4.2907 -0.9984  1.6140
18000TIP3   OH275490   6.623   3.103   6.037  0.9200  0.8592 -0.5480
18000TIP3    H175491   6.575   3.042   5.980 -0.8431  0.1268  1.5766
18000TIP3    H275492   6.698   3.131   5.984  0.0925 -0.7403 -2.7343
18001TIP3   OH275493   1.959   6.441   5.031 -0.1396 -0.3791  0.2040
18001TIP3    H175494   1.952   6.479   4.944 -0.9318 -1.7141 -0.3498
18001TIP3    H275495   2.033   6.485   5.071 -0.0420  0.5774 -0.9824
18002TIP3   OH275496   6.037   2.610  15.953 -0.2853 -0.0633 -0.4541
18002TIP3    H175497   6.092   2.668  15.900 -0.1001 -0.0116 -0.2086
18002TIP3    H275498   6.097   2.542  15.982 -0.5854 -0.5997 -1.0654
18003TIP3   OH275499   4.831   2.105  16.574 -0.2729  0.1604  0.7013
18003TIP3    H175500   4.896   2.051  16.618  1.1601 -0.1292 -1.6467
18003TIP3    H275501   4.810   2.058  16.494 -0.7946  1.9100 -0.2508
18004TIP3   OH275502   3.123   4.272  13.834 -0.5479  0.0401  0.5769
18004TIP3    H175503   3.155   4.191  13.795 -0.2829  0.7375 -0.6829
18004TIP3    H275504   3.154   4.268  13.925  1.0677 -0.4029  0.0407
18005TIP3   OH275505   0.515   6.748  14.256  0.0949 -0.5339  0.7857
18005TIP3    H175506   0.516   6.844  14.259 -0.3182 -0.5428  1.4014
18005TIP3    H275507   0.442   6.726  14.198  0.0716 -0.4769  0.7937
18006TIP3   OH275508   4.239   0.089  16.504  0.4054  0.3720 -0.8118
18006TIP3    H175509   4.229   0.015  16.564 -1.0141  0.4448 -0.9241
18006TIP3    H275510   4.231   0.050  16.417 -2.9615  0.8695 -0.8871
18007TIP3   OH275511   4.120   6.087  14.743 -0.4868 -0.2500 -0.0026
18007TIP3    H175512   4.122   6.091  14.839  0.4895 -0.9664  0.0236
18007TIP3    H275513   4.165   6.005  14.721 -2.1328 -0.9149 -1.0341
18008TIP3   OH275514   3.806   3.784  15.182 -0.3447  0.0029  0.3077
18008TIP3    H175515   3.831   3.692  15.191  0.5837  0.2540  0.3539
18008TIP3    H275516   3.714   3.781  15.155 -0.4050 -0.9301  0.5777
18009TIP3   OH275517   5.080   4.510   6.146  0.0423  0.3125 -0.1103
18009TIP3    H175518   5.024   4.432   6.146  1.7024 -1.1877 -4.4977
18009TIP3    H275519   5.019   4.583   6.142 -1.6788 -1.1122 -1.9693
18010TIP3   OH275520   5.674   1.475   5.345 -0.1858  0.0767  0.0987
18010TIP3    H175521   5.678   1.395   5.397 -3.1193 -1.2601 -1.4336
18010TIP3    H275522   5.627   1.538   5.400 -1.6888 -0.7505 -0.1573
18011TIP3   OH275523   5.413   2.607   5.213  0.4576  0.5648  0.3020
18011TIP3    H175524   5.402   2.611   5.118 -0.3103 -1.8725  0.2018
18011TIP3    H275525   5.484   2.544   5.225  0.2510  0.5255  1.3508
18012TIP3   OH275526   0.471   0.196   3.710 -0.0591  0.0226 -0.2614
18012TIP3    H175527   0.546   0.238   3.668  0.9437 -0.1217  1.2774
18012TIP3    H275528   0.395   0.245   3.680  0.9734  2.4219  0.7743
18013TIP3   OH275529   0.283   2.340  14.848 -0.1982 -0.1134 -0.4782
18013TIP3    H175530   0.212   2.363  14.787  0.6043  0.8485 -1.0975
18013TIP3    H275531   0.302   2.422  14.894 -1.3570 -1.0104  1.7393
18014TIP3   OH275532   3.005   0.399   3.009  0.2746  0.3173 -0.7943
18014TIP3    H175533   3.040   0.374   3.094  0.3046  0.3001 -0.8117
18014TIP3    H275534   2.919   0.357   3.005  0.0876  0.6763 -0.5921
18015TIP3   OH275535   4.089   0.003   4.219 -0.1606  0.5313 -0.0280
18015TIP3    H175536   4.069  -0.054   4.145 -0.7527  2.2562 -1.2407
18015TIP3    H275537   4.124  -0.057   4.286 -0.9299 -1.2630 -1.1532
18016TIP3   OH275538   0.699   3.019  14.937 -0.1698  0.1602  0.4176
18016TIP3    H175539   0.686   2.942  14.993 -1.3647  0.9522  1.2587
18016TIP3    H275540   0.699   2.983  14.848 -0.9877 -0.7965  0.7817
18017TIP3   OH275541   2.022   0.274  12.097  0.2481  0.0243  0.2429
18017TIP3    H175542   2.035   0.351  12.041 -0.5586  0.8123  1.0898
18017TIP3    H275543   1.946   0.297  12.151 -0.1654 -1.4788  0.3448
18018TIP3   OH275544   0.010   3.790  16.165 -0.0348  0.1120  0.0619
18018TIP3    H175545  -0.046   3.763  16.092  0.0647  0.0338  0.0149
18018TIP3    H275546   0.086   3.831  16.124  0.6813 -1.1475  0.0630
18019TIP3   OH275547   1.047   6.460   3.130 -0.5450  0.9189  0.0036
18019TIP3    H175548   1.064   6.370   3.104 -1.0220  0.7738  0.1912
18019TIP3    H275549   0.969   6.485   3.080 -0.5936  1.1274  0.1826
18020TIP3   OH275550   2.316   5.925   5.676  0.4530 -0.2539 -0.3328
18020TIP3    H175551   2.312   5.946   5.582  0.2820 -1.0857 -0.5211
18020TIP3    H275552   2.226   5.937   5.706 -0.8096 -4.8798 -1.4206
18021TIP3   OH275553   1.744   1.699  12.808  0.1420  0.2657 -0.1549
18021TIP3    H175554   1.802   1.625  12.828 -0.0754  0.9930  4.3072
18021TIP3    H275555   1.804   1.771  12.787  0.6269 -0.0679  0.0642
18022TIP3   OH275556   6.156   5.903  10.901  0.2886 -0.5176 -0.2018
18022TIP3    H175557   6.096   5.880  10.830  0.5268  0.5431 -0.7609
18022TIP3    H275558   6.243   5.897  10.861  0.4319 -0.0751  0.0496
18023TIP3   OH275559   5.501   5.057   1.763 -0.1487  0.6854  0.0775
18023TIP3    H175560   5.577   4.999   1.756  0.3997  1.5732 -1.9083
18023TIP3    H275561   5.430   5.000   1.793  1.0786 -0.3403  1.1268
18024TIP3   OH275562   0.903   0.282  12.068  0.4274 -0.2605 -0.2581
18024TIP3    H175563   0.865   0.271  12.155  0.4835 -0.6987 -0.2900
18024TIP3    H275564   0.995   0.259  12.078  0.3349 -0.7616 -0.5321
18025TIP3   OH275565   2.060   3.802   6.439  0.5295 -0.4222 -0.8356
18025TIP3    H175566   1.977   3.848   6.451  0.9298  0.6028 -1.8504
18025TIP3    H275567   2.038   3.727   6.384  0.0599 -0.8839 -0.0365
18026TIP3   OH275568   3.566   5.165  15.495  0.1527  0.0386 -0.0628
18026TIP3    H175569   3.545   5.072  15.484 -0.5620  0.2645 -0.6753
18026TIP3    H275570   3.642   5.165  15.553  0.9930 -0.9850 -1.1217
18027TIP3   OH275571   2.605   4.335  12.312 -0.0218  0.7369  0.2570
18027TIP3    H175572   2.582   4.268  12.376 -0.6149 -0.6446 -1.3142
18027TIP3    H275573   2.593   4.418  12.358 -1.9304 -0.1452  1.4740
18028TIP3   OH275574   2.311   4.587  15.102 -0.4547  0.3842  0.0794
18028TIP3    H175575   2.378   4.616  15.040 -0.7711  0.6479 -0.1461
18028TIP3    H275576   2.360   4.551  15.175 -0.0790 -0.5595 -0.6140
18029TIP3   OH275577   5.016   3.715  13.102  0.4053 -0.4250 -0.1280
18029TIP3    H175578   4.982   3.783  13.161  2.9073 -1.7716  3.2098
18029TIP3    H275579   4.946   3.650  13.097 -0.1405  0.0752  0.8000
18030TIP3   OH275580   2.484   4.830   5.665 -0.4687  0.6994  0.4168
18030TIP3    H175581   2.567   4.851   5.708 -1.3369  3.1612  1.0666
18030TIP3    H275582   2.491   4.870   5.578 -0.1402 -1.0799 -0.4221
18031TIP3   OH275583   3.647   4.391  11.933 -0.1238 -0.1329  0.6650
18031TIP3    H175584   3.635   4.472  11.984  1.4280  1.1528 -0.8920
18031TIP3    H275585   3.659   4.323  11.999  0.6817  1.2600  2.0297
18032TIP3   OH275586   6.050   1.413   5.538 -0.0078  0.5408  0.1697
18032TIP3    H175587   6.033   1.504   5.562  3.7460  1.7375 -0.8659
18032TIP3    H275588   6.026   1.408   5.445  0.5923  0.7896 -0.0081
18033TIP3   OH275589   6.651   3.495  16.876  0.3351  0.4083  0.1997
18033TIP3    H175590   6.559   3.486  16.851  0.4448  0.4842 -0.2376
18033TIP3    H275591   6.659   3.444  16.957  0.1691 -0.5787 -0.3910
18034TIP3   OH275592   1.803   6.650   4.064 -0.3163  0.4242  0.0821
18034TIP3    H175593   1.750   6.728   4.047 -0.1715  0.4176 -0.4389
18034TIP3    H275594   1.839   6.663   4.152  0.1740  1.2229 -0.2227
18035TIP3   OH275595   1.379   3.754   3.707 -0.2013  0.3120  0.3295
18035TIP3    H175596   1.464   3.798   3.714  0.2991 -0.3409 -1.3006
18035TIP3    H275597   1.344   3.757   3.796  2.3035 -0.9518  1.4446
18036TIP3   OH275598   5.629   4.004  15.692 -0.0500 -0.5415  0.1350
18036TIP3    H175599   5.724   4.000  15.683 -0.2183 -1.0315 -1.9154
18036TIP3    H275600   5.600   3.913  15.684 -0.7169 -0.3598  0.4078
18037TIP3   OH275601   5.767   5.582   5.109  0.4086  0.1079  0.2371
18037TIP3    H175602   5.731   5.560   5.196 -0.2248  0.4472  0.0664
18037TIP3    H275603   5.698   5.556   5.048  0.3010  1.0793 -0.0739
18038TIP3   OH275604   2.966   5.554  15.797 -0.4471  0.5045  0.1213
18038TIP3    H175605   2.880   5.545  15.757 -1.3830 -0.2095  2.1770
18038TIP3    H275606   3.003   5.634  15.758 -1.5113  0.1610 -1.6706
18039TIP3   OH275607   6.164   0.756   1.110  0.0425 -0.2946  0.6985
18039TIP3    H175608   6.201   0.827   1.162  1.5859  0.3508 -1.1989
18039TIP3    H275609   6.073   0.782   1.096  0.7521  1.7289 -0.5636
18040TIP3   OH275610   5.503   3.472  12.317  0.0453  0.1670 -0.1046
18040TIP3    H175611   5.528   3.550  12.365  0.0529  1.5673 -2.2640
18040TIP3    H275612   5.469   3.412  12.384  1.5689  1.3443  1.8077
18041TIP3   OH275613   0.840   4.720   1.317  0.3413  0.5199  0.3713
18041TIP3    H175614   0.764   4.762   1.357  0.1661 -1.3149  2.1096
18041TIP3    H275615   0.890   4.685   1.391  1.9142  0.0508 -0.8428
18042TIP3   OH275616   4.983   6.723  11.641 -0.0511 -0.1729  0.4207
18042TIP3    H175617   5.044   6.711  11.568 -0.7850 -0.7964 -0.1082
18042TIP3    H275618   5.007   6.808  11.679  0.9670 -0.2915  0.0646
18043TIP3   OH275619   1.644   5.870  13.910  0.2905  0.3092  0.1789
18043TIP3    H175620   1.727   5.823  13.908  0.5078  0.6965 -0.0079
18043TIP3    H275621   1.589   5.820  13.971  0.8148  0.3142  0.6601
18044TIP3   OH275622   6.056   3.775   1.709 -0.0133  0.3537  0.1286
18044TIP3    H175623   6.003   3.730   1.776  0.2497 -0.5420 -0.2530
18044TIP3    H275624   5.995   3.835   1.667 -0.3586  0.4139  0.7003
18045TIP3   OH275625   4.783   6.614  13.998 -0.2163  0.2878  0.4886
18045TIP3    H175626   4.778   6.522  13.975 -0.7685  0.4025  0.1402
18045TIP3    H275627   4.822   6.656  13.921 -0.2567  0.3900  0.5238
18046TIP3   OH275628   6.422   6.319   4.929 -0.2781 -0.6339 -0.2168
18046TIP3    H175629   6.327   6.309   4.938 -0.0565 -1.2092  2.2602
18046TIP3    H275630   6.433   6.408   4.895 -1.6927 -0.7285 -1.0058
18047TIP3   OH275631   2.314   4.579   0.587  0.0221  0.2937  0.0472
18047TIP3    H175632   2.289   4.662   0.626  1.4266  0.5925  0.3312
18047TIP3    H275633   2.331   4.521   0.661 -1.2099 -0.3567 -0.1457
18048TIP3   OH275634   5.893   6.288   5.281  0.9299  0.1175  0.4610
18048TIP3    H175635   5.900   6.367   5.334  2.0795 -0.1099  0.6760
18048TIP3    H275636   5.845   6.226   5.336  0.8851  0.3446  0.6790
18049TIP3   OH275637   4.525   4.925   3.105 -0.4270 -0.4307 -0.2249
18049TIP3    H175638   4.520   4.833   3.130  0.0442 -0.8030 -1.4382
18049TIP3    H275639   4.434   4.951   3.091 -0.6794 -0.3073  1.4311
18050TIP3   OH275640   4.854   4.671   4.803  0.2288 -0.2869 -0.2736
18050TIP3    H175641   4.810   4.744   4.847  1.9000 -0.3532  1.6205
18050TIP3    H275642   4.827   4.594   4.853  0.3223 -0.6830 -0.8275
18051TIP3   OH275643   2.108   1.158  16.830 -0.2253 -0.1426 -0.1488
18051TIP3    H175644   2.138   1.196  16.748 -1.6390 -2.0264 -1.6260
18051TIP3    H275645   2.081   1.069  16.807 -1.1084 -0.5780  2.2750
18052TIP3   OH275646   0.882   0.910  11.797 -0.4068  0.1295  0.2838
18052TIP3    H175647   0.817   0.953  11.853 -0.5987  0.0314  0.1403
18052TIP3    H275648   0.831   0.875  11.724 -0.4463 -1.3497  0.9761
18053TIP3   OH275649   4.034   0.936   4.439 -0.0636 -0.0261 -0.1072
18053TIP3    H175650   4.098   0.953   4.508 -0.9186  1.6370  0.3410
18053TIP3    H275651   3.949   0.939   4.484 -0.5452 -0.8162 -0.9221
18054TIP3   OH275652   0.600   5.781  14.391 -0.5302 -0.0646  0.2331
18054TIP3    H175653   0.641   5.716  14.449 -1.0710 -0.8108 -0.2041
18054TIP3    H275654   0.508   5.756  14.389 -0.6685  0.4678 -0.2907
18055TIP3   OH275655   4.920   0.151  11.080  0.4565 -0.5478  0.1282
18055TIP3    H175656   4.913   0.188  10.992 -0.6055  0.4599  0.6116
18055TIP3    H275657   4.937   0.058  11.066  0.8577 -0.3002 -1.1326
18056TIP3   OH275658   4.903   4.277   2.393 -0.2993 -0.5255 -0.2832
18056TIP3    H175659   4.827   4.323   2.357 -1.3267 -1.0776  1.0950
18056TIP3    H275660   4.966   4.347   2.410 -0.1156 -0.1487 -2.2389
18057TIP3   OH275661   3.040   2.407  15.819 -0.4362 -0.2312 -0.1884
18057TIP3    H175662   3.057   2.328  15.769  0.5620 -0.2479  0.1541
18057TIP3    H275663   2.993   2.465  15.759  0.3181 -0.4404 -0.9832
18058TIP3   OH275664   1.763   1.751   1.442 -0.2253  0.1263 -0.3942
18058TIP3    H175665   1.725   1.675   1.486  0.1612  0.0716 -0.1497
18058TIP3    H275666   1.689   1.795   1.402 -0.8486  1.1379  1.7476
18059TIP3   OH275667   6.807   2.823   1.322  0.3246  0.1807  0.1928
18059TIP3    H175668   6.871   2.801   1.254  0.2426  0.9387 -0.1444
18059TIP3    H275669   6.860   2.856   1.395  0.4297 -0.8580  0.6049
18060TIP3   OH275670   0.019   0.706  13.704 -0.3781 -0.4316 -0.1455
18060TIP3    H175671   0.093   0.653  13.675 -0.5905 -0.3061 -0.9265
18060TIP3    H275672  -0.012   0.663  13.783 -0.7628 -1.6826 -0.9573
18061TIP3   OH275673   1.861   5.047   0.952 -0.2303 -0.0935 -0.1195
18061TIP3    H175674   1.777   5.084   0.981  0.3661 -0.7178  2.6012
18061TIP3    H275675   1.865   4.960   0.992  1.6775 -0.1340 -0.2992
18062TIP3   OH275676   4.762   3.035   1.713 -0.2830  0.1408 -0.1866
18062TIP3    H175677   4.753   3.126   1.686  1.2022  0.1883 -0.5926
18062TIP3    H275678   4.855   3.015   1.702 -0.1472 -0.7545  2.0257
18063TIP3   OH275679   5.638   4.760  14.450 -0.0495  0.5951 -0.5754
18063TIP3    H175680   5.561   4.722  14.409 -0.6325  1.3564 -0.2203
18063TIP3    H275681   5.604   4.809  14.525  0.8368  0.4712 -0.0689
18064TIP3   OH275682   3.115   0.419  11.645  0.2164 -0.6171 -0.3307
18064TIP3    H175683   3.065   0.418  11.726  1.2451 -1.8616  0.3474
18064TIP3    H275684   3.171   0.497  11.651  0.2182 -0.6523  0.1226
18065TIP3   OH275685   3.669   2.020   1.151  0.9964  0.0593 -0.0477
18065TIP3    H175686   3.629   2.098   1.111 -2.3271 -0.2398  2.2892
18065TIP3    H275687   3.684   1.961   1.078 -1.0677  1.0421 -1.3670
18066TIP3   OH275688   0.329   2.373   3.243 -0.3828 -0.2733 -0.2082
18066TIP3    H175689   0.316   2.278   3.254  0.5821 -0.3269  0.5776
18066TIP3    H275690   0.424   2.384   3.245 -0.5144  0.9216  1.6209
18067TIP3   OH275691   3.307   6.271   2.382  0.1711 -0.5405  0.1060
18067TIP3    H175692   3.335   6.254   2.472  0.8033 -1.4089 -0.2464
18067TIP3    H275693   3.288   6.184   2.346  0.8573 -0.2896 -0.9007
18068TIP3   OH275694   2.159   6.570   5.242  0.1618 -0.2065  0.9457
18068TIP3    H175695   2.107   6.567   5.323  1.0314  1.2166  1.5830
18068TIP3    H275696   2.243   6.607   5.269  0.6272 -0.1427 -0.5386
18069TIP3   OH275697   1.268   2.360  14.136 -0.1955 -0.0099 -0.4182
18069TIP3    H175698   1.340   2.319  14.086 -1.1701 -0.4916 -1.4731
18069TIP3    H275699   1.300   2.449  14.154 -0.3202  0.6777 -3.1462
18070TIP3   OH275700   2.140   3.754   5.691  0.3945 -0.1920  0.4511
18070TIP3    H175701   2.141   3.734   5.597 -1.2197 -1.5958  0.6864
18070TIP3    H275702   2.213   3.703   5.727  2.3865  1.9910 -0.2665
18071TIP3   OH275703   0.491   6.234  13.452 -0.2956 -0.0593  0.4301
18071TIP3    H175704   0.510   6.316  13.498 -0.2526  0.2874 -0.1956
18071TIP3    H275705   0.575   6.208  13.414 -0.2432 -0.5527  0.8706
18072TIP3   OH275706   4.968   4.089   1.747 -0.0881  0.3011  0.1109
18072TIP3    H175707   5.057   4.079   1.781 -0.4764  0.1373  1.1032
18072TIP3    H275708   4.948   4.182   1.758 -0.5617  0.0761  1.2327
18073TIP3   OH275709   1.293   1.766  16.084 -0.3643  0.1068  0.0031
18073TIP3    H175710   1.213   1.803  16.123  0.0378 -0.2521  1.2149
18073TIP3    H275711   1.262   1.722  16.005 -0.8399  3.2054 -1.7107
18074TIP3   OH275712   0.814   6.499   4.165  0.1682  0.1397  0.2370
18074TIP3    H175713   0.902   6.538   4.164  0.5816 -0.7669  0.2954
18074TIP3    H275714   0.794   6.482   4.073 -0.4282  1.3697  0.1200
18075TIP3   OH275715   4.689   3.492  14.600 -0.5234  0.0686  0.3517
18075TIP3    H175716   4.648   3.439  14.532 -0.3805  0.0135  0.3079
18075TIP3    H275717   4.673   3.582  14.572 -0.5534  0.0470  0.2983
18076TIP3   OH275718   2.309   3.543   4.777  0.7361 -0.5038 -0.3776
18076TIP3    H175719   2.255   3.573   4.850  1.5329 -0.4404  0.1974
18076TIP3    H275720   2.256   3.561   4.700 -0.5416 -1.4830  0.2334
18077TIP3   OH275721   0.192   4.643   4.821  0.1139  0.0897  0.3709
18077TIP3    H175722   0.103   4.653   4.786  1.1787 -1.7600 -3.4636
18077TIP3    H275723   0.210   4.725   4.866 -2.7563  1.4110 -0.6589
18078TIP3   OH275724   0.691   0.460   5.827 -0.5213 -0.0856 -0.3084
18078TIP3    H175725   0.686   0.555   5.821 -0.7403 -0.0182  0.7530
18078TIP3    H275726   0.667   0.440   5.918  1.0921 -1.0433 -0.0482
18079TIP3   OH275727   3.724   1.108  10.758 -0.3278  0.1515 -0.1234
18079TIP3    H175728   3.653   1.150  10.709  0.1782  0.4518 -0.6241
18079TIP3    H275729   3.764   1.180  10.807 -1.8266 -0.4022  2.0401
18080TIP3   OH275730   6.513   3.668  17.097  0.4750 -0.1323  0.1408
18080TIP3    H175731   6.462   3.706  17.168 -0.8031  1.1764 -1.4142
18080TIP3    H275732   6.452   3.611  17.050  1.5603 -1.7595  0.6049
18081TIP3   OH275733   4.423   0.726   1.270  0.2601  0.0924 -0.6027
18081TIP3    H175734   4.483   0.676   1.326  1.2779  1.3424 -0.5317
18081TIP3    H275735   4.337   0.688   1.287  0.7837 -0.6219  0.5798
18082TIP3   OH275736   2.966   6.633  12.246  0.1124 -0.1567 -0.0792
18082TIP3    H175737   2.947   6.682  12.166  1.3430  1.8014  0.7541
18082TIP3    H275738   2.892   6.652  12.304 -0.3507 -0.8692 -0.4258
18083TIP3   OH275739   0.778   0.713  12.998  0.2855 -0.0493 -0.3698
18083TIP3    H175740   0.726   0.718  13.078 -2.1603 -0.5669 -1.8171
18083TIP3    H275741   0.718   0.743  12.929  1.2102 -2.5508 -2.4320
18084TIP3   OH275742   5.886   3.873  13.054 -0.3122 -0.0238  0.3903
18084TIP3    H175743   5.889   3.838  12.965 -0.2940 -0.1786  0.4520
18084TIP3    H275744   5.805   3.924  13.058  0.1443  0.7595 -0.0053
18085TIP3   OH275745   0.766   3.709  14.590 -0.3296 -0.0163 -0.1590
18085TIP3    H175746   0.688   3.764  14.588  0.1743  0.6984 -0.5529
18085TIP3    H275747   0.813   3.729  14.509  0.7230  0.2621  0.4856
18086TIP3   OH275748   3.784   0.207  12.350  0.2014 -0.3945 -0.3402
18086TIP3    H175749   3.841   0.179  12.278  1.4381 -0.3165  0.5748
18086TIP3    H275750   3.812   0.154  12.424 -1.4271 -0.8576 -0.0225
18087TIP3   OH275751   0.457   2.459  16.527 -0.3001 -0.2148 -0.1470
18087TIP3    H175752   0.553   2.466  16.519 -0.0573 -0.0638  2.2812
18087TIP3    H275753   0.431   2.410  16.449  1.6633  0.2878 -1.2097
18088TIP3   OH275754   4.270   0.253  12.429 -0.1015 -0.0184 -0.1157
18088TIP3    H175755   4.275   0.260  12.524  1.9321  0.5419 -0.2323
18088TIP3    H275756   4.344   0.304  12.397 -0.4427 -0.6289 -1.9932
18089TIP3   OH275757   6.075   1.376   2.728  0.2855 -0.3107  0.0261
18089TIP3    H175758   6.116   1.300   2.770 -0.1719 -0.2693  0.5499
18089TIP3    H275759   6.093   1.449   2.787 -2.9638 -0.7711  1.7929
18090TIP3   OH275760   4.879   5.816  16.318  0.0492 -0.3550 -0.0815
18090TIP3    H175761   4.924   5.828  16.234  0.0731 -0.4537 -0.0827
18090TIP3    H275762   4.789   5.795  16.294 -0.0330 -0.0104 -0.0750
18091TIP3   OH275763   5.539   5.360  10.461  0.0156  0.0860  0.3675
18091TIP3    H175764   5.546   5.278  10.412  3.3726 -0.0390  0.7940
18091TIP3    H275765   5.535   5.333  10.553  1.6844  0.3218  0.5464
18092TIP3   OH275766   0.532   4.062  13.561 -0.6429  0.1336 -0.1839
18092TIP3    H175767   0.606   4.002  13.559 -1.0801 -0.4074 -0.5195
18092TIP3    H275768   0.541   4.114  13.481  0.5202  1.4990  0.8044
18093TIP3   OH275769   4.923   3.534   4.153  0.5075 -0.3035 -0.0002
18093TIP3    H175770   5.003   3.523   4.101  1.2546 -0.4015  1.1317
18093TIP3    H275771   4.924   3.459   4.214 -0.5894 -0.4538 -0.1497
18094TIP3   OH275772   2.548   6.097  14.924 -0.0786  0.4174  0.0449
18094TIP3    H175773   2.554   6.017  14.976 -0.1980  0.3014 -0.1174
18094TIP3    H275774   2.639   6.119  14.904 -0.0903 -1.4888 -2.6499
18095TIP3   OH275775   0.271   0.213   5.444 -0.9825  0.9074 -0.2308
18095TIP3    H175776   0.247   0.126   5.478  1.7248  0.8523  1.8378
18095TIP3    H275777   0.248   0.273   5.514  1.1947  1.2605  0.2527
18096TIP3   OH275778   1.506   3.050  14.890  0.5346 -1.0676  0.1227
18096TIP3    H175779   1.460   3.113  14.834  1.7968 -0.0500  0.1988
18096TIP3    H275780   1.542   3.103  14.961 -0.0550 -2.1788  1.2926
18097TIP3   OH275781   1.155   1.272   3.466 -0.1494  0.1398  0.1317
18097TIP3    H175782   1.124   1.188   3.434  2.4169 -0.4400 -1.1010
18097TIP3    H275783   1.172   1.324   3.387 -0.5002  1.3694  0.8261
18098TIP3   OH275784   4.237   3.710   0.903 -0.0165 -0.3434  0.7914
18098TIP3    H175785   4.252   3.662   0.985 -1.9502  0.6381  1.7811
18098TIP3    H275786   4.142   3.712   0.893  0.1504 -1.6623 -2.2838
18099TIP3   OH275787   3.125   3.312  14.302  0.0016 -0.2006 -0.0868
18099TIP3    H175788   3.115   3.320  14.207  0.5263 -0.6403 -0.1812
18099TIP3    H275789   3.164   3.395  14.329 -0.5530  0.0984 -0.1942
18100TIP3   OH275790   5.745   6.215  13.247 -0.6817  0.8104  0.0553
18100TIP3    H175791   5.718   6.203  13.155 -0.9302 -0.5296  0.2771
18100TIP3    H275792   5.761   6.126  13.278  0.5237  1.3347  0.9925
18101TIP3   OH275793   0.906   1.830   3.481  0.2833  0.3834 -0.1489
18101TIP3    H175794   0.828   1.778   3.464  0.6039  0.2802 -1.3930
18101TIP3    H275795   0.906   1.843   3.576 -1.1330  0.2261 -0.1065
18102TIP3   OH275796   5.045   0.633  14.404 -0.4114  0.2453 -0.1007
18102TIP3    H175797   5.005   0.585  14.332 -0.4322 -1.4209  0.9779
18102TIP3    H275798   4.972   0.662  14.458 -0.3240  0.1969  0.0441
18103TIP3   OH275799   3.047   6.442   1.536 -0.0008  0.0452  0.0003
18103TIP3    H175800   2.974   6.408   1.485 -0.8462  0.4268  0.9279
18103TIP3    H275801   3.040   6.537   1.529  1.7632  0.1191 -1.7565
18104TIP3   OH275802   2.968   6.175   1.617 -0.2492 -0.2508 -0.1505
18104TIP3    H175803   3.012   6.250   1.576  0.2767  0.7273  2.0394
18104TIP3    H275804   3.004   6.099   1.572  1.6541  0.6561 -0.2844
18105TIP3   OH275805   6.488   6.220  17.072 -0.1341 -0.0949  0.1592
18105TIP3    H175806   6.578   6.208  17.042 -0.2853  1.9426 -1.3228
18105TIP3    H275807   6.436   6.160  17.019  0.3564 -1.5446  1.2738
18106TIP3   OH275808   4.966   3.941   4.822  0.0390  0.3657 -0.5602
18106TIP3    H175809   4.927   3.904   4.743  0.7980 -0.3267 -0.6218
18106TIP3    H275810   4.923   3.894   4.894 -1.0545  1.3844 -0.5191
18107TIP3   OH275811   4.424   6.419  12.760 -0.6178 -0.1937  0.3687
18107TIP3    H175812   4.510   6.456  12.779  0.5668 -1.9669 -1.1513
18107TIP3    H275813   4.430   6.391  12.668 -2.0314 -2.3882  0.8797
18108TIP3   OH275814   0.663   0.170  15.784  0.2345 -0.3108 -0.4175
18108TIP3    H175815   0.577   0.144  15.750  0.4841 -0.8902 -0.6013
18108TIP3    H275816   0.648   0.258  15.819 -0.0869  0.2296 -1.8350
18109TIP3   OH275817   1.996   0.371  14.868  0.2893 -0.4820  0.2672
18109TIP3    H175818   2.013   0.408  14.782  2.3938  0.0334  0.8486
18109TIP3    H275819   1.904   0.343  14.865  0.4273 -0.8392 -2.2456
18110TIP3   OH275820   5.616   4.946   4.478  0.5302 -0.2918  0.1425
18110TIP3    H175821   5.700   4.922   4.440  0.1690 -0.2734 -0.6824
18110TIP3    H275822   5.607   5.039   4.460  0.9615  0.0300  1.4749
18111TIP3   OH275823   5.848   3.241   3.418 -0.1364 -0.6549  0.1885
18111TIP3    H175824   5.937   3.239   3.451 -1.0063 -0.8155  2.7818
18111TIP3    H275825   5.836   3.330   3.384  1.4644 -1.1347 -1.8118
18112TIP3   OH275826   1.908   4.387   1.512  0.5857  0.4592 -0.4757
18112TIP3    H175827   1.871   4.316   1.460  1.0434 -0.0553 -0.1110
18112TIP3    H275828   1.989   4.350   1.548 -0.3740  0.3411  1.7150
18113TIP3   OH275829   6.699   6.028  16.412  0.4010  0.4083  0.0286
18113TIP3    H175830   6.671   6.117  16.434  0.7675  0.3073  0.9399
18113TIP3    H275831   6.727   6.034  16.321 -2.4587  0.5353 -0.9596
18114TIP3   OH275832   1.362   5.466   5.729  0.6990  0.7604 -0.1346
18114TIP3    H175833   1.393   5.501   5.813 -0.9258  1.3528  0.2628
18114TIP3    H275834   1.293   5.526   5.703  1.4333  0.8115 -2.1306
18115TIP3   OH275835   2.653   2.655  13.278  0.0190  0.0558 -0.4380
18115TIP3    H175836   2.636   2.749  13.286  0.0064 -0.0952  2.2690
18115TIP3    H275837   2.585   2.623  13.220  1.1144  1.9485 -2.9558
18116TIP3   OH275838   6.014   5.471   3.821  0.2017 -0.1521 -0.0674
18116TIP3    H175839   6.043   5.493   3.909 -0.5252 -0.5561  0.2880
18116TIP3    H275840   6.045   5.381   3.808  1.5467  0.3778 -0.7938
18117TIP3   OH275841   6.537   4.695   5.195  0.1769  0.2727  0.1096
18117TIP3    H175842   6.488   4.726   5.119 -0.3546  1.0467  0.7615
18117TIP3    H275843   6.543   4.600   5.182 -0.8074  0.2638 -0.3811
18118TIP3   OH275844   0.099   2.534  12.633  0.4055 -0.0833  0.3037
18118TIP3    H175845   0.075   2.491  12.551 -0.7154  1.2876 -0.1294
18118TIP3    H275846   0.180   2.581  12.611  0.3501 -0.0766  0.1050
18119TIP3   OH275847   1.049   1.193   6.465  0.2647  0.2283 -0.3298
18119TIP3    H175848   1.111   1.124   6.488  1.2541  1.0477 -0.4647
18119TIP3    H275849   0.997   1.206   6.544  0.8584  0.1422  0.0800
18120TIP3   OH275850   0.964   5.692  15.837  0.2611 -0.2169 -0.4844
18120TIP3    H175851   0.961   5.778  15.879 -0.7935  0.3505 -1.6458
18120TIP3    H275852   1.049   5.656  15.861 -0.4959 -0.2098  2.6246
18121TIP3   OH275853   1.199   3.959  13.738 -0.3357 -0.3671  0.2938
18121TIP3    H175854   1.212   4.050  13.712 -1.0958  0.1275  1.5229
18121TIP3    H275855   1.263   3.909  13.688  0.9897  1.0049  0.5687
18122TIP3   OH275856   2.512   0.342   2.346  0.1856  0.1172  0.0914
18122TIP3    H175857   2.600   0.362   2.378 -0.4592  1.1731  1.3007
18122TIP3    H275858   2.453   0.390   2.405 -1.1793  0.0405 -1.1457
18123TIP3   OH275859   3.295   5.023   3.257 -0.3379  0.8835  0.0701
18123TIP3    H175860   3.273   5.107   3.297 -1.0732  0.1700  1.2217
18123TIP3    H275861   3.251   5.025   3.172  0.9313  2.2674 -0.6083
18124TIP3   OH275862   1.603   5.855  10.647  0.1791 -0.0598 -0.2730
18124TIP3    H175863   1.675   5.806  10.688 -0.1457 -1.6191 -1.4368
18124TIP3    H275864   1.524   5.816  10.683 -0.0853  0.2693 -0.4953
18125TIP3   OH275865   4.686   0.193   2.453 -0.2559 -0.3915  0.7081
18125TIP3    H175866   4.777   0.216   2.435 -0.1813 -0.9793  0.2979
18125TIP3    H275867   4.642   0.195   2.368  0.0372 -2.9153  0.4073
18126TIP3   OH275868   2.102   6.724  14.101  0.0323  0.6082  0.4371
18126TIP3    H175869   2.185   6.753  14.063 -0.2060  0.1690 -0.4468
18126TIP3    H275870   2.126   6.660  14.167  0.3409 -0.7739 -0.9639
18127TIP3   OH275871   0.695   1.036   5.161  0.5948 -0.0364  0.1322
18127TIP3    H175872   0.634   1.106   5.138  0.6332 -0.2847 -0.7583
18127TIP3    H275873   0.780   1.078   5.164  0.7136 -0.1454 -1.0510
18128TIP3   OH275874   2.006   1.571   5.404 -0.0565 -0.4379  0.1860
18128TIP3    H175875   2.002   1.480   5.375 -1.7200 -0.5795  0.7846
18128TIP3    H275876   1.915   1.595   5.421  0.3503  1.3416  0.0526
18129TIP3   OH275877   2.889   6.360   4.868 -0.8426 -0.4607 -0.2851
18129TIP3    H175878   2.906   6.454   4.869 -1.1642 -0.3994 -0.3150
18129TIP3    H275879   2.975   6.320   4.864 -0.6259 -0.1906  1.1661
18130TIP3   OH275880   4.097   5.489   3.576 -0.0932 -0.1954  0.0819
18130TIP3    H175881   4.131   5.426   3.513  0.6645 -0.2555  0.5359
18130TIP3    H275882   4.057   5.557   3.523  0.3618 -0.3405 -0.4584
18131TIP3   OH275883   3.612   4.469  16.634  0.0863 -0.1705 -0.3824
18131TIP3    H175884   3.668   4.497  16.706  2.0429 -1.6202 -1.2507
18131TIP3    H275885   3.532   4.438  16.676  1.1216 -0.8416  1.1752
18132TIP3   OH275886   4.831   0.631   4.971 -0.1353  0.2323 -0.1769
18132TIP3    H175887   4.844   0.725   4.958 -1.9843  0.7222  1.1752
18132TIP3    H275888   4.847   0.618   5.065 -2.0179 -0.3655  0.0916
18133TIP3   OH275889   2.093   1.342  11.555  0.2127  0.1371  0.6074
18133TIP3    H175890   2.076   1.250  11.533 -2.8595  1.1895 -2.4436
18133TIP3    H275891   2.030   1.362  11.625  0.1492  0.1340  0.5517
18134TIP3   OH275892   3.518   1.142   1.270 -0.3381 -0.2576  0.3073
18134TIP3    H175893   3.513   1.226   1.316 -0.1322  0.4184 -0.8680
18134TIP3    H275894   3.612   1.125   1.262 -0.2774  0.7494 -1.7691
18135TIP3   OH275895   5.450   5.652   0.776  0.2942  0.3184 -0.6592
18135TIP3    H175896   5.516   5.715   0.749  0.4691  0.6020  0.3871
18135TIP3    H275897   5.490   5.604   0.849 -0.5432  0.3330 -0.1701
18136TIP3   OH275898   4.415   2.956   5.076  0.2570  0.1765  0.0367
18136TIP3    H175899   4.358   3.029   5.050 -0.1846  0.1133  0.7785
18136TIP3    H275900   4.367   2.914   5.147  0.9669 -0.2435  0.2696
18137TIP3   OH275901   6.339   1.607  15.875 -0.1404 -0.5221  0.6440
18137TIP3    H175902   6.276   1.580  15.942  0.7474  1.5015  2.4214
18137TIP3    H275903   6.424   1.584  15.912  0.3596  0.4359  0.1216
18138TIP3   OH275904   4.229   2.013   2.503 -0.4525  0.1521 -0.8902
18138TIP3    H175905   4.201   2.104   2.488  1.2018  0.9584  0.6106
18138TIP3    H275906   4.316   2.008   2.464 -0.3628 -0.6852 -0.5935
18139TIP3   OH275907   6.516   4.676  12.708  0.4190 -0.0976 -0.2204
18139TIP3    H175908   6.491   4.589  12.738 -1.3016  0.5370  0.2742
18139TIP3    H275909   6.464   4.736  12.761  2.0888  1.2889 -0.0491
18140TIP3   OH275910   5.570   2.676  16.045 -0.2062  0.1479 -0.0120
18140TIP3    H175911   5.655   2.663  16.004  0.8537 -0.2426  2.1447
18140TIP3    H275912   5.573   2.765  16.079 -1.1937  0.5908 -1.0503
18141TIP3   OH275913   1.530   0.096  15.142 -0.6082  0.0425 -0.0614
18141TIP3    H175914   1.544   0.181  15.183 -0.6748 -0.1654  0.4002
18141TIP3    H275915   1.468   0.113  15.071  0.1222  0.5449 -0.5971
18142TIP3   OH275916   6.817   5.876   2.501 -0.5585 -0.3270 -0.0700
18142TIP3    H175917   6.800   5.904   2.591  1.1913 -1.1570  0.5569
18142TIP3    H275918   6.900   5.919   2.478  0.1943 -1.9076 -0.4381
18143TIP3   OH275919   3.263   5.671  11.787  0.0356 -0.8719  0.5829
18143TIP3    H175920   3.309   5.686  11.704 -1.0175  0.7008  0.2353
18143TIP3    H275921   3.182   5.626  11.761 -0.0040 -0.9495  0.8374
18144TIP3   OH275922   2.797   0.152  17.154 -0.6418 -0.4585  0.3930
18144TIP3    H175923   2.820   0.130  17.063 -0.0501  1.1297  0.1250
18144TIP3    H275924   2.705   0.128  17.161 -1.8846  2.8210 -1.8920
18145TIP3   OH275925   4.781   4.718   5.517 -0.4772 -0.1746  0.1462
18145TIP3    H175926   4.754   4.687   5.431  0.9064 -1.8151  0.2334
18145TIP3    H275927   4.789   4.638   5.570  0.2822  0.6258  1.2973
18146TIP3   OH275928   0.308   0.891  13.087 -0.8564 -0.0734  0.3177
18146TIP3    H175929   0.222   0.925  13.112 -1.9381 -0.9383 -1.9444
18146TIP3    H275930   0.322   0.923  12.998  1.2975  0.2048  0.7033
18147TIP3   OH275931   1.502   0.306  14.158 -0.1562 -0.0314  0.2720
18147TIP3    H175932   1.544   0.250  14.092 -0.6635  0.6327 -0.6256
18147TIP3    H275933   1.506   0.254  14.239  1.7847 -0.2734  0.0762
18148TIP3   OH275934   4.059   2.196  10.763  0.0885  0.6006 -0.4231
18148TIP3    H175935   4.122   2.248  10.713  0.0599 -0.4851 -1.6378
18148TIP3    H275936   3.984   2.255  10.774  0.2485  0.9951 -1.3280
18149TIP3   OH275937   1.687   2.382  10.488  0.3368 -0.3755 -0.1195
18149TIP3    H175938   1.742   2.410  10.414 -0.3390  0.5469 -0.2880
18149TIP3    H275939   1.727   2.300  10.518  1.7674  0.2489 -0.2689
18150TIP3   OH275940   5.729   3.397  16.054 -0.2340  0.3105  0.2618
18150TIP3    H175941   5.681   3.330  16.103  2.7200 -2.3246 -0.1546
18150TIP3    H275942   5.742   3.468  16.117  0.5237 -1.5387  2.3244
18151TIP3   OH275943   0.911   3.673  10.263  0.3888 -0.4388 -0.3424
18151TIP3    H175944   0.893   3.581  10.284  1.0327 -0.9111 -1.7378
18151TIP3    H275945   0.825   3.715  10.265 -0.0370 -1.2819 -0.6409
18152TIP3   OH275946   1.885   4.304   4.181 -0.1052 -0.0126 -0.0666
18152TIP3    H175947   1.880   4.221   4.134 -0.4483 -0.9061  1.4868
18152TIP3    H275948   1.795   4.322   4.208  0.1607  0.1951  0.7098
18153TIP3   OH275949   1.391   5.733  10.767 -0.1652  0.1046  0.2245
18153TIP3    H175950   1.422   5.683  10.843  0.0770 -1.2191 -0.7077
18153TIP3    H275951   1.318   5.681  10.732  0.0464  0.4280 -0.7272
18154TIP3   OH275952   0.747   1.057  11.566 -0.2414 -0.7060  0.5737
18154TIP3    H175953   0.722   0.964  11.560  1.0329 -1.0598  0.2197
18154TIP3    H275954   0.814   1.067  11.498 -0.2687  0.4455  0.7075
18155TIP3   OH275955   6.041   5.992   0.030  0.4609  0.2473 -0.0419
18155TIP3    H175956   5.999   6.078   0.030 -2.1924 -0.9463 -0.0692
18155TIP3    H275957   6.134   6.011   0.041  0.0984  3.1465 -1.1020
18156TIP3   OH275958   2.712   4.081   1.688 -0.3092  0.0819  0.1152
18156TIP3    H175959   2.637   4.095   1.746 -0.2178 -2.6943  1.0383
18156TIP3    H275960   2.783   4.053   1.746  0.3414 -0.9218 -1.1129
18157TIP3   OH275961   4.201   1.003  11.017  0.1569 -0.0476  0.1632
18157TIP3    H175962   4.193   0.923  10.965 -1.4846  0.7954 -0.9670
18157TIP3    H275963   4.286   1.039  10.992 -0.1456 -0.2115 -1.1893
18158TIP3   OH275964   3.423   1.030   0.714 -0.0644 -0.4834 -0.1119
18158TIP3    H175965   3.490   1.097   0.734 -0.0009 -0.6279  0.1651
18158TIP3    H275966   3.469   0.947   0.723 -0.9331 -0.7535  2.9235
18159TIP3   OH275967   2.662   4.716   0.507 -0.1937  0.3942  0.1853
18159TIP3    H175968   2.627   4.661   0.577 -1.0985  0.5144 -0.1532
18159TIP3    H275969   2.632   4.804   0.529  2.5156  1.0926  1.5548
18160TIP3   OH275970   1.163   3.954  15.566  0.1160 -0.2436  0.0001
18160TIP3    H175971   1.113   4.032  15.544 -0.6096 -0.3739  1.0857
18160TIP3    H275972   1.106   3.906  15.627 -0.4652 -2.7430 -2.3443
18161TIP3   OH275973   1.809   5.190   4.262  0.5233  0.4348  0.0451
18161TIP3    H175974   1.808   5.206   4.167 -0.1751  0.3566  0.0337
18161TIP3    H275975   1.752   5.114   4.274  0.5908  0.4588  0.5341
18162TIP3   OH275976   3.348   4.872  15.380 -0.0980 -0.3422  0.3717
18162TIP3    H175977   3.425   4.882  15.436 -0.8264  0.2756  1.2909
18162TIP3    H275978   3.377   4.812  15.311  0.8482 -1.0893  1.3654
18163TIP3   OH275979   3.489   3.686  14.031  0.6026 -0.0921  0.6774
18163TIP3    H175980   3.518   3.658  13.944  1.4079 -1.7062  1.4284
18163TIP3    H275981   3.487   3.782  14.026 -0.2874 -0.1619 -1.3920
18164TIP3   OH275982   6.791   3.565  15.119  0.6031  0.0617 -0.8557
18164TIP3    H175983   6.762   3.656  15.122  0.3690 -0.0410  0.1973
18164TIP3    H275984   6.886   3.569  15.123  0.5639  0.2339  0.0288
18165TIP3   OH275985   0.171   0.043  15.110 -1.0308 -0.0863  0.2326
18165TIP3    H175986   0.077   0.036  15.130 -0.7993 -0.4973  1.2350
18165TIP3    H275987   0.193   0.134  15.132 -1.2513  0.0860 -0.2570
18166TIP3   OH275988   5.872   3.799  12.797 -0.2269  0.3172  0.0798
18166TIP3    H175989   5.939   3.738  12.766 -1.4370 -0.7654 -0.5035
18166TIP3    H275990   5.789   3.763  12.764 -1.2597  0.8683  1.9019
18167TIP3   OH275991   4.165   5.122   1.589 -0.4987  1.1802  0.7967
18167TIP3    H175992   4.227   5.190   1.562 -0.5317  1.1955  0.7584
18167TIP3    H275993   4.197   5.092   1.674  2.6972 -2.5364 -1.3975
18168TIP3   OH275994   6.259   4.419  14.106 -0.3107  0.2096 -0.0728
18168TIP3    H175995   6.226   4.481  14.171  0.2370  2.0311 -1.4640
18168TIP3    H275996   6.289   4.473  14.034  2.4397 -1.5430 -0.3862
18169TIP3   OH275997   1.932   6.087   3.149  0.4275 -0.2444 -0.1947
18169TIP3    H175998   1.850   6.120   3.113  0.4886  0.5403  0.3661
18169TIP3    H275999   1.910   6.058   3.238  1.1116  1.7967  0.7093
18170TIP3   OH276000   5.005   2.479   2.374  0.3139  0.4099  0.1707
18170TIP3    H176001   4.940   2.487   2.305 -0.0819 -0.7115  0.4011
18170TIP3    H276002   5.085   2.451   2.328 -0.4981 -2.5075  0.3649
18171TIP3   OH276003   0.585   4.936   5.804 -0.1941  0.0708 -0.2860
18171TIP3    H176004   0.495   4.968   5.805 -0.6597 -1.2048 -0.1850
18171TIP3    H276005   0.579   4.845   5.831  0.9438 -0.4927 -1.7730
18172TIP3   OH276006   3.858   4.828  16.186 -0.3204  0.1657  0.4509
18172TIP3    H176007   3.919   4.755  16.196  2.0380  1.6940 -1.4833
18172TIP3    H276008   3.786   4.792  16.135  0.6005 -0.9326 -0.1224
18173TIP3   OH276009   2.466   2.185   6.679  0.3907 -0.1745  0.1191
18173TIP3    H176010   2.463   2.262   6.622  2.4376 -0.7470 -0.8713
18173TIP3    H276011   2.551   2.145   6.660 -1.0823 -3.4113 -0.3737
18174TIP3   OH276012   2.317   5.062  14.126 -0.1896 -0.0492  0.1997
18174TIP3    H176013   2.306   4.972  14.095  0.4347  0.3436 -1.2318
18174TIP3    H276014   2.289   5.117  14.053  2.3225  0.9175 -0.1492
18175TIP3   OH276015   4.753   4.960  16.299 -0.2739  0.4492  0.3855
18175TIP3    H176016   4.673   4.928  16.339  0.2259 -0.5656  0.6137
18175TIP3    H276017   4.811   4.980  16.373  0.3777 -0.7141  0.2263
18176TIP3   OH276018   5.741   5.878  14.120 -0.1496 -0.2098 -0.0431
18176TIP3    H176019   5.815   5.930  14.151 -1.4477  0.7039  1.7499
18176TIP3    H276020   5.733   5.900  14.027  3.8877 -3.0293 -1.3243
18177TIP3   OH276021   0.087   1.958   2.617  0.8038 -0.4185 -0.6163
18177TIP3    H176022   0.167   1.966   2.670  0.6364  0.1558 -0.4481
18177TIP3    H276023   0.063   1.866   2.625  1.8089 -0.7559 -1.1935
18178TIP3   OH276024   0.337   1.658  15.877 -0.5555  0.0954 -0.0233
18178TIP3    H176025   0.307   1.718  15.810 -0.8147  0.6036  0.5457
18178TIP3    H276026   0.346   1.711  15.956 -2.1112 -0.8632  0.8499
18179TIP3   OH276027   0.161   0.609  12.072  0.5904 -0.3107 -0.3190
18179TIP3    H176028   0.067   0.611  12.092  0.5399  1.2313 -0.6222
18179TIP3    H276029   0.165   0.587  11.979  0.5059  0.1033 -0.4214
18180TIP3   OH276030   3.589   4.951   1.459  0.3171 -0.3918  0.0754
18180TIP3    H176031   3.566   4.864   1.429 -2.5390  0.6629 -1.1964
18180TIP3    H276032   3.564   4.951   1.552  1.3944 -1.1968  0.3906
18181TIP3   OH276033   2.568   3.855  10.333  0.3940 -0.3385  0.4196
18181TIP3    H176034   2.522   3.913  10.393  1.1881 -0.1915  0.8935
18181TIP3    H276035   2.584   3.775  10.383  0.3420 -0.5244  0.1427
18182TIP3   OH276036   1.113   2.102  12.286  0.2018  0.6190  0.1761
18182TIP3    H176037   1.203   2.111  12.254  0.1696  0.4122  0.0243
18182TIP3    H276038   1.067   2.058  12.214  0.1575  0.0256  0.5633
18183TIP3   OH276039   3.602   1.539  11.860  0.7092  0.4731 -0.2390
18183TIP3    H176040   3.643   1.506  11.780  1.6787  2.8919 -0.8135
18183TIP3    H276041   3.663   1.604  11.894 -0.0987  0.1430  2.0215
18184TIP3   OH276042   0.324   0.629  14.724 -0.0124  0.2161  0.2885
18184TIP3    H176043   0.340   0.678  14.643 -1.0899  0.1816  0.0278
18184TIP3    H276044   0.383   0.668  14.788  2.3328 -1.0935 -0.9650
18185TIP3   OH276045   6.121   6.371  14.890 -0.3657 -0.1017 -0.1383
18185TIP3    H176046   6.099   6.286  14.853  0.6909 -0.1554 -0.6909
18185TIP3    H276047   6.187   6.352  14.957 -0.2262  0.2617 -0.1692
18186TIP3   OH276048   1.560   6.085  16.099 -0.0477  0.4091  0.1459
18186TIP3    H176049   1.531   6.084  16.007  0.6222  1.2704 -0.0881
18186TIP3    H276050   1.622   6.158  16.104  0.8047 -0.3434  1.0208
18187TIP3   OH276051   5.088   0.276   5.251  0.6121 -0.1416  0.4254
18187TIP3    H176052   5.106   0.254   5.160  2.2600  1.0577  0.4140
18187TIP3    H276053   5.086   0.372   5.252 -0.1925 -0.1559  1.5178
18188TIP3   OH276054   2.822   4.902   4.528 -0.1208 -0.9161 -0.3931
18188TIP3    H176055   2.748   4.930   4.474  0.7531  0.4439 -0.9110
18188TIP3    H276056   2.897   4.901   4.469  0.6624 -0.3872  0.5643
18189TIP3   OH276057   3.806   1.926   4.589  1.0555  0.0943  0.1979
18189TIP3    H176058   3.901   1.933   4.593  1.0306  1.2842 -0.6356
18189TIP3    H276059   3.783   1.961   4.502 -0.2307  1.1615  0.9186
18190TIP3   OH276060   3.965   4.647  12.778 -0.0010 -0.0063  0.4161
18190TIP3    H176061   3.905   4.695  12.721  0.7977 -0.8376 -1.2182
18190TIP3    H276062   3.935   4.665  12.867 -0.3100  2.7250 -0.1503
18191TIP3   OH276063   4.233   1.936  16.997  0.3017 -0.0610 -0.5120
18191TIP3    H176064   4.200   2.020  16.965  2.8181  0.9959 -0.6155
18191TIP3    H276065   4.278   1.898  16.922  1.0235 -0.4538  0.0997
18192TIP3   OH276066   4.625   6.158   6.270  0.1109  0.1060  0.6080
18192TIP3    H176067   4.603   6.239   6.223  0.0614  0.1658  0.7315
18192TIP3    H276068   4.540   6.118   6.289  0.1658 -0.3469 -0.0919
18193TIP3   OH276069   3.810   1.910  13.370  0.0481 -0.4979  0.2407
18193TIP3    H176070   3.769   1.877  13.449 -0.8874  0.8973  0.3514
18193TIP3    H276071   3.899   1.933  13.397  0.2387 -1.4691  0.4987
18194TIP3   OH276072   1.264   6.152   4.775 -0.2642  0.2204 -0.2812
18194TIP3    H176073   1.285   6.175   4.865 -0.2364 -1.1003  0.0717
18194TIP3    H276074   1.173   6.122   4.778 -0.7405  1.4926 -0.9695
18195TIP3   OH276075   4.810   4.696   3.626  0.2645  0.5377  0.2877
18195TIP3    H176076   4.786   4.732   3.540  0.0318 -1.6650 -0.6234
18195TIP3    H276077   4.805   4.771   3.685 -3.6534  1.3469 -0.8209
18196TIP3   OH276078   4.500   1.996   1.787  0.2799 -0.5246 -0.0754
18196TIP3    H176079   4.422   2.052   1.794  0.4910 -0.3709  1.2002
18196TIP3    H276080   4.464   1.909   1.767 -0.0848 -0.0799 -1.4564
18197TIP3   OH276081   1.467   3.807  12.997 -0.3613  0.0337  0.6906
18197TIP3    H176082   1.383   3.759  13.003 -0.6934  0.6734  1.4402
18197TIP3    H276083   1.529   3.750  13.043  0.1908 -1.5656 -1.8695
18198TIP3   OH276084   0.860   1.996  10.811 -0.0909 -0.2356  0.3084
18198TIP3    H176085   0.900   2.081  10.829 -1.4685  0.3856  0.5477
18198TIP3    H276086   0.917   1.956  10.745  0.5469  0.8972  0.1502
18199TIP3   OH276087   0.777   0.599   0.155 -0.1205 -0.0547 -0.1787
18199TIP3    H176088   0.724   0.661   0.205 -0.5183 -2.2355  2.3148
18199TIP3    H276089   0.729   0.516   0.159  2.1628 -1.4735 -0.1320
18200TIP3   OH276090   4.598   1.543   2.307  0.6683 -0.2474 -0.4670
18200TIP3    H176091   4.622   1.451   2.295  0.0142 -0.1474 -3.0118
18200TIP3    H276092   4.629   1.587   2.228  0.9084  1.7460  0.6556
18201TIP3   OH276093   4.490   2.096  15.128 -1.0194 -0.4540 -0.3761
18201TIP3    H176094   4.571   2.046  15.120 -0.1933  0.9826 -1.3616
18201TIP3    H276095   4.517   2.180  15.165 -2.0891 -0.0150 -0.5458
18202TIP3   OH276096   6.529   4.614  14.863  0.0690  0.3773 -0.2062
18202TIP3    H176097   6.542   4.691  14.919  1.2086 -1.2672  1.9589
18202TIP3    H276098   6.602   4.618  14.801  1.6146 -0.1515  1.4627
18203TIP3   OH276099   2.755   1.731   5.214 -0.0237  0.1218 -0.9941
18203TIP3    H176100   2.835   1.705   5.258 -0.2742  2.1546  0.7670
18203TIP3    H276101   2.728   1.812   5.256 -2.3807  0.1449 -2.3362
18204TIP3   OH276102   4.334   2.928  15.434  0.0951 -0.3277 -0.4023
18204TIP3    H176103   4.292   2.968  15.511  0.5461  0.3329 -0.4924
18204TIP3    H276104   4.335   2.998  15.368  3.4422  0.5254  0.3429
18205TIP3   OH276105   0.374   5.946   1.450 -0.1294 -0.1136  0.3813
18205TIP3    H176106   0.447   6.006   1.465 -0.3868  0.7627 -1.5848
18205TIP3    H276107   0.338   5.930   1.537  1.7797  0.2232  1.2699
18206TIP3   OH276108   0.352   1.937   4.639 -0.1066  0.5181  0.7891
18206TIP3    H176109   0.266   1.901   4.661 -0.1912  0.3071  0.1365
18206TIP3    H276110   0.400   1.863   4.603  0.0534  0.8230  0.3559
18207TIP3   OH276111   0.389   3.556  16.151  0.1948 -0.1707 -0.2626
18207TIP3    H176112   0.299   3.533  16.171 -0.6991  1.5541 -1.9369
18207TIP3    H276113   0.435   3.554  16.235 -2.0211  1.4592  1.0769
18208TIP3   OH276114   1.632   1.906   4.933 -0.1672 -0.0959  0.1168
18208TIP3    H176115   1.633   1.999   4.913 -0.6945 -0.3875 -1.3753
18208TIP3    H276116   1.712   1.871   4.894  0.6165 -0.1036  1.6616
18209TIP3   OH276117   4.917   1.210   5.007 -0.6340 -0.0779 -0.4182
18209TIP3    H176118   4.898   1.203   5.100  0.7983  0.7902 -0.0378
18209TIP3    H276119   4.910   1.303   4.987  1.0567  0.0122 -0.7063
18210TIP3   OH276120   5.259   0.945  14.378 -0.1019  0.1276  0.6846
18210TIP3    H176121   5.231   0.988  14.459  0.6772 -0.0179  1.0464
18210TIP3    H276122   5.284   0.856  14.405  1.3087  0.4463  0.5198
18211TIP3   OH276123   6.265   4.146  11.757 -0.2113  0.2770  0.3606
18211TIP3    H176124   6.296   4.236  11.767 -0.4171  0.1294  2.7082
18211TIP3    H276125   6.329   4.105  11.699  0.8281  1.4879  0.6170
18212TIP3   OH276126   3.817   4.530  12.350  0.1453  0.3869 -0.6975
18212TIP3    H176127   3.876   4.602  12.373  0.6606 -0.5914  1.2467
18212TIP3    H276128   3.874   4.456  12.332 -0.4229  0.1024 -1.3719
18213TIP3   OH276129   4.564   1.431   0.047  0.7152  0.4598  0.1285
18213TIP3    H176130   4.548   1.507   0.103  0.9340  0.9903 -0.5152
18213TIP3    H276131   4.521   1.453  -0.036 -0.4458 -0.7331  0.3860
18214TIP3   OH276132   0.025   6.353   1.762  0.1689 -0.1483 -0.3778
18214TIP3    H176133  -0.003   6.444   1.749 -1.4726 -0.3032  1.5689
18214TIP3    H276134  -0.032   6.301   1.706 -2.9808 -0.3582  2.6880
18215TIP3   OH276135   6.650   6.504  12.352 -0.4340 -0.0989 -0.0072
18215TIP3    H176136   6.713   6.555  12.300  0.0505 -1.0081 -0.3304
18215TIP3    H276137   6.588   6.470  12.288  0.2368 -1.3295 -0.0423
18216TIP3   OH276138   0.792   2.923  16.161 -0.0583 -0.1057 -0.3078
18216TIP3    H176139   0.793   2.859  16.091  0.3643 -0.3107 -0.1187
18216TIP3    H276140   0.728   2.889  16.224  0.7227 -0.7381  0.1539
18217TIP3   OH276141   2.265   5.431  16.966 -0.1536 -0.0387  0.5010
18217TIP3    H176142   2.215   5.506  16.996  0.8501  1.0715 -0.4935
18217TIP3    H276143   2.293   5.455  16.877 -1.0115 -2.1839 -0.4257
18218TIP3   OH276144   2.263   4.231  15.926 -0.2381  0.0671  0.3978
18218TIP3    H176145   2.220   4.156  15.885 -2.4367  0.9369  0.9579
18218TIP3    H276146   2.195   4.271  15.981  1.5494  1.0755  2.0051
18219TIP3   OH276147   5.300   1.488   1.223 -0.3590 -0.5761  0.6140
18219TIP3    H176148   5.294   1.393   1.224  0.0164 -0.6927 -1.6362
18219TIP3    H276149   5.236   1.517   1.288  0.3576 -2.3521  2.1954
18220TIP3   OH276150   2.457   5.526   3.602  0.2406 -0.4367  0.3656
18220TIP3    H176151   2.513   5.602   3.587  0.3786 -0.9322 -1.9775
18220TIP3    H276152   2.517   5.460   3.638  0.1557  0.4478  2.2335
18221TIP3   OH276153   2.614   4.460  12.039  0.4776 -0.3571  0.2891
18221TIP3    H176154   2.625   4.408  12.119  2.1814 -0.0701  0.2935
18221TIP3    H276155   2.573   4.400  11.976 -1.2614 -0.4680  1.4694
18222TIP3   OH276156   5.303   2.983   1.976  0.2144  0.2965  0.1672
18222TIP3    H176157   5.238   2.916   1.999 -1.1055  1.3731 -0.2761
18222TIP3    H276158   5.358   2.990   2.054 -1.2754  0.5554  1.2384
18223TIP3   OH276159   3.585   0.479   5.247  0.5251  0.0256  0.4689
18223TIP3    H176160   3.662   0.516   5.291 -0.1950 -0.7728  2.5261
18223TIP3    H276161   3.608   0.387   5.231 -0.0670 -0.2963  1.3643
18224TIP3   OH276162   5.931   4.935   1.583  0.4282  0.1488 -0.1197
18224TIP3    H176163   5.978   4.936   1.500  1.6846 -2.8562  0.4368
18224TIP3    H276164   6.000   4.944   1.649 -0.1649 -0.7709  0.6412
18225TIP3   OH276165   0.642   4.225   0.856  0.3036 -0.2625 -0.1358
18225TIP3    H176166   0.579   4.156   0.878  0.7529 -0.6743 -0.1322
18225TIP3    H276167   0.596   4.307   0.877 -0.1613 -0.5655  0.0423
18226TIP3   OH276168   3.901   5.566  10.879  0.3895 -0.4275 -0.0708
18226TIP3    H176169   3.850   5.647  10.889 -1.4520 -1.0933 -2.7884
18226TIP3    H276170   3.988   5.596  10.852 -0.1720  0.6971 -0.7341
18227TIP3   OH276171   3.910   1.305  10.905 -0.1766 -0.1395  0.3402
18227TIP3    H176172   3.916   1.218  10.946  1.9311  1.5075  4.0445
18227TIP3    H276173   3.843   1.351  10.956 -0.1805  0.9026 -0.5675
18228TIP3   OH276174   3.725   1.840   3.867  0.4631  1.1681 -0.3446
18228TIP3    H176175   3.817   1.813   3.867  0.9235  2.5148 -2.2858
18228TIP3    H276176   3.690   1.807   3.950  2.7257  0.7473  0.5105
18229TIP3   OH276177   5.212   0.659   4.494  0.4839 -0.1100  0.6169
18229TIP3    H176178   5.177   0.583   4.446  0.6987 -0.2841  0.7331
18229TIP3    H276179   5.150   0.729   4.475 -0.2916 -0.5805  1.3357
18230TIP3   OH276180   5.455   3.251  12.498 -0.7174 -0.4148 -0.5669
18230TIP3    H176181   5.415   3.185  12.440 -1.9687  0.2907 -0.5353
18230TIP3    H276182   5.420   3.230  12.585 -0.1340 -0.4535 -0.3347
18231TIP3   OH276183   5.640   5.695  11.068 -0.3091 -0.1385  0.2502
18231TIP3    H176184   5.636   5.612  11.114  0.4201 -0.6818 -0.6179
18231TIP3    H276185   5.556   5.738  11.086  0.0791 -0.1672  2.3204
18232TIP3   OH276186   1.844   1.131   2.665 -0.2848 -0.2275 -0.7775
18232TIP3    H176187   1.923   1.145   2.715 -1.3545  0.0161  0.9227
18232TIP3    H276188   1.787   1.081   2.724 -1.9013  0.7761 -1.4237
18233TIP3   OH276189   3.005   4.431  16.675 -0.4437 -0.3319  0.3757
18233TIP3    H176190   3.061   4.438  16.597  1.6054 -0.3386  1.7835
18233TIP3    H276191   2.988   4.522  16.699 -0.9134 -0.3308  0.0599
18234TIP3   OH276192   6.783   3.756  13.526 -0.0580  0.0109 -0.0776
18234TIP3    H176193   6.756   3.778  13.615  4.2060 -0.1461  1.4668
18234TIP3    H276194   6.783   3.840  13.480 -0.6823  0.3456  0.5086
18235TIP3   OH276195   0.170   1.750   3.322 -0.4299  0.0127  0.2988
18235TIP3    H176196   0.086   1.749   3.368 -0.5242 -0.1689  0.1245
18235TIP3    H276197   0.181   1.840   3.293 -0.6112  0.0148  0.2390
18236TIP3   OH276198   6.722   0.018   0.709  0.3209 -0.1229  0.2289
18236TIP3    H176199   6.785  -0.049   0.682  0.4722 -0.2009  0.7674
18236TIP3    H276200   6.758   0.054   0.789 -0.7672 -0.7942  1.0469
18237TIP3   OH276201   2.641   5.567  14.204 -0.3876  0.6106  0.0380
18237TIP3    H176202   2.606   5.532  14.122 -1.7556  1.7818  0.0817
18237TIP3    H276203   2.647   5.491  14.261 -3.8685  0.4014  0.3417
18238TIP3   OH276204   4.457   3.973   4.381 -0.3715 -0.3514  0.2621
18238TIP3    H176205   4.405   3.935   4.451 -2.2679  1.2218 -0.1986
18238TIP3    H276206   4.414   3.945   4.300  0.5377 -0.4467 -0.2015
18239TIP3   OH276207   2.309   3.004  16.126 -0.3159  0.0686 -0.1918
18239TIP3    H176208   2.230   2.960  16.158  0.2178 -1.2672 -0.6229
18239TIP3    H276209   2.345   3.047  16.203 -0.0244 -1.5794  0.6385
18240TIP3   OH276210   1.926   3.799  15.637  0.4255  0.1056 -1.1680
18240TIP3    H176211   2.018   3.824  15.636  0.3731  0.2805 -1.7615
18240TIP3    H276212   1.917   3.745  15.716  0.8883  0.6191 -0.7559
18241TIP3   OH276213   5.025   5.647   5.332  0.0132 -0.2230  0.2711
18241TIP3    H176214   5.049   5.681   5.245  1.1930 -0.4252  0.4979
18241TIP3    H276215   4.950   5.701   5.359  0.4685  0.7344 -0.3108
18242TIP3   OH276216   2.949   6.064   4.161  0.7528 -0.0046  0.4213
18242TIP3    H176217   2.856   6.055   4.184  0.0489  0.0673 -2.0179
18242TIP3    H276218   2.976   5.975   4.137  0.0312  0.5199 -2.8433
18243TIP3   OH276219   3.059   6.510   2.821  0.8725 -0.4467  0.3611
18243TIP3    H176220   3.028   6.586   2.870  0.5452 -0.6598  0.4900
18243TIP3    H276221   2.999   6.503   2.747  0.6613 -0.8066  0.5598
18244TIP3   OH276222   4.116   0.134   0.916  0.6226  0.5454 -0.2166
18244TIP3    H176223   4.085   0.065   0.856 -1.3235  0.4290  0.8505
18244TIP3    H276224   4.036   0.173   0.951  1.7161  1.7061  1.0856
18245TIP3   OH276225   1.239   5.645   3.689  0.3093 -0.5786  0.2459
18245TIP3    H176226   1.252   5.551   3.674  2.1588 -0.1771 -1.0263
18245TIP3    H276227   1.321   5.685   3.662 -0.1868  1.3669  1.4434
18246TIP3   OH276228   3.970   1.347  14.754 -0.3593  0.3606 -0.1074
18246TIP3    H176229   4.062   1.348  14.724  0.1125  0.4327  1.2947
18246TIP3    H276230   3.955   1.256  14.780 -0.5634  0.4341  0.0284
18247TIP3   OH276231   2.087   6.590  12.852  0.0406  0.4708 -0.0469
18247TIP3    H176232   2.006   6.624  12.891  1.3563 -0.7383  4.3059
18247TIP3    H276233   2.067   6.499  12.829  0.2690 -0.1233  1.8986
18248TIP3   OH276234   1.799   4.475   3.842  0.0534  0.1005  0.8428
18248TIP3    H176235   1.872   4.533   3.822  0.7869 -0.1946  2.4488
18248TIP3    H276236   1.789   4.482   3.937 -1.5678 -0.3991  0.7400
18249TIP3   OH276237   0.012   1.524   0.854  0.3382 -0.4588 -0.1009
18249TIP3    H176238  -0.078   1.559   0.861 -0.8631 -3.1021 -1.1341
18249TIP3    H276239   0.061   1.594   0.811 -0.3638  2.3110  3.1712
18250TIP3   OH276240   1.030   5.225   6.181  0.4892  0.1782 -0.2585
18250TIP3    H176241   1.106   5.226   6.239 -1.2888 -1.2723  2.2540
18250TIP3    H276242   1.053   5.163   6.112  1.6476 -0.1191  0.3703
18251TIP3   OH276243   1.864   2.055  11.447  0.2670 -0.0512  0.2918
18251TIP3    H176244   1.779   2.088  11.477  1.1006  1.7144  0.8002
18251TIP3    H276245   1.856   2.052  11.352 -0.4540 -0.1527  0.3506
18252TIP3   OH276246   0.269   5.436   2.772  0.5386 -0.4810 -0.5041
18252TIP3    H176247   0.192   5.476   2.814 -0.4443 -0.9192 -1.8207
18252TIP3    H276248   0.344   5.479   2.813 -0.4241  0.3963  0.3867
18253TIP3   OH276249   5.458   6.087   5.475 -0.0275 -0.1936  0.7165
18253TIP3    H176250   5.378   6.036   5.493 -0.1946 -1.0839 -2.1056
18253TIP3    H276251   5.446   6.121   5.387  3.6105 -2.2025 -0.7558
18254TIP3   OH276252   3.904   1.354   3.901 -0.2214  0.2865  0.0412
18254TIP3    H176253   3.860   1.397   3.828 -0.0694  1.0097  0.3738
18254TIP3    H276254   3.905   1.419   3.971 -1.2890 -0.7348  1.0556
18255TIP3   OH276255   2.864   2.991  16.247  0.2604 -0.4131  0.4906
18255TIP3    H176256   2.909   2.908  16.255 -1.5423 -1.3340  2.1157
18255TIP3    H276257   2.803   2.979  16.174  0.9577 -0.0114 -0.1670
18256TIP3   OH276258   1.780   6.422   1.598 -0.5071  0.0213 -0.1840
18256TIP3    H176259   1.717   6.490   1.620 -0.2551  0.1355  0.1912
18256TIP3    H276260   1.741   6.341   1.631 -0.5406  0.0645 -0.1179
18257TIP3   OH276261   6.699   6.231  16.662 -0.0472  0.2208 -0.5602
18257TIP3    H176262   6.694   6.299  16.729  1.0943 -0.0173 -0.2225
18257TIP3    H276263   6.732   6.154  16.709  0.6948  0.0357 -1.3779
18258TIP3   OH276264   0.788   4.179   0.583  0.1545 -0.0147 -0.1043
18258TIP3    H176265   0.752   4.262   0.611  2.1914  1.0741 -0.5114
18258TIP3    H276266   0.882   4.194   0.578  0.7406 -2.7049  1.0058
18259TIP3   OH276267   0.545   0.113  13.020 -0.4226  0.6265 -0.7162
18259TIP3    H176268   0.463   0.155  13.044 -0.5598  0.7763 -1.4178
18259TIP3    H276269   0.608   0.185  13.015 -0.1733  0.4705  0.1316
18260TIP3   OH276270   3.575   4.305  15.616  0.0347  0.2614  0.2104
18260TIP3    H176271   3.633   4.319  15.541 -0.3360  0.4818 -0.0410
18260TIP3    H276272   3.493   4.273  15.577 -0.1376  0.3143  0.5248
18261TIP3   OH276273   3.539   2.635  15.168  0.2128  0.0033 -0.2333
18261TIP3    H176274   3.624   2.679  15.158  0.5099 -0.4985  0.0206
18261TIP3    H276275   3.482   2.702  15.204  1.2270 -0.3613  2.2768
18262TIP3   OH276276   1.132   2.699  15.841 -0.0566  0.0106 -0.0091
18262TIP3    H176277   1.222   2.732  15.841  0.0455 -0.0066  2.9091
18262TIP3    H276278   1.128   2.640  15.766  2.9220 -1.3899  0.8044
18263TIP3   OH276279   1.213   6.822   4.291 -0.0492 -0.2204  0.2127
18263TIP3    H176280   1.152   6.861   4.354 -0.2942  0.2642 -0.3237
18263TIP3    H276281   1.295   6.814   4.340 -0.4791 -0.6795  0.8722
18264TIP3   OH276282   2.191   1.512  15.862  0.0042 -0.1736 -0.0240
18264TIP3    H176283   2.124   1.580  15.855 -0.3320 -0.4874  0.1109
18264TIP3    H276284   2.173   1.454  15.788  0.4009 -0.0243 -0.2440
18265TIP3   OH276285   6.375   2.977  12.955 -0.3349 -0.0182 -0.5111
18265TIP3    H176286   6.311   2.929  13.008 -2.0710  1.8681 -0.7634
18265TIP3    H276287   6.341   2.973  12.866  2.3996 -2.8837 -1.5923
18266TIP3   OH276288   4.116   0.657   4.447  0.1150  0.2947  0.0924
18266TIP3    H176289   4.054   0.678   4.516  0.3451 -0.9725  0.7147
18266TIP3    H276290   4.200   0.693   4.476  0.3820 -0.8992  0.8767
18267TIP3   OH276291   6.285   2.755  16.273  0.0115 -0.3900 -0.0172
18267TIP3    H176292   6.212   2.810  16.248 -3.1203 -3.0345  2.3989
18267TIP3    H276293   6.251   2.665  16.267  3.4217 -1.8665  0.2456
18268TIP3   OH276294   1.605   4.542   5.474 -0.2980 -0.0719 -0.6920
18268TIP3    H176295   1.633   4.453   5.497  0.3933 -0.0368 -1.3316
18268TIP3    H276296   1.675   4.574   5.416  0.0990  1.3583  0.5201
18269TIP3   OH276297   1.272   6.617   0.371  0.0493 -0.0609 -0.1181
18269TIP3    H176298   1.330   6.654   0.437  0.5122  0.0681 -0.5944
18269TIP3    H276299   1.327   6.555   0.322 -0.5035 -0.7884  0.1547
18270TIP3   OH276300   5.002   0.224   6.101 -0.3689  0.4415 -0.2832
18270TIP3    H176301   4.930   0.195   6.158 -0.0901  0.0755 -0.1091
18270TIP3    H276302   5.032   0.305   6.141 -0.6632  0.5767 -0.3353
18271TIP3   OH276303   2.305   6.205   4.756  0.3918  0.0475  0.4709
18271TIP3    H176304   2.305   6.279   4.816 -2.6755  0.8175 -0.3358
18271TIP3    H276305   2.363   6.232   4.685  1.1963  0.6303  1.3206
18272TIP3   OH276306   3.130   0.437  15.268  0.8130  0.5381  0.6794
18272TIP3    H176307   3.115   0.488  15.189 -0.3796 -2.3904 -1.1604
18272TIP3    H276308   3.216   0.396  15.255  1.0995  0.8646  1.4421
18273TIP3   OH276309   2.367   2.211  16.917 -0.2302 -0.2047 -0.3264
18273TIP3    H176310   2.405   2.292  16.951 -0.0055 -0.7792  0.8696
18273TIP3    H276311   2.354   2.227  16.824  2.7450  0.1091 -0.7835
18274TIP3   OH276312   5.881   3.118   6.655 -0.4547 -0.7075 -0.6700
18274TIP3    H176313   5.946   3.048   6.658 -0.2090 -0.5240 -1.4649
18274TIP3    H276314   5.923   3.187   6.604 -0.6179  0.1013  0.2629
18275TIP3   OH276315   5.277   0.282  14.951 -0.0979 -0.2478 -0.0607
18275TIP3    H176316   5.237   0.213  15.003  0.3649  0.6460  1.5612
18275TIP3    H276317   5.299   0.350  15.015  1.1948  0.5809 -1.3292
18276TIP3   OH276318   5.216   5.486  12.955 -0.0905  0.2075 -0.2017
18276TIP3    H176319   5.253   5.409  12.912  0.1025 -0.1424  0.5886
18276TIP3    H276320   5.151   5.451  13.015  1.6267  0.4326  1.9163
18277TIP3   OH276321   1.907   3.233   2.197 -0.6046  0.3434  0.3017
18277TIP3    H176322   1.916   3.325   2.219 -0.1736  0.1160  1.0920
18277TIP3    H276323   1.992   3.207   2.161 -0.5677  0.1316  0.5386
18278TIP3   OH276324   1.563   2.650  16.690  0.4153 -0.2040  0.2676
18278TIP3    H176325   1.646   2.693  16.669  0.2468  0.4273  0.8631
18278TIP3    H276326   1.524   2.704  16.759 -0.5166 -0.4621 -0.0347
18279TIP3   OH276327   1.686   3.350   6.182 -0.4341  0.4128  0.1485
18279TIP3    H176328   1.701   3.407   6.258 -1.8151  0.9615  0.0368
18279TIP3    H276329   1.713   3.263   6.212 -1.1766  0.5706  1.3812
18280TIP3   OH276330   6.682   1.062  11.768 -0.0342 -0.1013 -0.7573
18280TIP3    H176331   6.704   1.046  11.676  0.0600 -1.1653 -0.5552
18280TIP3    H276332   6.708   0.982  11.813  0.4431  0.6316  0.2897
18281TIP3   OH276333   4.068   3.228   0.548  0.1817 -0.4739 -0.0094
18281TIP3    H176334   4.042   3.303   0.601 -2.5916 -0.2598 -1.4922
18281TIP3    H276335   4.021   3.154   0.586 -0.2886 -0.6803 -0.9729
18282TIP3   OH276336   1.884   6.262   4.719  0.0019 -0.0094  0.5682
18282TIP3    H176337   1.933   6.182   4.734 -0.2207 -0.0780  0.9590
18282TIP3    H276338   1.795   6.233   4.702  0.0160  0.1322  0.2505
18283TIP3   OH276339   0.117   0.262   0.091  0.4217 -0.2063  0.3989
18283TIP3    H176340   0.156   0.328   0.148  0.0172  0.6149 -0.2420
18283TIP3    H276341   0.058   0.213   0.147 -1.4451  1.8273  0.3416
18284TIP3   OH276342   3.107   4.420  16.371  0.3901  0.1805 -0.2083
18284TIP3    H176343   3.098   4.509  16.338 -1.4397 -0.1799 -0.7753
18284TIP3    H276344   3.093   4.364  16.295  2.8377 -0.6344 -0.1452
18285TIP3   OH276345   5.104   6.403   3.588 -0.6377  0.3672  0.1775
18285TIP3    H176346   5.186   6.446   3.565  0.2427  0.0475  2.4508
18285TIP3    H276347   5.036   6.465   3.561  0.5323  2.6372  2.1028
18286TIP3   OH276348   3.462   0.608   1.356  0.1497  0.3656  0.1407
18286TIP3    H176349   3.490   0.621   1.447  0.1763  3.3080 -0.1743
18286TIP3    H276350   3.527   0.548   1.319 -0.1164 -1.2425  2.1350
18287TIP3   OH276351   0.137   1.143  14.743  0.3538  0.0922  0.2039
18287TIP3    H176352   0.202   1.072  14.738  1.1162  0.6515  1.5957
18287TIP3    H276353   0.055   1.102  14.718  0.7950 -1.2766  0.8921
18288TIP3   OH276354   1.228   5.610  17.061  0.1800 -0.1111 -0.1274
18288TIP3    H176355   1.192   5.668  16.994  2.0038  0.5827 -0.5926
18288TIP3    H276356   1.315   5.587  17.027  1.1305  0.1973  1.9574
18289TIP3   OH276357   0.107   2.246  14.334 -0.2138 -0.1037 -0.6604
18289TIP3    H176358   0.030   2.298  14.359  1.2076  1.3061  1.0565
18289TIP3    H276359   0.130   2.278  14.246 -1.4320 -0.4173 -1.1164
18290TIP3   OH276360   6.114   3.322  11.641  0.2217 -0.0550  0.1937
18290TIP3    H176361   6.182   3.260  11.668  0.2276 -1.1351 -2.0162
18290TIP3    H276362   6.157   3.377  11.576 -0.2944  1.0899  0.7978
18291TIP3   OH276363   5.107   5.992   2.740  0.1874  0.0371  0.3454
18291TIP3    H176364   5.108   5.913   2.686 -2.4672  0.6195 -0.7241
18291TIP3    H276365   5.130   5.962   2.828 -1.4211 -2.0937  0.1116
18292TIP3   OH276366   2.986   5.461  15.150 -0.2518  0.1006 -0.0263
18292TIP3    H176367   3.077   5.440  15.131 -1.1231 -1.6448 -2.7564
18292TIP3    H276368   2.956   5.389  15.206 -0.5680 -0.6186 -1.1049
18293TIP3   OH276369   5.880   0.408   3.842 -0.1280 -0.1195  0.1693
18293TIP3    H176370   5.795   0.453   3.847  0.0065  0.0016  1.7127
18293TIP3    H276371   5.859   0.316   3.853  0.1280  0.1123  3.6243
18294TIP3   OH276372   3.219   0.558   5.957  0.7863  0.2411  0.7128
18294TIP3    H176373   3.211   0.648   5.926 -0.1363  0.3415  1.2219
18294TIP3    H276374   3.161   0.552   6.032 -0.6159 -1.2607 -0.4006
18295TIP3   OH276375   3.680   0.225   0.868  0.4205 -0.2091  0.3441
18295TIP3    H176376   3.682   0.293   0.801  1.3702  0.4342  0.9940
18295TIP3    H276377   3.744   0.254   0.934 -3.3999  1.4206  3.7353
18296TIP3   OH276378   1.937   6.270  14.486 -1.0508 -0.3378  0.7971
18296TIP3    H176379   1.931   6.175  14.500  1.5906 -0.6979  0.1690
18296TIP3    H276380   1.946   6.279  14.391 -1.0253  0.5105  0.8746
18297TIP3   OH276381   1.672   1.723  15.767 -0.0809  0.1298  0.0721
18297TIP3    H176382   1.675   1.639  15.720  0.4615  0.0379  0.2691
18297TIP3    H276383   1.701   1.702  15.856  0.6328  0.6307 -0.0372
18298TIP3   OH276384   1.941   5.509  12.820 -0.1685 -0.1030  0.6935
18298TIP3    H176385   1.918   5.597  12.851 -1.0870 -0.1649  0.2277
18298TIP3    H276386   1.896   5.501  12.736  2.5002  0.1676 -0.8640
18299TIP3   OH276387   1.887   3.482   5.294  0.1727  0.1367  0.2738
18299TIP3    H176388   1.809   3.535   5.309 -0.4875 -1.1955  1.8531
18299TIP3    H276389   1.890   3.470   5.199 -1.7318 -0.0711  0.2058
18300TIP3   OH276390   3.212   6.735   3.497 -0.0647  0.0645  0.1031
18300TIP3    H176391   3.149   6.761   3.564 -0.2401  0.7246 -0.3014
18300TIP3    H276392   3.240   6.648   3.522 -0.3475  0.1890  0.8742
18301TIP3   OH276393   3.425   6.652   4.488 -0.1136 -0.1823 -0.0420
18301TIP3    H176394   3.433   6.638   4.582 -2.9855 -0.0389  0.3224
18301TIP3    H276395   3.453   6.743   4.475  2.4758 -0.8793  0.2530
18302TIP3   OH276396   6.317   4.344   0.218  0.0331  0.2371  0.3697
18302TIP3    H176397   6.252   4.391   0.167  0.1065 -0.4622 -0.3963
18302TIP3    H276398   6.267   4.286   0.276 -0.0532 -1.1212 -1.0042
18303TIP3   OH276399   1.597   5.837  15.309  0.2602  0.2627 -0.0581
18303TIP3    H176400   1.645   5.918  15.292 -2.4593  1.5273 -2.4547
18303TIP3    H276401   1.542   5.858  15.385  1.9899 -0.5901  1.5204
18304TIP3   OH276402   5.168   0.693   0.308  0.4250 -0.1767 -0.3380
18304TIP3    H176403   5.167   0.623   0.242 -0.2800 -0.5678  0.0809
18304TIP3    H276404   5.165   0.774   0.257  0.8196 -0.4557 -0.8155
18305TIP3   OH276405   4.181   5.833   5.530  0.6074 -0.3939  0.4953
18305TIP3    H176406   4.164   5.758   5.587  0.5879 -1.6366 -1.0818
18305TIP3    H276407   4.138   5.810   5.448 -1.2913  2.3041  0.6007
18306TIP3   OH276408   3.396   0.029  16.042  0.4462  0.2400 -0.2098
18306TIP3    H176409   3.358  -0.045  16.091 -0.1279  0.4418 -0.3485
18306TIP3    H276410   3.461  -0.012  15.985 -1.0991 -0.3886 -1.5806
18307TIP3   OH276411   6.711   4.800   0.180  0.2785 -0.6052  0.3279
18307TIP3    H176412   6.734   4.804   0.087 -0.2465  2.1675  0.2332
18307TIP3    H276413   6.618   4.821   0.182  0.9321  2.9036  1.5855
18308TIP3   OH276414   2.587   3.048   0.964  0.4796 -0.5642 -0.2388
18308TIP3    H176415   2.515   3.048   0.900 -1.1655  0.6818  1.4823
18308TIP3    H276416   2.561   2.982   1.028  0.5662  0.2801  0.6869
18309TIP3   OH276417   3.812   3.392  10.741  0.4051  0.3286  0.1788
18309TIP3    H176418   3.883   3.456  10.750  0.9128 -0.3414  1.1350
18309TIP3    H276419   3.736   3.435  10.780  0.5563  0.6350  0.1371
18310TIP3   OH276420   1.525   0.784   5.632  0.3063 -0.9208 -0.8105
18310TIP3    H176421   1.530   0.838   5.711  0.5403  1.4802 -2.3377
18310TIP3    H276422   1.435   0.750   5.632  0.9379 -2.8724  1.5440
18311TIP3   OH276423   1.602   1.154  12.871 -0.4917 -0.0188 -0.5065
18311TIP3    H176424   1.560   1.083  12.919  1.7147 -0.9251  0.1982
18311TIP3    H276425   1.665   1.110  12.814 -0.0262  1.3074 -1.0501
18312TIP3   OH276426   6.300   1.350   4.396 -0.0663 -0.0450 -0.0591
18312TIP3    H176427   6.211   1.336   4.365 -0.5505  0.0231  1.2211
18312TIP3    H276428   6.291   1.414   4.467  1.2167  1.2911 -1.0337
18313TIP3   OH276429   3.913   4.522  14.349  0.6169 -0.6209  0.3065
18313TIP3    H176430   4.004   4.494  14.341  0.5578 -0.8403  0.3890
18313TIP3    H276431   3.867   4.474  14.280  0.2734 -1.7938  1.3198
18314TIP3   OH276432   5.522   4.045  15.980  0.0957  0.0314  0.0790
18314TIP3    H176433   5.590   4.041  15.913 -0.4818 -0.2591 -0.5105
18314TIP3    H276434   5.489   3.956  15.986 -0.2835  0.1828  0.2913
18315TIP3   OH276435   6.462   2.938   0.915 -0.8268 -0.3733 -0.4502
18315TIP3    H176436   6.518   3.016   0.907  0.7461 -1.5956 -2.6073
18315TIP3    H276437   6.433   2.939   1.006  1.5093  1.1645  0.3958
18316TIP3   OH276438   1.076   3.917   5.364 -0.5489  0.2759  0.1738
18316TIP3    H176439   1.158   3.914   5.314 -2.0445  1.7011 -2.6191
18316TIP3    H276440   1.069   4.007   5.394 -0.8585  0.0235  0.8952
18317TIP3   OH276441   0.533   5.354  16.354  0.5455 -0.2909 -0.5637
18317TIP3    H176442   0.550   5.291  16.285  2.6338 -0.6591  0.2013
18317TIP3    H276443   0.473   5.310  16.413 -0.4428 -0.3589 -1.5903
18318TIP3   OH276444   6.687   0.265  15.716 -0.2764  0.1642 -0.1548
18318TIP3    H176445   6.719   0.245  15.804 -0.7292 -0.4223 -0.1155
18318TIP3    H276446   6.595   0.288  15.729 -0.4978 -0.4938 -0.5422
18319TIP3   OH276447   3.332   4.290   0.778  0.0610  0.1465  0.1919
18319TIP3    H176448   3.339   4.225   0.848 -0.7742  0.1019  0.2478
18319TIP3    H276449   3.377   4.250   0.704 -1.6542 -1.1542 -0.2156
18320TIP3   OH276450   1.469   0.142   4.622 -0.1957 -0.0609 -0.3352
18320TIP3    H176451   1.555   0.166   4.655 -0.6194  0.6079  0.3211
18320TIP3    H276452   1.410   0.155   4.697 -0.4974 -3.1716  0.0941
18321TIP3   OH276453   5.966   4.449   3.922 -0.2405 -0.6685 -0.2565
18321TIP3    H176454   5.989   4.444   3.830  0.3368 -0.6702 -0.1157
18321TIP3    H276455   6.044   4.483   3.965 -0.9369  0.5924  0.0615
18322TIP3   OH276456   4.881   0.915   3.188  0.2724  0.3279 -0.7643
18322TIP3    H176457   4.970   0.911   3.223 -0.1850  2.7599  0.8968
18322TIP3    H276458   4.884   0.984   3.122 -0.5589  1.0912 -0.0285
18323TIP3   OH276459   1.621   6.539  16.957  0.1500 -1.1030 -0.1727
18323TIP3    H176460   1.625   6.623  16.911 -1.0891 -0.3675  1.0023
18323TIP3    H276461   1.652   6.475  16.892 -1.0549 -0.0476 -1.8775
18324TIP3   OH276462   3.401   3.411   6.185  0.5140  0.1412 -0.1784
18324TIP3    H176463   3.441   3.488   6.144  0.7060 -0.4893 -1.2285
18324TIP3    H276464   3.365   3.443   6.267 -1.7081  1.9273 -1.7358
18325TIP3   OH276465   2.819   3.234  16.446 -0.0573 -0.4301 -0.0316
18325TIP3    H176466   2.833   3.148  16.407  1.0720  0.3686 -1.4908
18325TIP3    H276467   2.785   3.288  16.375  0.4643  0.6554  0.5209
18326TIP3   OH276468   4.210   1.566  10.764  0.5823  0.5184 -0.1406
18326TIP3    H176469   4.132   1.618  10.784  0.7920  0.6749  0.2684
18326TIP3    H276470   4.175   1.482  10.733  0.2424  0.1840  1.0827
18327TIP3   OH276471   2.019   0.565   5.158 -0.0088 -0.1703  0.2511
18327TIP3    H176472   1.999   0.626   5.228  0.7057  1.6221 -1.0226
18327TIP3    H276473   1.935   0.526   5.134 -0.6184  0.9174  0.5747
18328TIP3   OH276474   3.908   3.587   4.260 -0.1745 -0.1250 -0.2113
18328TIP3    H176475   3.870   3.508   4.299  0.3082 -0.3494 -0.1940
18328TIP3    H276476   3.922   3.645   4.334  0.1498 -0.3076 -0.1253
18329TIP3   OH276477   2.928   5.968  14.562  0.3664  0.0529 -0.2795
18329TIP3    H176478   2.925   5.899  14.629 -0.6321  0.5908  0.2565
18329TIP3    H276479   2.956   6.046  14.611 -3.9513  1.3952  0.4688
18330TIP3   OH276480   4.686   6.232  11.750  0.6035  0.2668  0.0919
18330TIP3    H176481   4.692   6.137  11.742  0.1304  0.3793 -2.4251
18330TIP3    H276482   4.769   6.265  11.714  0.3661  0.8331  0.0504
18331TIP3   OH276483   6.633   5.079   2.238 -0.6456  0.1767 -0.0810
18331TIP3    H176484   6.672   5.166   2.242  0.6496 -0.1350 -3.0373
18331TIP3    H276485   6.700   5.021   2.277 -1.3104  0.3953  1.4539
18332TIP3   OH276486   1.787   0.592  14.178 -0.7385  0.1019 -0.5121
18332TIP3    H176487   1.787   0.559  14.268  0.9191  0.5732 -0.3114
18332TIP3    H276488   1.806   0.515  14.125 -3.2394 -0.5141 -0.6689
18333TIP3   OH276489   6.424   3.097   0.590  0.2505 -0.0241  0.0896
18333TIP3    H176490   6.373   3.071   0.667 -0.3565 -0.0224 -0.3058
18333TIP3    H276491   6.359   3.110   0.521  0.7785  0.0792 -0.3991
18334TIP3   OH276492   3.836   4.776   5.071 -0.1437 -0.2273  0.1888
18334TIP3    H176493   3.928   4.795   5.087 -0.3145  2.0147 -1.0266
18334TIP3    H276494   3.789   4.834   5.132 -0.7109  0.6093 -0.9974
18335TIP3   OH276495   2.417   5.956   3.395 -0.3758  0.0627  0.1839
18335TIP3    H176496   2.428   6.052   3.392 -0.3058  0.1570  1.9234
18335TIP3    H276497   2.402   5.938   3.488  1.8065 -1.8351  0.2667
18336TIP3   OH276498   4.730   0.277  13.134  0.2061 -0.8798 -0.0246
18336TIP3    H176499   4.678   0.243  13.207  1.4458 -0.5583  1.0506
18336TIP3    H276500   4.668   0.328  13.082 -0.7698 -1.3530  0.6364
18337TIP3   OH276501   2.819   1.894   3.175 -0.4250  0.0815 -0.2799
18337TIP3    H176502   2.810   1.828   3.106 -0.5853 -0.1394 -0.0507
18337TIP3    H276503   2.814   1.977   3.129  2.3949 -0.0159 -0.9456
18338TIP3   OH276504   1.968   2.694  16.990 -0.2651  0.0518  0.7426
18338TIP3    H176505   1.904   2.633  17.028  0.9302 -1.8052 -0.0667
18338TIP3    H276506   1.991   2.753  17.061 -1.6914 -0.2541  1.4890
18339TIP3   OH276507   2.703   2.478   2.958 -0.5708 -0.8077  0.3257
18339TIP3    H176508   2.782   2.515   2.998  0.5486  0.4688 -2.7664
18339TIP3    H276509   2.659   2.553   2.919 -1.4907 -1.9595 -0.9249
18340TIP3   OH276510   4.577   6.097   0.729 -0.3550 -0.2596  0.3740
18340TIP3    H176511   4.568   6.192   0.718 -0.8154 -0.1069  1.8478
18340TIP3    H276512   4.672   6.083   0.731 -0.2485 -0.1279 -1.9313
18341TIP3   OH276513   6.203   6.426   4.714  0.5529 -0.2566 -0.1037
18341TIP3    H176514   6.299   6.428   4.710  0.5474 -0.3416 -0.3197
18341TIP3    H276515   6.178   6.518   4.722  0.7476 -0.3840  2.8456
18342TIP3   OH276516   0.584   0.077  17.114  0.5064 -0.6462  0.1186
18342TIP3    H176517   0.664   0.073  17.063  0.3331 -0.8603 -0.1390
18342TIP3    H276518   0.600   0.145  17.180  0.6023 -0.1308 -0.4298
18343TIP3   OH276519   4.532   5.971   4.328 -0.8796  0.3713 -0.2022
18343TIP3    H176520   4.513   6.059   4.360  0.2269  0.0682  1.4140
18343TIP3    H276521   4.549   5.920   4.407 -0.6606 -1.0837 -1.1548
18344TIP3   OH276522   5.341   5.230  16.351  0.5696 -0.7989 -0.7971
18344TIP3    H176523   5.360   5.145  16.311  0.6917  0.2900 -3.1892
18344TIP3    H276524   5.256   5.218  16.393  1.0366 -2.3607 -0.2176
18345TIP3   OH276525   3.906   6.757   5.441  0.4863 -0.3412 -0.0667
18345TIP3    H176526   3.964   6.731   5.370  0.0522  0.5647 -0.7927
18345TIP3    H276527   3.885   6.676   5.487  2.6161 -0.6477  0.4764
18346TIP3   OH276528   1.784   3.002   4.147 -0.4313  0.2279  0.4380
18346TIP3    H176529   1.737   3.085   4.156  0.1916  0.7365 -0.6826
18346TIP3    H276530   1.804   2.997   4.053 -1.2960 -1.6678  0.3203
18347TIP3   OH276531   2.195   4.414   0.388  0.2072 -0.4824  0.2869
18347TIP3    H176532   2.256   4.343   0.370  1.4477  1.3062 -3.3626
18347TIP3    H276533   2.239   4.468   0.454  1.4768 -0.5338 -0.4971
18348TIP3   OH276534   4.394   1.911   5.223  0.2295 -0.6235  0.0161
18348TIP3    H176535   4.379   1.966   5.147  0.3130 -0.1401  0.3490
18348TIP3    H276536   4.485   1.928   5.248  0.0539 -0.4077  0.5180
18349TIP3   OH276537   5.686   6.690   3.677  0.1766 -0.1756  0.1823
18349TIP3    H176538   5.653   6.607   3.641 -1.5507  0.0702  1.0985
18349TIP3    H276539   5.618   6.754   3.657  1.1610  0.8890  0.1187
18350TIP3   OH276540   6.111   6.771   6.000 -0.1483 -0.7902 -0.1319
18350TIP3    H176541   6.173   6.844   5.996 -2.0389  0.9805  0.7482
18350TIP3    H276542   6.166   6.694   6.014  1.7672  0.8988  2.6722
18351TIP3   OH276543   3.709   1.532   4.906 -0.0499  0.3752  0.1109
18351TIP3    H176544   3.667   1.459   4.860  0.7261  0.5763 -0.9651
18351TIP3    H276545   3.639   1.594   4.922 -0.3492  0.3261 -0.9006
18352TIP3   OH276546   4.493   4.506   0.411 -0.6320 -0.6020  0.1723
18352TIP3    H176547   4.415   4.530   0.463 -1.2386 -0.8107 -0.6192
18352TIP3    H276548   4.535   4.590   0.391 -2.0110 -0.2343 -1.4555
18353TIP3   OH276549   2.226   6.342   1.326 -0.6984 -0.9418  0.8609
18353TIP3    H176550   2.198   6.380   1.242 -0.4700  1.7231  1.9008
18353TIP3    H276551   2.148   6.348   1.381 -0.3834 -1.1237  1.3258
18354TIP3   OH276552   1.114   2.263   4.701  0.2560 -0.0412  0.5389
18354TIP3    H176553   1.108   2.268   4.606  0.5720  0.0565  0.5220
18354TIP3    H276554   1.024   2.249   4.731 -0.1339  1.7102  0.3345
18355TIP3   OH276555   2.459   0.760  13.941 -0.2947  0.0657  0.1488
18355TIP3    H176556   2.465   0.664  13.950 -1.8198 -0.0454  0.1838
18355TIP3    H276557   2.417   0.789  14.021  0.2864  0.8019  0.1941
18356TIP3   OH276558   4.388   1.731   1.761  0.0716 -0.0529 -0.4130
18356TIP3    H176559   4.449   1.675   1.713 -0.4833 -0.8124 -0.2548
18356TIP3    H276560   4.379   1.690   1.847  0.0068  0.5350 -0.1356
18357TIP3   OH276561   0.332   3.778  15.534  0.1272  0.6289  0.3366
18357TIP3    H176562   0.261   3.841  15.520 -0.0774  0.8407  2.1000
18357TIP3    H276563   0.365   3.760  15.446 -1.1332  1.6559 -0.3934
18358TIP3   OH276564   1.521   3.393   2.550  0.0426 -0.1288  0.1843
18358TIP3    H176565   1.492   3.456   2.616  1.3996 -1.3465  2.0440
18358TIP3    H276566   1.482   3.310   2.577  0.1399 -0.5387 -0.9035
18359TIP3   OH276567   3.124   1.538  10.975  0.0206 -0.3566 -0.4587
18359TIP3    H176568   3.070   1.615  10.959  1.8407  0.7032 -1.7775
18359TIP3    H276569   3.063   1.474  11.014 -2.5532  0.1963 -3.2042
18360TIP3   OH276570   2.169   2.919   4.926  0.2332 -0.1912 -0.1973
18360TIP3    H176571   2.079   2.931   4.957  0.3727 -0.1421  0.2006
18360TIP3    H276572   2.215   2.883   5.002  0.7456  0.6008 -0.1166
18361TIP3   OH276573   2.094   0.806  13.280 -0.0349  0.5283  0.7393
18361TIP3    H176574   2.086   0.718  13.318 -0.7556  0.6605  0.9091
18361TIP3    H276575   2.038   0.803  13.202 -0.3699  0.9475  0.9598
18362TIP3   OH276576   1.862   6.612   3.049 -0.0367 -0.4185 -0.9179
18362TIP3    H176577   1.917   6.578   3.119 -0.9673 -0.2895 -0.0928
18362TIP3    H276578   1.876   6.552   2.976 -0.1690 -1.4395 -0.1307
18363TIP3   OH276579   2.610   3.034   2.472 -0.0209 -0.7326 -0.6046
18363TIP3    H176580   2.665   3.077   2.407 -0.1694  1.2011  0.4496
18363TIP3    H276581   2.584   3.105   2.531 -1.0033 -2.1693  0.7666
18364TIP3   OH276582   0.859   3.171   5.103 -0.1299 -0.0933  0.4113
18364TIP3    H176583   0.912   3.122   5.041 -0.8028 -0.7909  0.3734
18364TIP3    H276584   0.778   3.189   5.057 -0.3296  0.0659  0.8178
18365TIP3   OH276585   1.411   1.152   5.300  0.5060  0.5628 -0.5133
18365TIP3    H176586   1.503   1.179   5.296  0.7575 -0.3569 -1.6474
18365TIP3    H276587   1.378   1.188   5.382  2.4017 -0.7254  0.8854
18366TIP3   OH276588   3.963   6.019  11.482  0.1255  0.0431  0.3620
18366TIP3    H176589   3.987   6.103  11.442  2.6269 -1.0519 -0.6889
18366TIP3    H276590   4.021   6.011  11.558  1.2991 -1.4989 -0.6334
18367TIP3   OH276591   3.666   5.933   2.022  0.2533 -0.4187 -0.4831
18367TIP3    H176592   3.676   5.993   1.948  0.4496  0.2482  0.0715
18367TIP3    H276593   3.717   5.856   1.997  0.0346 -0.3417 -1.1876
18368TIP3   OH276594   2.294   4.082  16.215  0.2535 -0.4696  0.7121
18368TIP3    H176595   2.222   4.024  16.193  0.1771  0.2107 -1.0324
18368TIP3    H276596   2.349   4.083  16.136 -0.3731  2.6620  0.1661
18369TIP3   OH276597   4.652   3.900  12.005  0.2514  0.6001  0.2381
18369TIP3    H176598   4.593   3.825  12.000  2.1122 -0.8633 -1.7509
18369TIP3    H276599   4.689   3.907  11.917  0.9277  3.2304  0.6493
18370TIP3   OH276600   1.258   2.382   5.733 -0.0639  0.2423  0.1710
18370TIP3    H176601   1.298   2.464   5.763  3.2689 -0.4492 -1.8522
18370TIP3    H276602   1.331   2.321   5.727 -2.2357 -2.5955  0.4493
18371TIP3   OH276603   0.709   4.418   6.215 -0.2841  0.5196  1.3543
18371TIP3    H176604   0.724   4.346   6.276 -3.0473 -0.7795  0.6670
18371TIP3    H276605   0.646   4.475   6.261 -1.6753  0.0154  0.1664
18372TIP3   OH276606   1.012   6.502   0.379  0.5268 -0.6051  0.6998
18372TIP3    H176607   0.997   6.562   0.306 -2.4276 -0.8267  0.9969
18372TIP3    H276608   1.096   6.528   0.415  1.0930  0.8569 -1.5046
18373TIP3   OH276609   5.842   4.761  11.123 -0.3986  0.3103  0.0834
18373TIP3    H176610   5.813   4.787  11.036 -0.2340  0.3186  0.0325
18373TIP3    H276611   5.768   4.785  11.180 -1.0241 -0.8365 -0.2171
18374TIP3   OH276612   0.111   5.817  11.015 -0.6024  0.6802 -0.1787
18374TIP3    H176613   0.144   5.822  10.925  0.4829  1.1084  0.2271
18374TIP3    H276614   0.082   5.726  11.025  1.9498 -0.1956 -0.0666
18375TIP3   OH276615   3.779   6.247   3.199  0.0007  0.5854  0.2778
18375TIP3    H176616   3.838   6.307   3.244 -1.3244  1.0167  1.4817
18375TIP3    H276617   3.808   6.160   3.227 -0.0659  0.8013  1.0218
18376TIP3   OH276618   1.534   3.789   0.288  0.6872  0.6023 -0.7096
18376TIP3    H176619   1.450   3.745   0.274  0.6778 -0.0132  1.0043
18376TIP3    H276620   1.595   3.742   0.232  0.5498 -1.2960  0.6226
18377TIP3   OH276621   1.705   6.542   4.698 -0.3448  0.0558  0.4035
18377TIP3    H176622   1.653   6.461   4.700  0.2357 -0.3367 -0.1013
18377TIP3    H276623   1.699   6.576   4.787 -2.3474  0.5887  0.1078
18378TIP3   OH276624   4.028   6.683   2.689 -0.8221  0.6454  0.0895
18378TIP3    H176625   4.046   6.654   2.778 -0.7765 -0.1869 -0.1816
18378TIP3    H276626   3.934   6.669   2.677 -1.3490  3.1218  0.8350
18379TIP3   OH276627   5.695   2.142  11.284 -0.4318 -0.1639 -0.4230
18379TIP3    H176628   5.760   2.121  11.216  1.0797  0.0533  0.8803
18379TIP3    H276629   5.666   2.230  11.261  0.4339  0.1109 -0.5341
18380TIP3   OH276630   1.994   2.540   0.769  0.3437 -0.6938  1.0927
18380TIP3    H176631   1.918   2.532   0.828 -0.1315 -1.4812  0.4014
18380TIP3    H276632   2.064   2.575   0.824  0.0722 -1.9394  2.2705
18381TIP3   OH276633   3.127   6.752   5.044 -0.6156 -0.0209 -0.3038
18381TIP3    H176634   3.208   6.740   4.995 -0.1348 -1.1722  0.7178
18381TIP3    H276635   3.058   6.721   4.985 -0.3433  0.9995 -1.1938
18382TIP3   OH276636   3.875   5.390  17.114  0.3233 -0.1478  0.6793
18382TIP3    H176637   3.877   5.367  17.021 -3.2419 -3.7236  1.2420
18382TIP3    H276638   3.922   5.319  17.158 -0.0244  0.2675  1.7687
18383TIP3   OH276639   5.686   2.252   5.826 -0.1674  0.1774  0.3428
18383TIP3    H176640   5.623   2.286   5.763  1.7678  0.6812 -1.4576
18383TIP3    H276641   5.663   2.293   5.909 -4.2198 -2.2236  0.6589
18384TIP3   OH276642   5.931   1.015   0.935 -0.2438  0.6205 -0.6215
18384TIP3    H176643   5.992   1.051   0.871  3.5363 -0.4532  2.0179
18384TIP3    H276644   5.961   1.051   1.019 -1.7003 -1.9289  1.1086
18385TIP3   OH276645   5.884   6.273   0.660 -0.6779  0.4589 -0.5178
18385TIP3    H176646   5.804   6.224   0.636  0.3414 -0.9642 -1.1868
18385TIP3    H276647   5.944   6.255   0.588  0.6961  0.4180  0.6088
18386TIP3   OH276648   1.382   6.251  16.950 -0.3123  0.1005 -0.2604
18386TIP3    H176649   1.350   6.195  17.022 -0.1430 -0.0021 -0.2670
18386TIP3    H276650   1.403   6.190  16.880 -1.1263  0.2508 -0.6467
18387TIP3   OH276651   4.032   6.810  14.394 -0.1480  0.4643 -0.3595
18387TIP3    H176652   4.106   6.825  14.453 -0.0733  0.0652 -0.3499
18387TIP3    H276653   4.034   6.716  14.376  0.5208  0.7429 -1.9079
18388TIP3   OH276654   1.226   1.572   0.130 -0.4966 -0.3478 -0.1616
18388TIP3    H176655   1.154   1.555   0.191  0.3967 -0.4203  0.8980
18388TIP3    H276656   1.191   1.637   0.070 -1.7711 -1.0780 -0.2604
18389TIP3   OH276657   2.342   0.948  14.752 -0.2931 -0.0692  0.0564
18389TIP3    H176658   2.393   0.966  14.673  3.0529 -1.2357  1.7643
18389TIP3    H276659   2.352   0.854  14.767 -3.4282 -0.4793  0.3234
18390TIP3   OH276660   0.236   3.628   0.739  0.0249 -0.0729 -0.4781
18390TIP3    H176661   0.214   3.567   0.669 -0.0084 -0.2321 -0.3285
18390TIP3    H276662   0.330   3.643   0.729 -0.1233  0.5419 -1.0646
18391TIP3   OH276663   5.927   5.196  11.261 -0.2629 -0.4098 -0.1671
18391TIP3    H176664   6.004   5.140  11.252 -0.4898 -0.5964 -1.0438
18391TIP3    H276665   5.855   5.136  11.278 -0.1052 -0.1771  1.4570
18392TIP3   OH276666   3.491   2.917  16.845  0.5903 -0.2031 -0.2276
18392TIP3    H176667   3.468   2.878  16.929  1.0538  0.6294  0.2962
18392TIP3    H276668   3.448   3.002  16.845  0.6475 -0.1675 -0.8106
18393TIP3   OH276669   2.206   4.070  10.932 -0.4011  0.2498  0.2770
18393TIP3    H176670   2.173   4.087  11.020 -1.7596 -0.6648 -0.0409
18393TIP3    H276671   2.150   4.002  10.897 -0.1921  0.9323 -1.4955
18394TIP3   OH276672   2.558   3.687   3.525  0.5297  0.2220 -0.2283
18394TIP3    H176673   2.570   3.592   3.531  0.8753  0.2420 -0.6148
18394TIP3    H276674   2.469   3.701   3.556  1.0562 -0.0489  1.5062
18395TIP3   OH276675   5.950   2.351   4.547 -0.4873  0.4839 -0.1547
18395TIP3    H176676   5.939   2.284   4.615 -1.8293 -0.4677 -1.2450
18395TIP3    H276677   5.916   2.431   4.587  1.1761  0.5810  1.1842
18396TIP3   OH276678   2.023   6.704   2.736  0.6699  0.0391 -0.1915
18396TIP3    H176679   2.049   6.713   2.644  0.6542 -3.1724 -0.6196
18396TIP3    H276680   2.037   6.611   2.756 -0.0284  0.4890  2.8590
18397TIP3   OH276681   0.419   1.605   4.992 -0.2840  0.0305  0.5774
18397TIP3    H176682   0.504   1.639   4.963 -0.9207  0.0898 -1.4077
18397TIP3    H276683   0.372   1.683   5.021  0.8452 -0.1927  3.3068
18398TIP3   OH276684   0.321   2.845  14.098  0.5679  0.4209 -0.5828
18398TIP3    H176685   0.282   2.929  14.073 -0.6819 -0.1708 -0.6976
18398TIP3    H276686   0.338   2.800  14.015  0.5979  0.2855 -0.5041
18399TIP3   OH276687   1.709   0.039   2.932  0.3717 -0.3059  0.1780
18399TIP3    H176688   1.659  -0.043   2.937  0.3536 -0.2289  1.3697
18399TIP3    H276689   1.787   0.023   2.986  0.8895  0.1106 -0.4298
18400TIP3   OH276690   4.673   6.576   3.157 -0.2572 -0.4232 -0.0218
18400TIP3    H176691   4.712   6.489   3.163  1.4719  0.3150 -0.1331
18400TIP3    H276692   4.666   6.606   3.248  0.1678 -0.2480 -0.0457
18401TIP3   OH276693   6.031   2.101   3.930 -0.1452 -0.3678  0.1745
18401TIP3    H176694   6.109   2.148   3.899 -0.2814  1.4711  2.3655
18401TIP3    H276695   6.046   2.010   3.905  2.7628 -0.0947  0.5910
18402TIP3   OH276696   1.210   0.858  11.381 -0.9879 -0.4666 -0.6199
18402TIP3    H176697   1.288   0.903  11.414  0.1419 -1.4640 -1.8256
18402TIP3    H276698   1.153   0.849  11.457 -0.0322  0.4863  0.2389
18403TIP3   OH276699   0.748   0.231   2.934  0.5067 -0.1332 -0.0114
18403TIP3    H176700   0.840   0.255   2.923  1.1834 -2.2538  0.4275
18403TIP3    H276701   0.720   0.201   2.848  0.5858 -0.5800  0.1163
18404TIP3   OH276702   0.187   0.574  14.421  0.4519 -0.4022  0.3359
18404TIP3    H176703   0.159   0.483  14.431  0.1590 -0.3110  0.3659
18404TIP3    H276704   0.276   0.569  14.387  0.6941 -0.7021  1.0101
18405TIP3   OH276705   4.770   5.244   1.574 -0.3281  0.2443  0.1954
18405TIP3    H176706   4.773   5.339   1.563  1.2785 -0.0308 -2.7359
18405TIP3    H276707   4.717   5.213   1.501 -0.1987 -1.1920  0.6757
18406TIP3   OH276708   0.108   6.254  15.950  0.6587  0.1861  0.0203
18406TIP3    H176709   0.024   6.259  15.906  1.3346  0.4392 -1.3097
18406TIP3    H276710   0.163   6.318  15.904  1.1584  1.1732  1.8656
18407TIP3   OH276711   3.276   1.501   0.556  0.3710 -0.3295  0.2862
18407TIP3    H176712   3.298   1.412   0.527 -0.6485 -1.3501  2.4215
18407TIP3    H276713   3.240   1.543   0.478  2.3427 -1.2207 -1.1965
18408TIP3   OH276714   1.789   0.265   0.270 -0.2641  0.1615  0.0744
18408TIP3    H176715   1.876   0.286   0.237 -0.6324  0.3488 -0.8280
18408TIP3    H276716   1.731   0.327   0.225 -0.9015 -0.1643  0.4272
18409TIP3   OH276717   3.948   0.725  13.657 -0.5134 -0.2957 -0.0041
18409TIP3    H176718   3.978   0.813  13.635 -0.9115 -0.1323  0.0816
18409TIP3    H276719   3.876   0.708  13.596 -0.1953 -0.7105 -0.2654
18410TIP3   OH276720   6.435   0.196   3.517  0.0828 -0.1813 -0.4660
18410TIP3    H176721   6.344   0.227   3.521  0.3617  0.7010 -0.5752
18410TIP3    H276722   6.473   0.227   3.600  0.0483 -1.3738  0.0184
18411TIP3   OH276723   4.263   5.668  15.292 -0.2815  0.4407  0.4513
18411TIP3    H176724   4.293   5.721  15.366  0.6515 -1.1812  1.2800
18411TIP3    H276725   4.171   5.652  15.310 -0.2231  0.6040  0.9206
18412TIP3   OH276726   2.033   6.486   3.683 -0.0920  0.4720 -0.0349
18412TIP3    H176727   2.021   6.554   3.750 -2.9881 -1.6718  1.8829
18412TIP3    H276728   1.977   6.513   3.611 -3.1393 -0.7797  1.6639
18413TIP3   OH276729   4.383   6.499   2.938  0.2629 -0.4541 -0.3435
18413TIP3    H176730   4.411   6.514   3.029 -3.1795 -0.8527  0.9433
18413TIP3    H276731   4.388   6.404   2.927  0.7014 -0.4036 -0.5825
18414TIP3   OH276732   2.648   2.929   1.976  0.0149  0.2028 -0.3728
18414TIP3    H176733   2.589   2.898   2.044  0.3533 -1.3087 -0.7228
18414TIP3    H276734   2.604   3.005   1.938 -0.8396  0.1900  0.5709
18415TIP3   OH276735   0.816   3.285  15.121 -0.3684  0.3038  0.1963
18415TIP3    H176736   0.805   3.194  15.094  1.1421 -0.1697  1.0454
18415TIP3    H276737   0.801   3.284  15.215 -1.4312  1.1604  0.0524
18416TIP3   OH276738   2.260   6.143  14.873 -0.3836  0.1716 -0.2038
18416TIP3    H176739   2.342   6.117  14.915  0.0899 -0.2909 -1.3964
18416TIP3    H276740   2.258   6.094  14.791 -1.7731  0.3093 -0.2726
18417TIP3   OH276741   3.596   3.828  15.977 -0.2414 -0.1795  0.0214
18417TIP3    H176742   3.652   3.844  16.053  1.1477 -2.3052 -0.4829
18417TIP3    H276743   3.627   3.745  15.941 -2.7719 -0.6962 -1.1789
18418TIP3   OH276744   3.287   2.248  12.508 -0.8035 -0.0942 -0.9703
18418TIP3    H176745   3.285   2.175  12.570 -1.1070  0.6471 -0.0912
18418TIP3    H276746   3.374   2.241  12.468 -0.3257 -0.1923  0.0311
18419TIP3   OH276747   0.686   4.502   4.501 -0.3502 -0.0332  0.3822
18419TIP3    H176748   0.650   4.446   4.570 -1.2121 -2.4306 -1.8388
18419TIP3    H276749   0.648   4.468   4.420  0.9016  2.3880 -1.3670
18420TIP3   OH276750   5.836   0.558   1.922  0.4131 -0.4904 -0.2835
18420TIP3    H176751   5.807   0.649   1.927  2.2985  0.2834 -1.9663
18420TIP3    H276752   5.931   0.562   1.927  0.5135 -2.4465  0.2475
18421TIP3   OH276753   4.630   5.104   4.244 -0.5063  1.1148 -0.2822
18421TIP3    H176754   4.708   5.068   4.287 -1.3319 -0.7818 -0.3198
18421TIP3    H276755   4.664   5.144   4.164  0.3560 -0.3908 -0.7020
18422TIP3   OH276756   5.700   0.299  12.553 -0.1382 -0.0380  0.9300
18422TIP3    H176757   5.754   0.220  12.561  0.5897  0.0663 -1.8181
18422TIP3    H276758   5.755   0.359  12.502 -1.3431  1.5968  1.5161
18423TIP3   OH276759   2.917   6.116  10.440  0.1646 -0.2781 -0.7411
18423TIP3    H176760   2.975   6.076  10.505 -0.3078 -1.1822 -0.8557
18423TIP3    H276761   2.916   6.054  10.367 -1.6272 -0.7392 -0.3824
18424TIP3   OH276762   1.109   0.553  13.468  0.4468  0.4462 -0.2034
18424TIP3    H176763   1.164   0.628  13.450  0.7409  0.2528 -0.1126
18424TIP3    H276764   1.082   0.564  13.559  0.1680  0.6465 -0.3092
18425TIP3   OH276765   0.504   4.049   4.357 -0.4642  0.3653 -0.4172
18425TIP3    H176766   0.473   4.084   4.441  0.0473  0.3118 -0.2015
18425TIP3    H276767   0.482   3.956   4.361  2.6076 -0.4394  1.1760
18426TIP3   OH276768   5.013   2.950  13.187  0.1847  0.4562  0.0875
18426TIP3    H176769   5.073   2.945  13.112 -1.2752 -0.8578 -1.0743
18426TIP3    H276770   5.037   2.876  13.242  1.5240  1.6581  1.1728
18427TIP3   OH276771   4.238   0.219  15.535  0.1318 -0.7444 -0.0812
18427TIP3    H176772   4.185   0.185  15.607  0.3689 -0.2304  0.3494
18427TIP3    H276773   4.328   0.196  15.558 -0.0074 -3.1628 -1.6755
18428TIP3   OH276774   6.823   4.315  12.624 -0.0110 -0.3811 -0.2065
18428TIP3    H176775   6.866   4.229  12.615 -0.4615 -0.7774  1.2222
18428TIP3    H276776   6.731   4.294  12.641 -0.5049  0.4387 -1.6485
18429TIP3   OH276777   4.197   3.106  10.894 -0.1290  0.3951 -0.2385
18429TIP3    H176778   4.261   3.054  10.941  0.6250 -0.1387 -1.7803
18429TIP3    H276779   4.249   3.158  10.832 -1.1151  0.3744 -1.1236
18430TIP3   OH276780   5.214   0.797   1.100 -0.3923  0.1379 -0.0750
18430TIP3    H176781   5.302   0.770   1.074 -0.3696 -1.7731  1.7186
18430TIP3    H276782   5.228   0.855   1.174 -0.6092 -1.1290  1.0026
18431TIP3   OH276783   5.829   3.919   2.457 -0.0471  0.0359 -0.3645
18431TIP3    H176784   5.846   3.840   2.406  1.4061  0.8317 -1.1734
18431TIP3    H276785   5.874   3.904   2.540  0.0119 -0.0949 -0.4197
18432TIP3   OH276786   1.689   4.595   6.201 -0.2837 -0.2047  0.0708
18432TIP3    H176787   1.664   4.686   6.187 -2.1868 -0.6218  0.4622
18432TIP3    H276788   1.784   4.596   6.199 -0.2734  1.6811 -0.5843
18433TIP3   OH276789   3.736   1.614   2.373 -0.2759  0.4139 -0.8984
18433TIP3    H176790   3.765   1.542   2.429 -1.3301  1.2551  0.7969
18433TIP3    H276791   3.717   1.573   2.289 -0.6457 -1.2560 -0.0381
18434TIP3   OH276792   6.095   5.935   5.673 -0.1972 -0.1399 -0.6795
18434TIP3    H176793   6.103   5.846   5.707  1.5736  0.7796  1.5447
18434TIP3    H276794   6.116   5.991   5.748 -0.7930  2.1627 -2.1426
18435TIP3   OH276795   1.904   3.812   1.326  0.2086 -0.1113  0.2009
18435TIP3    H176796   1.847   3.831   1.400  1.7251  0.0610  1.3706
18435TIP3    H276797   1.846   3.812   1.250 -1.4850 -0.8958  1.4427
18436TIP3   OH276798   1.402   6.022   4.589  0.1560  0.4735  0.0610
18436TIP3    H176799   1.373   5.934   4.563 -1.6876  1.9006 -3.4657
18436TIP3    H276800   1.350   6.043   4.666 -0.7440 -0.8669 -0.1440
18437TIP3   OH276801   6.504   0.805  14.729 -0.3874  0.2781  0.0544
18437TIP3    H176802   6.464   0.795  14.643  1.1065  1.7645 -0.8754
18437TIP3    H276803   6.439   0.851  14.781 -1.3387 -0.7135 -0.2177
18438TIP3   OH276804   2.493   4.360   1.945  0.5205  1.0014 -0.3581
18438TIP3    H176805   2.463   4.438   1.899 -0.4681  2.3644  2.3316
18438TIP3    H276806   2.566   4.391   2.000  0.8476 -0.2198 -0.0663
18439TIP3   OH276807   1.756   5.963  15.058 -0.0951 -0.1717 -0.2398
18439TIP3    H176808   1.724   5.899  14.995 -0.3538  0.0942 -0.3815
18439TIP3    H276809   1.839   5.927  15.089 -0.0965 -0.4324 -0.5346
18440TIP3   OH276810   5.827   4.913  14.320  0.1659  0.1210 -0.0813
18440TIP3    H176811   5.765   4.860  14.370  1.6155 -0.7773  0.8574
18440TIP3    H276812   5.912   4.892  14.359  0.9228  2.2741 -0.4780
18441TIP3   OH276813   3.654   2.777  13.085  0.2322  0.2309  0.2146
18441TIP3    H176814   3.584   2.741  13.139 -0.2489  3.8332  2.2521
18441TIP3    H276815   3.627   2.755  12.995 -1.1428 -2.2591  1.1233
18442TIP3   OH276816   1.683   5.942  16.303  0.0523 -0.2849 -0.0441
18442TIP3    H176817   1.758   5.896  16.266  0.7580  0.3244  0.5924
18442TIP3    H276818   1.645   5.989  16.230 -0.6117 -1.7612 -0.6837
18443TIP3   OH276819   0.299   1.479  14.516 -0.4971  0.0318  0.5285
18443TIP3    H176820   0.309   1.391  14.479 -3.8527 -0.7508  1.1661
18443TIP3    H276821   0.265   1.465  14.604 -1.0716  1.9712  0.6680
18444TIP3   OH276822   5.054   2.991   3.870  0.1437 -0.7378 -0.1578
18444TIP3    H176823   5.028   2.908   3.831  0.7200 -1.9622  1.9268
18444TIP3    H276824   5.130   2.970   3.925  1.6158  1.5467 -1.1332
18445TIP3   OH276825   3.967   3.179   1.328  0.3053  0.3465  0.8112
18445TIP3    H176826   3.902   3.222   1.272 -0.6541  0.2066  1.7734
18445TIP3    H276827   3.977   3.092   1.289  0.0866  0.4456  0.5207
18446TIP3   OH276828   4.422   0.243  12.013 -0.1372  0.3022 -0.3935
18446TIP3    H176829   4.407   0.239  11.918  1.0002  0.1110 -0.5892
18446TIP3    H276830   4.516   0.225  12.022 -0.8039 -3.2877  1.0192
18447TIP3   OH276831   2.555   6.217   0.283 -0.6780  0.4135  0.7184
18447TIP3    H176832   2.554   6.179   0.371 -0.9804  0.8709  0.9170
18447TIP3    H276833   2.463   6.231   0.262 -0.5681  1.2025  0.7254
18448TIP3   OH276834   0.583   4.445   5.967  0.3356 -0.0055 -0.5552
18448TIP3    H176835   0.620   4.429   6.053  1.4577 -1.2766 -1.2471
18448TIP3    H276836   0.545   4.533   5.973 -0.8203 -0.5941  1.6194
18449TIP3   OH276837   2.626   0.319   0.789  0.7731 -0.1060 -0.2850
18449TIP3    H176838   2.677   0.375   0.730  0.0308  0.1198 -0.7340
18449TIP3    H276839   2.597   0.378   0.859 -0.7466  0.2997 -1.2208
18450TIP3   OH276840   4.267   6.800   3.846  0.5183  0.8997  0.2588
18450TIP3    H176841   4.323   6.750   3.906 -0.6508 -1.3638 -0.4148
18450TIP3    H276842   4.300   6.778   3.759 -0.6558  0.4674 -0.0936
18451TIP3   OH276843   5.282   6.165  13.513 -0.1347 -0.2857 -0.7145
18451TIP3    H176844   5.294   6.103  13.585  1.4204  2.9777  2.1564
18451TIP3    H276845   5.368   6.204  13.500 -0.9575  1.0485 -2.5789
18452TIP3   OH276846   3.510   6.432   6.256 -0.2821 -0.5268 -0.1439
18452TIP3    H176847   3.587   6.376   6.247  0.6575  0.2490  2.2566
18452TIP3    H276848   3.448   6.379   6.307  0.6498  0.4942  2.2271
18453TIP3   OH276849   1.367   5.334   3.810  0.1955 -0.1789 -0.0441
18453TIP3    H176850   1.283   5.359   3.850  0.0752  0.6790 -0.8118
18453TIP3    H276851   1.342   5.280   3.735  0.2674  0.9109 -0.8743
18454TIP3   OH276852   5.097   5.306   2.896 -0.3748  0.4512  0.1415
18454TIP3    H176853   5.008   5.319   2.929 -1.4079  0.7873 -2.5105
18454TIP3    H276854   5.144   5.386   2.919 -0.9244  0.5204  1.0481
18455TIP3   OH276855   0.265   2.758  11.688 -0.3282 -0.1311  0.0637
18455TIP3    H176856   0.274   2.852  11.674 -0.9256 -0.1028 -0.1319
18455TIP3    H276857   0.319   2.740  11.765 -0.1951  0.3672  0.0879
18456TIP3   OH276858   1.690   3.677  13.446 -0.6506  0.2374  0.5028
18456TIP3    H176859   1.601   3.643  13.445 -0.5356 -0.0766  0.6041
18456TIP3    H276860   1.705   3.704  13.537  0.0419 -1.6009  0.9885
18457TIP3   OH276861   1.262   0.613  10.463 -0.0594 -0.6378  0.3513
18457TIP3    H176862   1.210   0.610  10.383  0.0779 -0.2392  0.2461
18457TIP3    H276863   1.253   0.525  10.501 -0.3098 -0.7569  0.0195
18458TIP3   OH276864   6.630   3.137  11.830 -0.7736 -0.5168 -0.0202
18458TIP3    H176865   6.588   3.095  11.905  0.3882 -0.4366  0.7099
18458TIP3    H276866   6.668   3.217  11.866  0.8847 -1.0858 -0.3877
18459TIP3   OH276867   1.314   2.818   3.030 -0.0462 -0.6984 -0.2948
18459TIP3    H176868   1.315   2.905   2.990  0.4438 -1.7606 -2.7678
18459TIP3    H276869   1.223   2.789   3.020  0.1152 -1.0331 -0.8225
18460TIP3   OH276870   4.238   2.473  14.652  0.5593  0.4190 -0.6057
18460TIP3    H176871   4.331   2.459  14.667  0.3583 -0.3373  0.0489
18460TIP3    H276872   4.209   2.527  14.726  0.0231 -1.3713  0.5605
18461TIP3   OH276873   1.882   4.598   5.105 -0.1460 -0.7200  0.3396
18461TIP3    H176874   1.928   4.590   5.022 -0.8223 -0.2577 -0.0905
18461TIP3    H276875   1.951   4.613   5.169  0.3067  0.0078 -0.2980
18462TIP3   OH276876   4.185   2.704  16.945  0.3100 -0.0398 -0.4893
18462TIP3    H176877   4.149   2.790  16.923 -1.5674 -0.4797  0.6362
18462TIP3    H276878   4.225   2.716  17.031 -0.0531 -0.3250 -0.2818
18463TIP3   OH276879   4.219   3.113  15.247 -0.2864  0.4016  0.8917
18463TIP3    H176880   4.218   3.176  15.175  0.9621  2.0648  2.2436
18463TIP3    H276881   4.173   3.037  15.213 -1.5122  1.8800 -0.9710
18464TIP3   OH276882   6.024   4.912  11.693 -0.7555 -0.0574  0.2775
18464TIP3    H176883   6.043   4.975  11.763 -2.7604  0.6797  0.2308
18464TIP3    H276884   6.110   4.888  11.659  0.2176  0.5180  2.1516
18465TIP3   OH276885   3.219   2.902   0.710  0.0739  0.4371 -0.5147
18465TIP3    H176886   3.127   2.875   0.704  0.1325 -0.4958  1.7589
18465TIP3    H276887   3.219   2.973   0.774  1.1924 -1.4079  1.6542
18466TIP3   OH276888   6.215   5.484  16.985  0.2734 -0.1499 -0.1184
18466TIP3    H176889   6.172   5.423  17.045  1.1708  0.4313  1.1429
18466TIP3    H276890   6.199   5.571  17.022  0.7217  0.2295 -0.7911
18467TIP3   OH276891   6.608   4.648  13.308 -0.0108 -0.4385 -0.1069
18467TIP3    H176892   6.696   4.686  13.311 -0.7803  1.4256  1.3886
18467TIP3    H276893   6.568   4.674  13.391 -1.6631 -2.0895 -0.3128
18468TIP3   OH276894   0.128   1.872   3.694 -1.0367  0.3069  0.4725
18468TIP3    H176895   0.210   1.826   3.679 -1.6462 -0.4403 -0.7503
18468TIP3    H276896   0.121   1.878   3.790  0.0168 -0.3712  0.6094
18469TIP3   OH276897   1.220   5.747   1.826  0.6515 -0.4351 -0.1831
18469TIP3    H176898   1.173   5.663   1.832  1.4791 -1.0132 -1.3375
18469TIP3    H276899   1.205   5.777   1.736  2.0393 -0.3963 -0.4346
18470TIP3   OH276900   4.679   0.276   5.957 -0.3712  0.6771 -0.0204
18470TIP3    H176901   4.604   0.217   5.969 -1.3742  1.4433 -2.0621
18470TIP3    H276902   4.711   0.292   6.046  0.4566 -3.4869  0.6546
18471TIP3   OH276903   5.646   5.531   2.804 -0.6316 -0.6396 -0.4177
18471TIP3    H176904   5.567   5.579   2.777 -0.1637  1.1618  1.1275
18471TIP3    H276905   5.612   5.455   2.851 -1.4789 -0.2272 -0.3307
18472TIP3   OH276906   4.171   6.607   3.542  0.2669  0.6864  0.7008
18472TIP3    H176907   4.123   6.535   3.501 -0.4260  0.1651  2.3453
18472TIP3    H276908   4.145   6.684   3.492  0.0161 -0.0137 -0.2787
18473TIP3   OH276909   4.402   6.523   3.263 -0.2892  0.1201  0.2004
18473TIP3    H176910   4.484   6.511   3.215 -0.3242  0.1593  0.1314
18473TIP3    H276911   4.428   6.517   3.355 -0.1348  0.5703  0.1890
18474TIP3   OH276912   4.810   4.537   2.904 -0.0277  0.1748 -0.4263
18474TIP3    H176913   4.826   4.626   2.871  1.3341 -1.2125 -3.8959
18474TIP3    H276914   4.888   4.517   2.956 -0.3375  0.9388  0.3711
18475TIP3   OH276915   4.573   2.705  12.619 -0.3952  0.3006  0.3124
18475TIP3    H176916   4.620   2.645  12.677 -1.0695  0.3431  0.9128
18475TIP3    H276917   4.636   2.726  12.550  0.5120  0.4578  1.1675
18476TIP3   OH276918   1.821   3.110  16.367  0.7464  0.8589  0.0679
18476TIP3    H176919   1.779   3.024  16.367  1.6281  0.4132 -0.4002
18476TIP3    H276920   1.806   3.144  16.456  1.4966 -0.3371  0.6752
18477TIP3   OH276921   3.299   1.763   0.633  0.7482  0.7448  0.2454
18477TIP3    H176922   3.294   1.667   0.641  2.8495  0.5714  0.0434
18477TIP3    H276923   3.209   1.790   0.619  0.3230 -1.4090 -1.7953
18478TIP3   OH276924   6.719   0.603  12.108  0.0490  0.7199  0.5782
18478TIP3    H176925   6.642   0.583  12.161  1.5160 -0.3567  2.3967
18478TIP3    H276926   6.705   0.554  12.027 -1.0588  0.3679  0.9665
18479TIP3   OH276927   0.502   4.359   5.138  0.3812 -0.1675  0.0523
18479TIP3    H176928   0.419   4.356   5.091  1.4728 -2.1402 -1.9304
18479TIP3    H276929   0.520   4.453   5.149  0.0114  0.4852 -3.5634
18480TIP3   OH276930   2.407   5.083   1.822 -0.2215  0.1410  0.3547
18480TIP3    H176931   2.423   4.998   1.782 -0.8585 -0.0154  0.4319
18480TIP3    H276932   2.367   5.136   1.754  0.3208  0.4399  0.2563
18481TIP3   OH276933   5.776   6.368   2.202  0.6522 -0.2301 -0.3536
18481TIP3    H176934   5.766   6.392   2.110 -1.5396 -0.6055 -0.2726
18481TIP3    H276935   5.771   6.273   2.203 -2.1489 -0.1751  0.3220
18482TIP3   OH276936   4.097   3.300   2.471 -0.2178 -0.3424 -0.4460
18482TIP3    H176937   4.053   3.217   2.490 -1.2017 -0.5805 -3.2980
18482TIP3    H276938   4.068   3.358   2.542 -2.0071 -1.5826 -0.0753
18483TIP3   OH276939   4.706   5.031  16.959 -0.0098  0.2902  0.1206
18483TIP3    H176940   4.656   5.109  16.935 -1.1838 -0.1217  1.1332
18483TIP3    H276941   4.797   5.054  16.940 -0.5834  0.9468 -2.0902
18484TIP3   OH276942   6.349   2.547   3.745 -0.2235 -0.9721  0.5321
18484TIP3    H176943   6.440   2.526   3.767  0.0388  0.3265  0.7503
18484TIP3    H276944   6.309   2.572   3.828  0.1720  1.7846 -0.0180
18485TIP3   OH276945   5.597   4.149   2.679 -0.2324  0.2442 -0.2801
18485TIP3    H176946   5.572   4.137   2.771  1.1246 -2.8212 -0.1775
18485TIP3    H276947   5.584   4.242   2.662 -2.4161  0.5513  2.4245
18486TIP3   OH276948   0.643   5.236  16.089  0.7227  0.2568 -0.2455
18486TIP3    H176949   0.668   5.144  16.098  1.1236  0.4229  0.4231
18486TIP3    H276950   0.712   5.274  16.033  0.5175  0.1362 -0.5807
18487TIP3   OH276951   2.903   1.423  12.812  0.1489 -0.1801 -0.0757
18487TIP3    H176952   2.867   1.410  12.725 -0.7131  0.1689  0.2229
18487TIP3    H276953   2.965   1.495  12.802  0.9993 -0.9548 -0.6391
18488TIP3   OH276954   4.738   5.369  16.859  0.3347 -0.3441 -0.0805
18488TIP3    H176955   4.679   5.329  16.795 -0.0726  0.1771 -0.0366
18488TIP3    H276956   4.798   5.422  16.807  0.9931 -1.1469 -0.1553
18489TIP3   OH276957   0.395   2.086  11.756  0.2123  0.1534 -0.5989
18489TIP3    H176958   0.479   2.126  11.777 -0.2621  0.4289  0.8591
18489TIP3    H276959   0.418   2.010  11.701  1.3743  0.3950 -0.4741
18490TIP3   OH276960   5.774   6.742  12.019  0.0993  0.2176 -0.1263
18490TIP3    H176961   5.729   6.787  11.947  0.2643  0.2853 -0.1886
18490TIP3    H276962   5.841   6.690  11.975  0.5397  0.6573  0.0122
18491TIP3   OH276963   1.695   0.085   2.520 -0.2598 -0.3675  0.7462
18491TIP3    H176964   1.749   0.142   2.466  0.3074  0.3827  2.0565
18491TIP3    H276965   1.731   0.095   2.609 -1.2055 -1.4914  1.2805
18492TIP3   OH276966   3.325   0.830  12.830  0.7220  0.2764  0.2701
18492TIP3    H176967   3.297   0.903  12.775  1.2372  0.3474  0.0975
18492TIP3    H276968   3.322   0.864  12.919  1.9225  0.8383  0.1188
18493TIP3   OH276969   6.567   1.787  15.749 -0.0036  0.3760 -0.1685
18493TIP3    H176970   6.529   1.716  15.801 -0.7345 -0.4751 -1.7916
18493TIP3    H276971   6.643   1.816  15.800 -1.2257  0.2674  1.8350
18494TIP3   OH276972   3.956   2.050   1.091  0.2420  0.2938  0.3883
18494TIP3    H176973   4.001   2.123   1.134 -1.0484  0.9774  0.6199
18494TIP3    H276974   3.877   2.038   1.143 -0.1815 -0.4379 -0.4154
18495TIP3   OH276975   2.782   1.246   0.933 -0.1721 -0.3774  0.2740
18495TIP3    H176976   2.704   1.241   0.987 -1.0658  2.1111 -0.6525
18495TIP3    H276977   2.750   1.237   0.843  0.7454 -0.2834 -0.0772
18496TIP3   OH276978   4.799   6.431  17.197  0.3448 -0.6541  0.1088
18496TIP3    H176979   4.776   6.371  17.268 -0.3955  0.3170  0.7214
18496TIP3    H276980   4.742   6.507  17.211  0.5235 -0.2524 -1.2613
18497TIP3   OH276981   0.477   5.554   5.626 -0.6240 -0.4793  0.5083
18497TIP3    H176982   0.525   5.483   5.583 -0.0165  0.8903 -1.2330
18497TIP3    H276983   0.504   5.549   5.718  2.2054 -0.3939 -0.1979
18498TIP3   OH276984   1.565   5.488  14.773 -0.5863  0.1288 -0.1263
18498TIP3    H176985   1.517   5.557  14.728 -2.5714 -1.1923 -0.1793
18498TIP3    H276986   1.510   5.465  14.847 -0.0798 -1.5157 -0.2185
18499TIP3   OH276987   1.619   3.697   6.164 -0.7296  0.3719 -0.1798
18499TIP3    H176988   1.557   3.760   6.201 -0.5405  1.8294 -2.2107
18499TIP3    H276989   1.680   3.750   6.112 -1.3165 -1.5182 -3.0426
18500TIP3   OH276990   2.387   0.006  14.475 -0.4098  0.1250 -0.3056
18500TIP3    H176991   2.424  -0.057  14.536  0.4966 -0.6362 -1.5880
18500TIP3    H276992   2.295  -0.020  14.466 -0.5844  0.3330  0.8101
18501TIP3   OH276993   1.608   0.354  16.158  0.0654 -0.0844 -0.1885
18501TIP3    H176994   1.688   0.360  16.107  1.2342  1.1220  1.6387
18501TIP3    H276995   1.555   0.288  16.114  0.9531  0.9141 -2.9174
18502TIP3   OH276996   4.022   4.174   4.012  0.1124 -0.0909  0.2214
18502TIP3    H176997   3.974   4.101   4.051  1.7504 -2.4935 -1.9338
18502TIP3    H276998   3.988   4.180   3.923  0.2717  1.5937  0.2463
18503TIP3   OH276999   2.642   3.581   0.957  0.3116 -0.3975 -0.6978
18503TIP3    H177000   2.614   3.493   0.984  1.7441 -1.6327 -2.9979
18503TIP3    H277001   2.575   3.639   0.994 -0.7428 -2.4309  0.7920
18504TIP3   OH277002   2.686   1.788  12.977  0.3136  0.3110 -1.1289
18504TIP3    H177003   2.603   1.822  13.012  0.7678  0.1518  0.1527
18504TIP3    H277004   2.661   1.712  12.926 -0.3074  0.0171 -0.4118
18505TIP3   OH277005   6.398   4.732   1.727 -0.0660 -0.0387 -0.2832
18505TIP3    H177006   6.456   4.702   1.797 -0.2845  0.2841  0.0419
18505TIP3    H277007   6.415   4.673   1.654  1.3794  0.6320 -0.5260
18506TIP3   OH277008   5.937   1.350   4.734  0.1703 -0.4071  0.6443
18506TIP3    H177009   5.882   1.305   4.798 -0.2153 -0.5506  0.2147
18506TIP3    H277010   6.010   1.290   4.718  0.2350 -0.3976  0.9023
18507TIP3   OH277011   4.629   6.453  15.475  0.0756 -0.4674  0.0402
18507TIP3    H177012   4.627   6.375  15.531 -0.1892 -0.6330 -0.1970
18507TIP3    H277013   4.721   6.475  15.469  0.1486 -0.7318  0.1549
18508TIP3   OH277014   2.535   6.578  15.942  0.5039  0.1942  0.0558
18508TIP3    H177015   2.499   6.506  15.993  1.3946  0.3960  1.0199
18508TIP3    H277016   2.564   6.538  15.860  0.0468 -0.3389  0.1522
18509TIP3   OH277017   3.223   4.966  17.045  0.7569  0.1235  0.1199
18509TIP3    H177018   3.289   4.964  17.115  1.2067 -0.7091 -0.3044
18509TIP3    H277019   3.189   4.876  17.043 -0.9361  0.7097  0.8236
18510TIP3   OH277020   6.245   0.169   2.235  0.5299 -0.1306 -0.6364
18510TIP3    H177021   6.261   0.257   2.202 -0.9442  0.1109 -0.8067
18510TIP3    H277022   6.156   0.174   2.271 -0.0466 -1.8355 -1.7113
18511TIP3   OH277023   0.094   2.883  13.505 -0.1554 -0.0124 -0.0839
18511TIP3    H177024   0.026   2.912  13.566  0.9553 -2.0442  2.3434
18511TIP3    H277025   0.050   2.817  13.451 -0.4700 -0.3019  0.5129
18512TIP3   OH277026   6.689   2.529  10.929  0.1592  0.4401 -0.2507
18512TIP3    H177027   6.676   2.533  10.835  1.4761 -0.2515 -0.4766
18512TIP3    H277028   6.773   2.485  10.941 -0.4146 -0.3537  1.2602
18513TIP3   OH277029   1.235   5.860  13.191  0.4025 -0.5366  0.2361
18513TIP3    H177030   1.319   5.858  13.144  0.4037 -0.9087  0.2464
18513TIP3    H277031   1.169   5.848  13.123  0.4161 -1.3074  0.3440
18514TIP3   OH277032   5.193   5.677  10.503 -0.8950 -0.0795 -0.1923
18514TIP3    H177033   5.280   5.667  10.463 -1.5247 -1.0795 -1.3822
18514TIP3    H277034   5.155   5.589  10.500 -1.9840  0.3541  0.2669
18515TIP3   OH277035   2.804   1.249  16.801 -0.0598 -0.0761 -0.6770
18515TIP3    H177036   2.735   1.272  16.738 -2.5731 -1.0032  1.5506
18515TIP3    H277037   2.758   1.239  16.884  2.5391 -2.4093  0.6381
18516TIP3   OH277038   4.670   4.136   6.216 -0.1278 -0.2775  0.0419
18516TIP3    H177039   4.711   4.216   6.247 -0.6134  0.1008 -0.2687
18516TIP3    H277040   4.643   4.090   6.295  0.6370 -0.3977  0.2367
18517TIP3   OH277041   4.891   1.677   1.401 -0.4465 -0.0676  0.0393
18517TIP3    H177042   4.951   1.749   1.422 -2.0145  1.4347 -0.4322
18517TIP3    H277043   4.880   1.682   1.306 -0.0717 -1.3622 -0.0857
18518TIP3   OH277044   2.397   4.837  11.111 -0.2612  0.1085  0.0426
18518TIP3    H177045   2.376   4.751  11.146  2.0076 -0.7429 -0.5111
18518TIP3    H277046   2.402   4.824  11.016 -1.2682  1.1955 -0.1832
18519TIP3   OH277047   3.786   5.939   3.844  0.2537  0.6575  0.0823
18519TIP3    H177048   3.716   5.916   3.783  0.4463  0.5669 -0.1087
18519TIP3    H277049   3.758   6.021   3.884  0.8631  1.5808 -1.3080
18520TIP3   OH277050   1.570   5.748   5.200  0.5870 -0.3102  0.5439
18520TIP3    H177051   1.505   5.782   5.139  1.1361 -0.6177 -0.2198
18520TIP3    H277052   1.641   5.812   5.197  1.0424 -0.8348  0.1134
18521TIP3   OH277053   3.573   5.325   4.717 -0.3461 -0.0137  0.3882
18521TIP3    H177054   3.498   5.302   4.771  1.4999 -1.5953  2.4559
18521TIP3    H277055   3.641   5.262   4.742  1.8037  1.5498 -1.1428
18522TIP3   OH277056   2.699   0.460   4.630  0.2780 -0.1772  1.2853
18522TIP3    H177057   2.650   0.519   4.574 -0.4945  0.4958  2.6099
18522TIP3    H277058   2.782   0.446   4.585 -0.1025  0.7675  0.2597
18523TIP3   OH277059   5.202   1.964  14.030  0.2208 -0.3567 -0.1745
18523TIP3    H177060   5.112   1.981  14.058  0.2191 -0.9105  0.1718
18523TIP3    H277061   5.203   1.987  13.937  0.2624  1.6287  0.2761
18524TIP3   OH277062   0.082   0.758  11.654 -0.2185  0.5750 -0.4665
18524TIP3    H177063  -0.008   0.744  11.625 -0.7862 -0.1922  1.4769
18524TIP3    H277064   0.131   0.778  11.574 -1.7211 -0.9878 -1.8401
18525TIP3   OH277065   0.229   1.173  15.882  0.3427 -0.2514 -0.1199
18525TIP3    H177066   0.305   1.156  15.826 -0.8117  0.9635 -2.1846
18525TIP3    H277067   0.159   1.121  15.844 -0.0100 -1.1117  1.5760
18526TIP3   OH277068   0.336   2.882  12.064 -0.0475 -0.0263  0.1259
18526TIP3    H177069   0.246   2.898  12.036  0.5131 -0.5109 -2.1684
18526TIP3    H277070   0.390   2.914  11.992  1.5340 -1.4769  0.5874
18527TIP3   OH277071   5.025   1.285  12.286  0.0964 -0.2843  0.1042
18527TIP3    H177072   5.036   1.213  12.224  1.8524  0.8396 -0.9545
18527TIP3    H277073   4.937   1.319  12.268  0.5136 -0.0603 -1.7281
18528TIP3   OH277074   2.645   0.884  12.401  0.2525 -0.3779  0.4534
18528TIP3    H177075   2.584   0.854  12.469  0.6863 -1.6358  0.3154
18528TIP3    H277076   2.611   0.969  12.374 -1.9335 -1.3567 -0.1552
18529TIP3   OH277077   6.273   1.317  13.124  0.2655 -0.0975  0.3327
18529TIP3    H177078   6.237   1.384  13.183  1.3343  0.9489 -0.1489
18529TIP3    H277079   6.357   1.293  13.162  0.9697  0.5883 -0.7178
18530TIP3   OH277080   2.581   6.381  17.099  0.1884 -0.1609  0.2263
18530TIP3    H177081   2.586   6.426  17.015 -2.0547 -0.3008 -0.0257
18530TIP3    H277082   2.618   6.444  17.161 -1.1294  1.3218 -0.4004
18531TIP3   OH277083   4.574   1.773  13.396 -0.4097  0.7911  0.0521
18531TIP3    H177084   4.522   1.831  13.340 -0.0955  0.3871 -0.6821
18531TIP3    H277085   4.569   1.812  13.483 -0.9195  1.4340 -0.2568
18532TIP3   OH277086   1.340   4.298   4.121  0.2540 -0.2233 -0.2808
18532TIP3    H177087   1.326   4.203   4.113 -0.0197 -0.0578 -2.1160
18532TIP3    H277088   1.291   4.336   4.048 -2.0440  1.6020  2.0081
18533TIP3   OH277089   5.447   1.024  16.690 -0.1778  0.2001 -0.1989
18533TIP3    H177090   5.364   1.069  16.675  0.2922  0.5704 -1.8358
18533TIP3    H277091   5.426   0.931  16.683 -0.6274  0.2443  0.4263
18534TIP3   OH277092   1.042   0.727   1.713 -0.3319 -0.0843 -0.3420
18534TIP3    H177093   1.046   0.758   1.623  1.6582  1.5656  0.2335
18534TIP3    H277094   1.065   0.804   1.766  0.8099 -1.5508  1.4359
18535TIP3   OH277095   0.141   5.591   5.184  0.6703  0.6924  0.7002
18535TIP3    H177096   0.051   5.566   5.163  1.2333 -3.1213  1.9904
18535TIP3    H277097   0.140   5.607   5.278  1.7173 -2.3103  1.3384
18536TIP3   OH277098   6.500   2.064  16.030 -0.2116  0.1017  0.0804
18536TIP3    H177099   6.516   2.120  15.954  1.4709 -1.1060 -0.5051
18536TIP3    H277100   6.547   2.107  16.101 -0.6918  0.5355  0.1410
18537TIP3   OH277101   3.096   3.932   0.733  0.2939 -0.5625  0.2717
18537TIP3    H177102   3.068   3.984   0.808 -1.8835 -1.4797  0.1464
18537TIP3    H277103   3.043   3.964   0.660  1.2569 -0.7640 -0.5466
18538TIP3   OH277104   4.830   1.400   5.652  0.0011 -0.4502  0.2883
18538TIP3    H177105   4.760   1.346   5.687  0.2291 -2.6013 -2.2392
18538TIP3    H277106   4.910   1.362   5.688  0.0393  0.2777  1.0094
18539TIP3   OH277107   2.872   4.811   1.284  0.2392  0.3094  0.0316
18539TIP3    H177108   2.830   4.853   1.209  2.8331  1.0351 -1.1291
18539TIP3    H277109   2.802   4.804   1.349 -1.3291  2.7037 -1.2182
18540TIP3   OH277110   4.766   6.137  11.154 -0.2682 -0.1085 -0.2632
18540TIP3    H177111   4.742   6.207  11.093 -3.6120 -0.7375  0.1256
18540TIP3    H277112   4.817   6.181  11.222 -1.7939  1.9186 -0.3154
18541TIP3   OH277113   1.247   3.370  15.610 -0.5537 -0.3546  0.4782
18541TIP3    H177114   1.296   3.318  15.674  0.1670  1.8797  1.8744
18541TIP3    H277115   1.237   3.456  15.652 -2.3022  0.4354 -1.4012
18542TIP3   OH277116   2.059   0.042   2.196 -0.1121 -0.0388  0.3390
18542TIP3    H177117   2.007   0.091   2.132 -1.1071  0.9841  1.8857
18542TIP3    H277118   2.149   0.073   2.182 -0.1759 -0.4413 -1.0970
18543TIP3   OH277119   4.880   4.712   0.241  0.0603 -0.3297  0.4374
18543TIP3    H177120   4.888   4.646   0.172  0.0206 -0.3374  0.4403
18543TIP3    H277121   4.914   4.792   0.202  0.5873 -0.4712  0.6003
18544TIP3   OH277122   2.888   4.930  12.662  0.1764  0.3000 -0.1993
18544TIP3    H177123   2.832   5.008  12.652  0.0563  0.2038 -0.2906
18544TIP3    H277124   2.900   4.899  12.572 -1.7407 -1.1661 -0.0084
18545TIP3   OH277125   2.531   4.140   4.397  0.1925  0.5938  0.2040
18545TIP3    H177126   2.500   4.066   4.449 -1.3405  1.2949  0.3695
18545TIP3    H277127   2.605   4.106   4.348 -0.1547 -0.9070  0.6651
18546TIP3   OH277128   2.148   3.557   5.016  0.2786 -0.0060  0.3940
18546TIP3    H177129   2.189   3.557   5.103 -0.9522 -1.0609  1.0127
18546TIP3    H277130   2.061   3.520   5.031 -0.8699  2.0134 -0.9031
18547TIP3   OH277131   1.682   4.133   5.945  0.4576 -0.2143  0.5305
18547TIP3    H177132   1.720   4.127   5.857  0.0754  0.9025  0.2844
18547TIP3    H277133   1.611   4.068   5.944  0.2220  0.0430 -0.1040
18548TIP3   OH277134   5.464   4.420  16.039 -0.5243 -0.3947 -0.5752
18548TIP3    H177135   5.461   4.490  16.105 -0.0188  0.3181 -1.2949
18548TIP3    H277136   5.488   4.341  16.089 -0.2884  0.1073  0.1198
18549TIP3   OH277137   6.064   4.526  16.169  0.2414 -0.1600 -0.4435
18549TIP3    H177138   5.980   4.568  16.150  0.1195  0.7169  1.7915
18549TIP3    H277139   6.042   4.434  16.187 -0.1606 -0.0559 -0.3982
18550TIP3   OH277140   3.863   3.868   3.890 -0.6730 -0.1852 -0.2008
18550TIP3    H177141   3.881   3.775   3.874  0.9181  0.4348 -2.4262
18550TIP3    H277142   3.896   3.883   3.979  2.7517 -0.9425 -1.2133
18551TIP3   OH277143   0.745   1.145  12.888  0.5660  0.0245  0.1186
18551TIP3    H177144   0.830   1.160  12.846  0.0015  2.0521 -0.4268
18551TIP3    H277145   0.681   1.179  12.825 -0.7629 -2.2774  0.1180
18552TIP3   OH277146   2.199   2.200  13.485  0.3300  1.0151 -0.0195
18552TIP3    H177147   2.219   2.261  13.415  0.1016  1.1266  0.0102
18552TIP3    H277148   2.130   2.143  13.450  0.9738  0.3793 -0.2619
18553TIP3   OH277149   2.958   3.587  14.880  0.0533 -0.0213  0.1675
18553TIP3    H177150   2.931   3.671  14.843  0.4905  0.6947  1.3927
18553TIP3    H277151   3.034   3.561  14.828 -1.5972 -0.9844 -1.8998
18554TIP3   OH277152   0.016   1.827  12.405 -0.3317 -0.3837 -0.2544
18554TIP3    H177153   0.046   1.914  12.431 -0.7103 -0.2859 -0.1270
18554TIP3    H277154   0.016   1.776  12.486  2.1076 -1.2020 -0.6883
18555TIP3   OH277155   2.322   3.375  15.124 -0.5020  0.0898 -0.6609
18555TIP3    H177156   2.413   3.350  15.140 -0.8338 -1.4538 -0.9797
18555TIP3    H277157   2.308   3.453  15.177  0.1401 -1.3943  1.8549
18556TIP3   OH277158   1.540   2.805  10.646 -0.0593 -0.1387 -0.3527
18556TIP3    H177159   1.450   2.808  10.677  0.3021  0.5156  0.7092
18556TIP3    H277160   1.592   2.837  10.720  1.0439 -0.4774 -0.9492
18557TIP3   OH277161   0.928   1.538  15.789  0.2645 -0.0129 -0.0404
18557TIP3    H177162   0.875   1.499  15.858 -0.5098 -0.1613 -0.7069
18557TIP3    H277163   1.012   1.557  15.831 -0.3279  0.2794  1.0483
18558TIP3   OH277164   6.248   0.363  14.536 -0.3154  0.1789  0.0099
18558TIP3    H177165   6.276   0.446  14.498 -0.5961  0.1200 -0.3275
18558TIP3    H277166   6.164   0.382  14.578  0.0809  0.2886  0.7806
18559TIP3   OH277167   6.300   4.997  12.131  0.3634  0.0629 -0.0990
18559TIP3    H177168   6.313   5.069  12.069  1.6514 -0.0745 -0.0317
18559TIP3    H277169   6.357   5.019  12.205  0.9231 -1.1027 -0.1543
18560TIP3   OH277170   2.627   3.350  15.676  0.2017 -0.3915  0.0025
18560TIP3    H177171   2.630   3.311  15.589 -0.0420  1.2744 -0.7836
18560TIP3    H277172   2.591   3.438  15.662  1.1465  0.2960  1.6255
18561TIP3   OH277173   6.774   4.855  17.172  0.0059  0.2874 -0.5278
18561TIP3    H177174   6.760   4.948  17.188  1.4922  0.6809 -1.3485
18561TIP3    H277175   6.866   4.840  17.192 -0.4548 -1.2734  0.6524
18562TIP3   OH277176   1.713   4.365   1.089 -0.7170 -0.0242  0.3341
18562TIP3    H177177   1.787   4.344   1.032 -0.4073  2.0466 -0.1279
18562TIP3    H277178   1.644   4.392   1.028 -1.0870  0.2207  0.8569
18563TIP3   OH277179   2.860   3.449   2.922  0.1696 -0.1019 -0.1186
18563TIP3    H177180   2.942   3.456   2.971 -0.4326  2.2884  0.6647
18563TIP3    H277181   2.852   3.531   2.874 -2.6968  0.6930  1.4462
18564TIP3   OH277182   4.647   4.887  10.934 -0.4124 -0.0131 -0.4046
18564TIP3    H177183   4.649   4.872  10.840  0.7747 -2.0676 -0.1317
18564TIP3    H277184   4.719   4.833  10.968 -1.7436 -0.5344  1.8055
18565TIP3   OH277185   2.125   4.330  13.223  0.9427 -0.4826 -0.5255
18565TIP3    H177186   2.035   4.307  13.245  1.4395 -0.3689  1.7976
18565TIP3    H277187   2.117   4.385  13.145 -0.9611 -0.7126 -0.5423
18566TIP3   OH277188   5.831   5.562  11.645 -0.3344  0.5902  0.1877
18566TIP3    H177189   5.799   5.485  11.599 -0.5528  0.7346  0.0985
18566TIP3    H277190   5.927   5.553  11.642 -0.3296 -0.8898  2.2270
18567TIP3   OH277191   6.477   5.722   2.350  1.0641  0.1281 -0.0488
18567TIP3    H177192   6.426   5.733   2.270 -1.4174 -1.3231  1.2258
18567TIP3    H277193   6.506   5.631   2.348  0.5762 -0.0611  0.8936
18568TIP3   OH277194   0.484   0.719  15.204 -0.0837 -0.0662  0.4518
18568TIP3    H177195   0.510   0.807  15.231  2.0108 -0.5472  0.1347
18568TIP3    H277196   0.389   0.716  15.219 -0.3129  2.4555 -0.1801
18569TIP3   OH277197   4.646   5.486  14.221  0.2101 -0.0030 -0.7953
18569TIP3    H177198   4.685   5.464  14.305 -0.2659  2.3000  0.1292
18569TIP3    H277199   4.716   5.472  14.157  0.7993 -1.1401  0.0726
18570TIP3   OH277200   6.585   5.046   5.225 -0.5767  0.2639  0.0573
18570TIP3    H177201   6.508   5.006   5.266 -0.0757  1.3459  2.1614
18570TIP3    H277202   6.657   4.988   5.248 -0.4556  0.2829 -0.2682
18571TIP3   OH277203   0.828   1.960   1.336  0.1811 -0.5182  0.0711
18571TIP3    H177204   0.795   1.898   1.401  0.6745 -1.4725 -0.5658
18571TIP3    H277205   0.904   2.001   1.379  0.9884 -1.7084 -0.1529
18572TIP3   OH277206   0.838   0.143  11.484  0.0757  0.4530  0.2220
18572TIP3    H177207   0.854   0.050  11.500 -0.5733  0.2319 -0.3584
18572TIP3    H277208   0.858   0.155  11.391 -3.4665  0.0136 -0.7537
18573TIP3   OH277209   5.551   6.551   3.948  0.0560 -0.4072 -0.1157
18573TIP3    H177210   5.564   6.624   3.888 -1.1588 -1.0203 -1.1860
18573TIP3    H277211   5.513   6.591   4.027 -0.0873  0.1878 -0.4821
18574TIP3   OH277212   2.453   1.453   5.134 -0.3267  0.5649  0.2792
18574TIP3    H177213   2.420   1.462   5.044 -1.4127  2.0747  0.7871
18574TIP3    H277214   2.489   1.365   5.137 -0.4161  0.4210 -1.5971
18575TIP3   OH277215   2.611   0.586  16.808 -0.2558 -0.1889  0.0619
18575TIP3    H177216   2.543   0.558  16.747 -1.4108  2.7367 -0.1769
18575TIP3    H277217   2.574   0.567  16.895  0.9120 -3.3033  0.0002
18576TIP3   OH277218   2.051   3.680  16.128 -0.4743  0.8054  0.2783
18576TIP3    H177219   1.966   3.677  16.172 -1.0758  1.4284 -0.7737
18576TIP3    H277220   2.101   3.609  16.167 -1.7597 -0.0739  0.4070
18577TIP3   OH277221   4.634   0.651   2.568  0.2475 -0.0269 -0.4354
18577TIP3    H177222   4.708   0.592   2.582 -0.4184 -1.0683 -1.1877
18577TIP3    H277223   4.557   0.599   2.589 -0.4413  0.1450 -2.3374
18578TIP3   OH277224   5.093   6.425   6.092  0.1055 -0.0240 -0.0022
18578TIP3    H177225   5.187   6.440   6.086  0.2913 -1.3752 -1.3238
18578TIP3    H277226   5.072   6.373   6.014 -2.3650  3.0726 -1.6437
18579TIP3   OH277227   3.220   3.141  14.977  0.8532  0.2578  0.1898
18579TIP3    H177228   3.279   3.069  14.955  0.9530  0.0875  1.0087
18579TIP3    H277229   3.275   3.202  15.026  0.3145  0.0189  1.1037
18580TIP3   OH277230   0.320   6.709  14.570 -0.1068  0.6679  0.4833
18580TIP3    H177231   0.277   6.723  14.655  0.7188  2.0457  0.7227
18580TIP3    H277232   0.325   6.797  14.532  0.9528  0.2915 -0.2873
18581TIP3   OH277233   5.363   4.982  15.934  0.6768  0.5761 -0.1749
18581TIP3    H177234   5.395   4.920  15.999 -1.7490 -0.9433 -0.3034
18581TIP3    H277235   5.339   5.060  15.984  1.1156  0.3567  0.3882
18582TIP3   OH277236   6.184   6.280  12.870 -0.9704  0.1461 -0.1922
18582TIP3    H177237   6.168   6.213  12.936  2.4643 -0.6387  0.0424
18582TIP3    H277238   6.277   6.300  12.879 -0.5632  0.7779 -4.0712
18583TIP3   OH277239   5.705   5.799  14.371 -0.2521  0.2863 -0.0309
18583TIP3    H177240   5.709   5.813  14.276 -0.1448  0.4830  0.0015
18583TIP3    H277241   5.751   5.875  14.408  0.0968 -0.0149  0.1608
18584TIP3   OH277242   2.450   6.664   2.182 -0.1436 -0.1411 -0.4955
18584TIP3    H177243   2.384   6.681   2.114  0.4803  2.2098 -0.5832
18584TIP3    H277244   2.411   6.699   2.262 -0.8434 -2.8322  0.4657
18585TIP3   OH277245   2.267   1.622  13.226  0.0025 -0.0367 -0.1436
18585TIP3    H177246   2.192   1.668  13.263 -1.4643 -2.0502 -0.4675
18585TIP3    H277247   2.328   1.613  13.300 -0.9929 -0.1937  0.6815
18586TIP3   OH277248   3.612   2.818  12.360  0.2415 -0.2956  0.3919
18586TIP3    H177249   3.612   2.738  12.307 -3.3870 -0.9370  1.0945
18586TIP3    H277250   3.638   2.887  12.299 -0.2686 -1.5122 -1.2712
18587TIP3   OH277251   1.985   0.684  15.575  0.8534 -0.6582 -0.2772
18587TIP3    H177252   1.945   0.720  15.496 -0.7951  0.6413  1.0762
18587TIP3    H277253   2.044   0.753  15.606  0.6264 -0.6972  0.2460
18588TIP3   OH277254   3.544   6.448  13.039 -0.5454  0.5394 -0.1452
18588TIP3    H177255   3.517   6.400  13.117 -0.4028 -1.1258 -1.0655
18588TIP3    H277256   3.485   6.523  13.035 -2.0787 -0.5887  0.3342
18589TIP3   OH277257   3.789   2.254   2.120  0.5340  0.7772 -0.6145
18589TIP3    H177258   3.841   2.174   2.114 -0.5064  0.0756 -0.6831
18589TIP3    H277259   3.770   2.264   2.213  1.4908  1.5094 -0.4891
18590TIP3   OH277260   5.410   1.360   0.272 -0.1809 -0.2263 -0.0578
18590TIP3    H177261   5.318   1.387   0.282 -0.2484 -0.0857 -1.0423
18590TIP3    H277262   5.422   1.294   0.340 -1.5302 -1.5239 -1.0173
18591TIP3   OH277263   6.014   0.838   4.777  0.5507  0.5257  0.6575
18591TIP3    H177264   5.954   0.902   4.817 -0.2236  0.0990  0.1928
18591TIP3    H277265   5.966   0.804   4.701  1.3806  0.1653  0.2842
18592TIP3   OH277266   1.937   3.482  16.711  0.3145  0.1523  0.5324
18592TIP3    H177267   1.868   3.462  16.648  0.9540 -0.2627 -0.0583
18592TIP3    H277268   1.890   3.508  16.791 -0.5566 -1.3543  0.5598
18593TIP3   OH277269   2.492   2.421   6.534 -0.2740  0.6952  0.0396
18593TIP3    H177270   2.531   2.420   6.446 -1.6971  0.2429 -0.6206
18593TIP3    H277271   2.442   2.502   6.537 -2.0402 -0.3158 -0.4476
18594TIP3   OH277272   4.911   1.591  15.067 -0.5677  0.6123 -0.1205
18594TIP3    H177273   4.965   1.523  15.109  0.5509  2.1871  1.1046
18594TIP3    H277274   4.919   1.573  14.973  0.7821 -0.1534  0.1139
18595TIP3   OH277275   1.074   4.258   0.605 -0.1642 -0.1338  0.4390
18595TIP3    H177276   1.130   4.253   0.528 -1.8148  0.1645 -0.8404
18595TIP3    H277277   1.126   4.221   0.676  1.4145 -0.3726 -0.8028
18596TIP3   OH277278   5.169   1.827  13.432  0.3355 -0.0719  0.4195
18596TIP3    H177279   5.159   1.849  13.339  1.3236  0.3887  0.4131
18596TIP3    H277280   5.100   1.876  13.476 -0.7942 -1.0742 -0.1657
18597TIP3   OH277281   3.419   5.503   0.613 -0.3763  0.2046  0.3935
18597TIP3    H177282   3.407   5.478   0.521 -0.4791  0.7200  0.2677
18597TIP3    H277283   3.405   5.421   0.662 -1.5169  0.1748  0.0452
18598TIP3   OH277284   4.131   5.707   3.780  0.2022 -0.0185  0.2769
18598TIP3    H177285   4.096   5.627   3.741 -0.3700  0.2582  0.2177
18598TIP3    H277286   4.195   5.739   3.716  2.0373 -1.5684  1.2415
18599TIP3   OH277287   5.190   2.637  15.398 -0.2406  0.4626  0.0078
18599TIP3    H177288   5.227   2.619  15.484 -0.1788 -0.6162 -0.2313
18599TIP3    H277289   5.111   2.582  15.394  0.0960  0.0258 -0.8600
18600TIP3   OH277290   4.742   1.893   1.733 -0.6735 -0.0959 -0.2031
18600TIP3    H177291   4.673   1.958   1.743 -1.2360 -0.2294 -2.5340
18600TIP3    H277292   4.697   1.817   1.694 -0.1990 -2.2494  3.0421
18601TIP3   OH277293   2.568   4.477  16.180  0.3785  0.3093  0.2390
18601TIP3    H177294   2.623   4.486  16.103  1.4716 -0.1523  0.9315
18601TIP3    H277295   2.616   4.523  16.249  0.4118 -0.9632  1.0947
18602TIP3   OH277296   5.265   1.738  14.384 -0.3874  0.6843  0.1876
18602TIP3    H177297   5.183   1.739  14.335  0.2296  1.2379 -0.8685
18602TIP3    H277298   5.247   1.794  14.460 -0.9265  0.9874 -0.1489
18603TIP3   OH277299   1.366   4.049   3.948  0.5960  0.4945 -0.2456
18603TIP3    H177300   1.410   3.999   4.017  0.6620 -0.0031 -0.6420
18603TIP3    H277301   1.276   4.014   3.948  0.5910  0.5080 -0.3992
18604TIP3   OH277302   5.832   0.261   6.224  0.0911  0.2992  0.4769
18604TIP3    H177303   5.865   0.285   6.137  0.8454  0.5852  0.8294
18604TIP3    H277304   5.897   0.200   6.259 -0.2614  0.1029  0.7980
18605TIP3   OH277305   4.579   2.601  13.972  0.2862 -0.2773  0.0987
18605TIP3    H177306   4.644   2.663  13.938 -0.1157 -0.3400 -0.8205
18605TIP3    H277307   4.495   2.635  13.941  0.0219 -0.9994  0.0131
18606TIP3   OH277308   4.043   6.483  13.414 -0.5677  0.0544 -0.3557
18606TIP3    H177309   4.055   6.577  13.401 -3.2810  0.5067 -0.0805
18606TIP3    H277310   4.088   6.465  13.497 -1.9108  1.6135  0.7870
18607TIP3   OH277311   1.066   1.961  13.246  0.3104 -0.5216  0.0620
18607TIP3    H177312   1.006   1.933  13.315  1.6234 -1.7644  0.7737
18607TIP3    H277313   1.027   2.041  13.211 -2.3853 -1.8945 -0.3606
18608TIP3   OH277314   2.108   2.670   2.043 -0.5989  0.3561 -0.5054
18608TIP3    H177315   2.084   2.581   2.017  0.6079  0.3049 -1.5452
18608TIP3    H277316   2.051   2.727   1.992 -0.6387  0.1985 -0.6380
18609TIP3   OH277317   5.984   6.616   6.432 -0.0374 -0.3047 -0.4027
18609TIP3    H177318   6.027   6.692   6.472  0.6956  0.4699 -2.5590
18609TIP3    H277319   6.020   6.541   6.479  1.5863  0.5040 -0.2696
18610TIP3   OH277320   2.382   4.219   2.177 -0.2094  0.6688 -0.1726
18610TIP3    H177321   2.319   4.291   2.173  1.1355  1.8723 -1.2815
18610TIP3    H277322   2.444   4.238   2.106  1.8327  0.0189  1.3163
18611TIP3   OH277323   4.369   0.156   4.241 -0.5501  0.2447 -0.0531
18611TIP3    H177324   4.388   0.065   4.219  0.5702  0.5106 -0.2665
18611TIP3    H277325   4.322   0.190   4.165 -0.7923 -0.0965 -0.0576
18612TIP3   OH277326   3.787   1.223   5.153  0.5119 -0.0373  0.5454
18612TIP3    H177327   3.762   1.143   5.107 -0.2207  1.2251 -1.3612
18612TIP3    H277328   3.708   1.250   5.198  0.7791 -0.3975  1.2474
18613TIP3   OH277329   2.338   4.611   3.215  0.1290 -0.5432  0.2739
18613TIP3    H177330   2.282   4.543   3.253 -0.1506  1.1537  3.1273
18613TIP3    H277331   2.411   4.562   3.177 -0.6831 -2.5010  1.1049
18614TIP3   OH277332   1.216   2.524  14.700  0.0606 -0.0543  0.1141
18614TIP3    H177333   1.125   2.523  14.670  0.8441 -0.6182 -2.4265
18614TIP3    H277334   1.245   2.433  14.691  1.0968  0.2633  0.1868
18615TIP3   OH277335   4.300   4.712   3.765  0.4772  0.1983 -0.0642
18615TIP3    H177336   4.365   4.646   3.789 -0.7851 -0.8225  0.6863
18615TIP3    H277337   4.235   4.664   3.713  0.0597  1.0901 -0.4020
18616TIP3   OH277338   1.061   4.403  15.094 -0.5065  0.1619 -0.3527
18616TIP3    H177339   1.006   4.334  15.132  0.7434 -0.3893  0.5349
18616TIP3    H277340   1.021   4.485  15.124 -0.5849 -0.2356  0.6790
18617TIP3   OH277341   4.018   4.584  16.379 -0.6770 -0.6590  0.0545
18617TIP3    H177342   4.012   4.588  16.284 -0.4424 -2.8630 -0.1049
18617TIP3    H277343   3.983   4.668  16.409  2.3877  1.5578 -2.0306
18618TIP3   OH277344   6.595   3.167   0.244  0.2620  0.0996 -0.9134
18618TIP3    H177345   6.581   3.094   0.183  3.3592  1.0413 -2.9998
18618TIP3    H277346   6.681   3.150   0.282 -0.3706  1.0535  1.0631
18619TIP3   OH277347   5.616   5.756   4.465  0.0013 -0.1749  0.0694
18619TIP3    H177348   5.638   5.667   4.491  0.3105  0.1356  0.9020
18619TIP3    H277349   5.624   5.808   4.545 -1.6237  0.3552 -0.0658
18620TIP3   OH277350   5.684   4.217  11.792 -0.8967  0.3868  0.3961
18620TIP3    H177351   5.610   4.224  11.731  1.5755  0.5644 -2.8630
18620TIP3    H277352   5.726   4.134  11.770 -0.5350 -0.1526  2.8000
18621TIP3   OH277353   4.208   1.177   0.122  0.1361  0.1569 -0.6340
18621TIP3    H177354   4.255   1.094   0.115  0.7433  0.4068  0.3368
18621TIP3    H277355   4.149   1.164   0.197  0.3220  0.6325 -0.3994
18622TIP3   OH277356   0.582   2.705   2.294  0.1757  0.3661 -0.2933
18622TIP3    H177357   0.634   2.693   2.214 -0.6530 -1.5899 -0.5836
18622TIP3    H277358   0.551   2.795   2.289 -0.4633  0.0662 -2.5528
18623TIP3   OH277359   1.983   5.606  13.774  0.0903 -0.1998  0.7178
18623TIP3    H177360   1.993   5.583  13.867 -0.4755 -0.5077  0.7017
18623TIP3    H277361   1.889   5.612  13.760  0.1587 -0.6261  0.0414
18624TIP3   OH277362   0.438   1.362  16.788  0.0672  1.1735  0.2082
18624TIP3    H177363   0.461   1.342  16.697 -0.4682 -0.6557  0.4243
18624TIP3    H277364   0.367   1.301  16.808  2.5844 -1.1444  2.9316
18625TIP3   OH277365   6.479   2.099  11.699 -0.2361  0.5018  0.2014
18625TIP3    H177366   6.401   2.049  11.723 -0.6081  0.0315 -1.8142
18625TIP3    H277367   6.521   2.047  11.631  0.5449  1.8997 -0.4328
18626TIP3   OH277368   1.597   5.741   5.678 -0.1560 -0.2797 -0.0000
18626TIP3    H177369   1.586   5.834   5.696  1.2549 -0.4756  2.3144
18626TIP3    H277370   1.558   5.697   5.754  2.3939 -1.3749  0.8041
18627TIP3   OH277371   6.491   6.306  12.950 -0.3406 -0.6775 -0.0371
18627TIP3    H177372   6.553   6.351  13.008 -1.6379 -0.4221  1.2058
18627TIP3    H277373   6.489   6.359  12.871  0.3718 -0.2133  0.2461
18628TIP3   OH277374   4.463   0.102   5.923  0.5155  0.5887  0.5113
18628TIP3    H177375   4.381   0.103   5.973 -1.3365 -0.1191 -2.2441
18628TIP3    H277376   4.463   0.017   5.879  1.7192  1.3636 -1.0947
18629TIP3   OH277377   2.943   3.775  15.521  0.2657 -0.9713  0.0136
18629TIP3    H177378   3.017   3.715  15.527  1.5391  0.4891 -0.4168
18629TIP3    H277379   2.946   3.825  15.603 -1.1323 -1.8245  0.6310
18630TIP3   OH277380   3.044   2.980   4.573 -0.1550  0.2726  0.3613
18630TIP3    H177381   2.977   3.023   4.625 -0.2317  0.9819 -0.3036
18630TIP3    H277382   3.010   2.892   4.557  0.2673 -0.2688  2.2304
18631TIP3   OH277383   4.283   3.024   4.017 -0.8671 -0.1047 -0.5454
18631TIP3    H177384   4.325   3.110   4.022 -0.0153 -0.5689  0.8424
18631TIP3    H277385   4.337   2.975   3.956 -0.5819 -0.0608 -0.3308
18632TIP3   OH277386   0.564   0.218  12.557 -0.2094  0.3367  1.0336
18632TIP3    H177387   0.639   0.203  12.613  1.2959 -0.8466 -1.1403
18632TIP3    H277388   0.517   0.135  12.555  0.4178 -0.0189 -0.3075
18633TIP3   OH277389   4.102   6.084   2.037 -0.0058  0.1818 -0.2589
18633TIP3    H177390   4.038   6.013   2.044 -0.7383  0.9852  2.6755
18633TIP3    H277391   4.052   6.159   2.005 -0.0059  0.2173 -0.1767
18634TIP3   OH277392   4.081   3.317   2.828 -0.2456  0.3638 -0.2157
18634TIP3    H177393   4.061   3.238   2.878  1.5088  1.1691  1.9436
18634TIP3    H277394   4.135   3.286   2.754  1.1356 -0.4301  1.0678
18635TIP3   OH277395   1.956   4.512   3.002 -0.1010  0.2729  0.4949
18635TIP3    H177396   2.035   4.532   2.953 -0.7732  1.5577 -0.1224
18635TIP3    H277397   1.931   4.424   2.972 -0.7961  1.2258 -1.9543
18636TIP3   OH277398   3.682   2.088  16.577  0.0828  0.5074  0.2201
18636TIP3    H177399   3.611   2.092  16.642  0.6543  2.4392  0.7780
18636TIP3    H277400   3.762   2.099  16.629  0.5363  2.3996 -0.7863
18637TIP3   OH277401   5.417   0.663   0.404  0.0985  0.2400  0.8291
18637TIP3    H177402   5.324   0.647   0.388  0.3350 -1.2738  0.8116
18637TIP3    H277403   5.419   0.717   0.482 -0.7886 -0.1048  1.1045
18638TIP3   OH277404   5.281   4.155   4.018  0.4145 -0.3037  0.0978
18638TIP3    H177405   5.280   4.077   3.963 -2.2438 -1.1499  1.1625
18638TIP3    H277406   5.356   4.143   4.076 -0.1606 -2.2974  0.5099
18639TIP3   OH277407   2.489   2.784   2.138  0.2010 -0.0555  0.3619
18639TIP3    H177408   2.459   2.771   2.228  1.4103 -1.2066  0.6352
18639TIP3    H277409   2.577   2.745   2.136  1.0721  1.8206 -0.7801
18640TIP3   OH277410   2.026   4.147  11.564  0.4774  0.4891 -0.6437
18640TIP3    H177411   1.986   4.230  11.588  1.0734  0.4189  0.6665
18640TIP3    H277412   1.957   4.082  11.574  0.7667  0.4233  1.2258
18641TIP3   OH277413   2.702   6.135  13.159 -0.4594 -0.3741  0.7298
18641TIP3    H177414   2.691   6.172  13.246 -3.0457 -0.4225  0.4952
18641TIP3    H277415   2.669   6.203  13.100 -0.8290 -1.2051 -0.0420
18642TIP3   OH277416   5.773   1.907  16.530 -0.5504  0.5231  0.5067
18642TIP3    H177417   5.696   1.875  16.483  1.0725  1.7248 -3.3740
18642TIP3    H277418   5.749   1.996  16.558  0.0235  1.8942 -2.8761
18643TIP3   OH277419   4.029   5.703  12.076  0.5085 -0.1015  0.2313
18643TIP3    H177420   3.953   5.760  12.062  1.8690  2.1145  1.2541
18643TIP3    H277421   4.076   5.704  11.992  0.5040  0.2662  0.2323
18644TIP3   OH277422   3.486   0.790   0.995  0.0669 -0.5484  0.1703
18644TIP3    H177423   3.539   0.783   0.916  0.6038  0.6967  0.4100
18644TIP3    H277424   3.433   0.868   0.982  1.1241  0.4543  1.5733
18645TIP3   OH277425   2.956   0.131  16.335  0.0027 -0.5225 -0.3504
18645TIP3    H177426   2.873   0.083  16.330 -0.9539  1.1636 -1.7938
18645TIP3    H277427   2.948   0.184  16.415  0.2994 -1.3784  0.2605
18646TIP3   OH277428   2.525   6.128   6.177 -0.4402  0.9357  0.2510
18646TIP3    H177429   2.602   6.075   6.195  0.8375  2.6515  0.0962
18646TIP3    H277430   2.462   6.103   6.246  0.0080 -0.8713  0.0536
18647TIP3   OH277431   3.293   0.217  13.220 -0.2985  0.9414  0.4767
18647TIP3    H177432   3.223   0.153  13.232  0.3136  0.2865  0.6320
18647TIP3    H277433   3.249   0.302  13.219 -1.3362  0.4335 -1.3847
18648TIP3   OH277434   4.466   5.726   0.169  0.6495 -0.3734 -0.6463
18648TIP3    H177435   4.510   5.652   0.211 -2.0865 -1.1196  1.1338
18648TIP3    H277436   4.421   5.688   0.094 -1.7550 -0.8886  0.9517
18649TIP3   OH277437   1.567   0.350  14.586  0.3827  0.0558  0.6227
18649TIP3    H177438   1.627   0.387  14.522  0.9206  1.5773  1.9295
18649TIP3    H277439   1.484   0.341  14.539  1.6203 -2.3780 -1.3079
18650TIP3   OH277440   5.916   4.406  10.709  0.1413 -0.2740 -0.4203
18650TIP3    H177441   5.888   4.487  10.751 -0.3653 -0.6949  0.0792
18650TIP3    H277442   5.956   4.433  10.627  0.2265  0.4982 -0.1286
18651TIP3   OH277443   5.041   5.788   5.672  0.2162 -0.2068  0.4928
18651TIP3    H177444   5.044   5.832   5.757 -0.0065 -1.3086  1.0947
18651TIP3    H277445   4.949   5.763   5.662 -0.0026  1.0285 -0.6686
18652TIP3   OH277446   4.853   4.426  11.402 -0.2643 -0.1182 -0.3235
18652TIP3    H177447   4.800   4.394  11.329 -0.2827 -0.6520 -0.0722
18652TIP3    H277448   4.846   4.522  11.395 -0.3380 -0.1630 -0.9674
18653TIP3   OH277449   2.808   0.097  12.218 -0.0750  0.0401 -0.4367
18653TIP3    H177450   2.767   0.013  12.240 -1.1623  0.6119 -0.2307
18653TIP3    H277451   2.742   0.145  12.169 -0.2599  1.5918  1.2273
18654TIP3   OH277452   1.955   0.968   1.774  0.2815  0.4766 -0.3326
18654TIP3    H177453   2.019   1.039   1.770  0.6861  0.1442  0.0255
18654TIP3    H277454   1.992   0.899   1.719  0.5369  0.0557  0.3427
18655TIP3   OH277455   3.310   3.763  12.756  0.0166 -0.6262 -0.6137
18655TIP3    H177456   3.227   3.778  12.802  0.8748  1.0594  0.4738
18655TIP3    H277457   3.307   3.822  12.681 -0.2721 -1.4699 -1.2764
18656TIP3   OH277458   3.235   3.639  17.062  0.3168  0.2819  0.6613
18656TIP3    H177459   3.210   3.582  16.990  0.8624  0.5846  0.2245
18656TIP3    H277460   3.166   3.706  17.065  1.0564  1.1403 -0.5642
18657TIP3   OH277461   4.507   5.305  11.594  0.1261  0.0699 -0.0157
18657TIP3    H177462   4.541   5.221  11.563  0.1167  0.5776 -1.4668
18657TIP3    H277463   4.506   5.297  11.689  0.8149 -1.3035 -0.1046
18658TIP3   OH277464   6.721   4.858   6.832 -0.0082 -0.1746  0.1719
18658TIP3    H177465   6.655   4.926   6.848 -0.2627 -0.7491  1.7305
18658TIP3    H277466   6.786   4.871   6.901 -0.1658 -1.6359  0.6282
18659TIP3   OH277467   3.578   0.421  14.935  0.3229 -0.5590 -0.2580
18659TIP3    H177468   3.617   0.479  14.870  1.1556 -1.4529 -0.5706
18659TIP3    H277469   3.652   0.388  14.986 -0.2549 -0.3780  0.7317
18660TIP3   OH277470   4.218   0.054  11.289 -0.0853 -0.2637  0.0695
18660TIP3    H177471   4.293   0.093  11.244  0.8421 -0.5626  1.3008
18660TIP3    H277472   4.173   0.003  11.222  0.5590  0.2809 -0.7903
18661TIP3   OH277473   5.977   6.625   2.940  0.6973  0.5304  0.7048
18661TIP3    H177474   6.023   6.559   2.889 -0.5723 -0.3029  0.6029
18661TIP3    H277475   6.040   6.651   3.008  0.1618 -3.3904  3.0196
18662TIP3   OH277476   1.726   0.673   5.928  0.4316 -0.8914  0.1178
18662TIP3    H177477   1.649   0.691   5.875  1.2376  1.3055 -0.3996
18662TIP3    H277478   1.719   0.733   6.003  0.7291 -1.9834  1.0654
18663TIP3   OH277479   6.508   4.018  12.737 -0.9420  0.0113  0.0781
18663TIP3    H177480   6.432   4.014  12.680 -0.7855 -1.7449 -0.0497
18663TIP3    H277481   6.557   3.938  12.717  0.5501  0.7437  0.6906
18664TIP3   OH277482   1.435   3.193   1.314  0.0330 -0.1092 -0.3874
18664TIP3    H177483   1.405   3.206   1.404  0.6466 -0.4906 -0.1244
18664TIP3    H277484   1.358   3.159   1.269 -0.0231 -0.8096  0.2147
18665TIP3   OH277485   4.169   2.879  13.248  0.4079 -0.2701 -0.1087
18665TIP3    H177486   4.191   2.786  13.237  0.6216 -0.5653  2.3244
18665TIP3    H277487   4.085   2.889  13.204  0.1324 -1.7414  0.0288
18666TIP3   OH277488   5.888   1.060   2.121 -0.8667  0.2229  0.5251
18666TIP3    H177489   5.957   1.027   2.063 -0.7855 -0.1472  0.8283
18666TIP3    H277490   5.928   1.133   2.167 -0.8498  0.3533  0.3063
18667TIP3   OH277491   2.129   3.215  16.710  0.3876  0.1585  0.3981
18667TIP3    H177492   2.035   3.206  16.698  0.3795 -0.2232  0.7344
18667TIP3    H277493   2.166   3.135  16.671  0.4196 -0.7194  2.1581
18668TIP3   OH277494   0.966   0.683  16.001  0.3914  0.0205 -0.3368
18668TIP3    H177495   1.017   0.748  16.050 -1.9193  2.7019 -1.2181
18668TIP3    H277496   0.992   0.696  15.910  0.2924 -0.7033 -0.4722
18669TIP3   OH277497   2.286   6.734  15.881 -0.0760 -0.4144 -0.5397
18669TIP3    H177498   2.377   6.734  15.909  0.0922 -2.4020 -0.9088
18669TIP3    H277499   2.288   6.767  15.791  0.0675  0.9444 -0.0498
18670TIP3   OH277500   3.387   2.816   0.124  0.0300  0.4683 -0.2029
18670TIP3    H177501   3.317   2.794   0.185  1.1786 -1.8860  0.4095
18670TIP3    H277502   3.411   2.906   0.145 -1.1244  0.4629  1.2681
18671TIP3   OH277503   4.502   0.510   0.307  0.5757 -0.2172 -0.2570
18671TIP3    H177504   4.590   0.525   0.342  0.4090 -1.5870  0.8520
18671TIP3    H277505   4.499   0.560   0.225  1.9798  0.7675  0.2564
18672TIP3   OH277506   4.031   0.890  11.249  0.0878 -0.6432 -0.0268
18672TIP3    H177507   4.046   0.955  11.180  2.0623 -1.3318 -0.3117
18672TIP3    H277508   4.037   0.940  11.331  1.3727 -0.4060 -0.2494
18673TIP3   OH277509   6.246   4.710  16.743  0.2547  0.1495  0.0183
18673TIP3    H177510   6.315   4.648  16.767  1.3764  0.9275 -1.0479
18673TIP3    H277511   6.213   4.677  16.659 -0.2072  0.1376  0.2077
18674TIP3   OH277512   5.198   3.445  13.546  0.5299  0.0835 -0.1363
18674TIP3    H177513   5.288   3.474  13.534  0.5486  0.6500  1.2242
18674TIP3    H277514   5.148   3.494  13.481  1.3644 -1.3980 -2.0074
18675TIP3   OH277515   6.044   6.296   2.305  0.1520 -0.5338 -0.4943
18675TIP3    H177516   5.985   6.310   2.231 -1.9809 -1.6448  0.8948
18675TIP3    H277517   6.099   6.375   2.307 -1.7078  0.8742 -1.5078
18676TIP3   OH277518   2.715   0.626  12.760  0.1245 -0.2188  0.0187
18676TIP3    H177519   2.664   0.571  12.701 -0.3939 -1.5889  1.6802
18676TIP3    H277520   2.658   0.700  12.779  1.0411  1.3619 -2.6941
18677TIP3   OH277521   4.951   1.486  14.233 -0.2859 -0.5707  0.1581
18677TIP3    H177522   4.911   1.502  14.148 -0.1294 -1.7652 -0.1626
18677TIP3    H277523   5.033   1.441  14.213  0.7437  0.8986  0.8596
18678TIP3   OH277524   1.561   3.700   3.193  0.4147  0.1582  0.3020
18678TIP3    H177525   1.472   3.734   3.209 -0.3686 -1.6654  0.0645
18678TIP3    H277526   1.580   3.647   3.271  2.0609  1.9298  1.1864
18679TIP3   OH277527   5.213   4.406   5.028 -1.0787  0.2140  0.0605
18679TIP3    H177528   5.140   4.446   5.074 -1.3618  1.1589 -1.1591
18679TIP3    H277529   5.241   4.472   4.965 -0.6346 -0.9712 -1.0430
18680TIP3   OH277530   1.384   5.602  12.822 -0.0493  0.2635  0.7279
18680TIP3    H177531   1.362   5.520  12.777 -0.2477  1.1958 -0.9521
18680TIP3    H277532   1.462   5.634  12.777 -1.0460  1.9154  0.0913
18681TIP3   OH277533   1.269   0.767  13.469  0.1753  0.0705  0.3070
18681TIP3    H177534   1.333   0.747  13.537 -0.0105  2.0032  1.1158
18681TIP3    H277535   1.235   0.853  13.492 -0.6019  0.3756 -1.7331
18682TIP3   OH277536   4.109   0.830   0.642  0.1132 -0.1700 -0.4132
18682TIP3    H177537   4.147   0.833   0.554 -0.2749  3.8996 -0.6470
18682TIP3    H277538   4.151   0.902   0.689 -0.6689 -1.3722  2.3461
18683TIP3   OH277539   2.253   4.655  15.663 -0.4832 -0.4789  0.0654
18683TIP3    H177540   2.338   4.670  15.703 -0.4851 -1.4437  0.4447
18683TIP3    H277541   2.257   4.566  15.628 -0.0255  0.7143 -3.2657
18684TIP3   OH277542   5.084   4.014  13.475 -0.0885  0.0430  0.0055
18684TIP3    H177543   5.089   3.974  13.562 -2.9846 -3.0377 -1.0169
18684TIP3    H277544   5.166   3.988  13.433  0.6312  0.1723  1.2776
18685TIP3   OH277545   2.325   1.769   3.350 -0.1136 -0.3372  0.5323
18685TIP3    H177546   2.279   1.706   3.294 -0.0073  1.3302 -1.5448
18685TIP3    H277547   2.292   1.751   3.438 -0.2173 -3.1397  0.0006
18686TIP3   OH277548   4.380   5.196   0.762  0.1105 -0.2397  0.4433
18686TIP3    H177549   4.407   5.137   0.692 -0.2330 -1.8168  1.5906
18686TIP3    H277550   4.431   5.276   0.747 -0.4920 -0.2312 -2.0143
18687TIP3   OH277551   4.196   0.102  11.543  0.2533  0.2186  0.2264
18687TIP3    H177552   4.223   0.080  11.454 -0.6399 -0.2768  0.0611
18687TIP3    H277553   4.161   0.020  11.578 -3.7778  1.3433 -0.6055
18688TIP3   OH277554   2.542   4.548  12.459  0.1760 -0.2886 -0.4877
18688TIP3    H177555   2.597   4.531  12.535 -0.9342 -1.0197  0.1656
18688TIP3    H277556   2.462   4.587  12.494 -0.0737  0.0175 -1.3549
18689TIP3   OH277557   4.929   0.641  13.831  0.8487  0.3321 -0.4562
18689TIP3    H177558   4.948   0.733  13.848  1.7339  0.1713 -0.4952
18689TIP3    H277559   5.008   0.608  13.788  1.1175 -0.7693  0.8163
18690TIP3   OH277560   3.396   0.929  14.997  0.1919  0.5900  0.6306
18690TIP3    H177561   3.303   0.934  14.979  0.2535  0.0491  0.1419
18690TIP3    H277562   3.415   1.007  15.049 -0.2529  1.4719 -0.4894
18691TIP3   OH277563   1.066   4.132   3.308 -0.2036 -0.0737  0.7868
18691TIP3    H177564   1.101   4.218   3.331 -0.3868  0.0808  0.5021
18691TIP3    H277565   1.134   4.094   3.251 -0.8668  0.5923 -0.5047
18692TIP3   OH277566   5.099   4.654  16.680  1.0176 -0.2287  0.2126
18692TIP3    H177567   5.080   4.737  16.636  3.1459 -0.1635 -0.6866
18692TIP3    H277568   5.184   4.667  16.721  0.8887 -1.6243  1.0049
18693TIP3   OH277569   5.717   2.570  11.363 -0.1317 -0.4482  0.5449
18693TIP3    H177570   5.643   2.508  11.363  0.0696 -0.6886  0.3328
18693TIP3    H277571   5.734   2.585  11.456  0.3131 -1.3126  0.6139
18694TIP3   OH277572   0.168   6.181   2.154  0.0936  0.0061 -0.1160
18694TIP3    H177573   0.106   6.110   2.169  0.3944 -0.3703 -0.6405
18694TIP3    H277574   0.224   6.150   2.083  0.4372  0.6322 -0.1261
18695TIP3   OH277575   5.612   3.156  13.676  0.0617  0.1748 -0.0676
18695TIP3    H177576   5.663   3.111  13.743 -1.4178  1.0871  1.7348
18695TIP3    H277577   5.521   3.134  13.696 -0.5302 -4.3673 -5.2113
18696TIP3   OH277578   1.486   3.602  16.237 -0.3422  0.0676 -0.1554
18696TIP3    H177579   1.532   3.600  16.153 -2.2326 -0.0888 -1.2414
18696TIP3    H277580   1.516   3.682  16.278 -0.3721  0.8425 -1.5753
18697TIP3   OH277581   3.412   0.895   1.335  0.5318 -0.4085 -0.2539
18697TIP3    H177582   3.428   0.972   1.281  1.0691 -0.3297  0.0115
18697TIP3    H277583   3.409   0.822   1.273 -1.8132  0.0200 -0.7321
18698TIP3   OH277584   3.219   2.194  14.217 -0.2170  0.1311  0.1096
18698TIP3    H177585   3.131   2.158  14.212 -0.3836  0.4218  0.8160
18698TIP3    H277586   3.238   2.225  14.128 -1.5768  1.7925  0.3415
18699TIP3   OH277587   2.860   0.079  13.255 -0.3635 -0.0495 -0.2219
18699TIP3    H177588   2.834   0.142  13.188 -0.4373 -0.4603 -0.5842
18699TIP3    H277589   2.799   0.095  13.328 -1.6385 -0.9630 -1.0353
18700TIP3   OH277590   1.761   2.893  11.980  0.2827 -0.3005  0.8044
18700TIP3    H177591   1.837   2.884  11.923 -0.0750 -2.0422  0.5647
18700TIP3    H277592   1.795   2.933  12.060  1.1966  0.1180  0.2249
18701TIP3   OH277593   1.294   5.806   6.302 -0.6207 -0.3968 -0.5659
18701TIP3    H177594   1.281   5.745   6.374 -0.7652 -1.1307 -1.1983
18701TIP3    H277595   1.389   5.817   6.296 -0.6451  1.2013  0.9594
18702TIP3   OH277596   0.895   1.512   4.609  0.2417  0.2627 -0.0301
18702TIP3    H177597   0.826   1.452   4.582  0.7691 -1.1780  1.6766
18702TIP3    H277598   0.971   1.487   4.556  0.4758 -0.6563  0.7141
18703TIP3   OH277599   1.591   3.948   3.741  0.2574  0.4389 -0.7585
18703TIP3    H177600   1.606   4.042   3.747  0.8657  0.5672 -3.1977
18703TIP3    H277601   1.670   3.914   3.698  0.2510 -1.2718  0.5024
18704TIP3   OH277602   3.488   5.788  13.186  0.7773 -0.2297 -0.3280
18704TIP3    H177603   3.493   5.880  13.158  0.9525 -0.0508  0.2849
18704TIP3    H277604   3.444   5.791  13.271 -2.1698 -1.0078 -1.6844
18705TIP3   OH277605   3.822   6.588  15.664 -0.6596  0.8661  0.4350
18705TIP3    H177606   3.767   6.639  15.604 -1.8122 -1.0971 -0.2793
18705TIP3    H277607   3.760   6.533  15.711  0.5770 -0.2925  0.7503
18706TIP3   OH277608   6.243   2.385  15.823  0.6678  0.1173 -0.8241
18706TIP3    H177609   6.260   2.300  15.863 -1.2181  0.5765  1.1953
18706TIP3    H277610   6.321   2.437  15.841  0.6763 -0.3292  0.5794
18707TIP3   OH277611   1.809   3.168   4.876  0.4162  0.1776 -0.4124
18707TIP3    H177612   1.890   3.173   4.927  0.2127  1.0074 -0.1569
18707TIP3    H277613   1.831   3.111   4.802  0.9978 -0.2452  0.0797
18708TIP3   OH277614   4.271   2.054   3.763  0.4147 -0.7395 -0.6956
18708TIP3    H177615   4.331   2.038   3.690 -0.4978  0.4116 -1.7352
18708TIP3    H277616   4.317   2.116   3.819 -0.0161  0.6293 -1.8131
18709TIP3   OH277617   3.788   2.748   5.710 -0.1205 -0.5525  0.1441
18709TIP3    H177618   3.717   2.684   5.711 -1.9345  1.2664 -1.3135
18709TIP3    H277619   3.863   2.701   5.675 -1.4837 -1.8373 -1.2247
18710TIP3   OH277620   2.549   0.189   4.703  0.0618  0.3629  0.5742
18710TIP3    H177621   2.597   0.116   4.662  0.0745  0.5704  0.2155
18710TIP3    H277622   2.612   0.261   4.703 -0.1322  0.5335  0.4222
18711TIP3   OH277623   2.450   2.095  13.517  0.0020  0.2050  0.2280
18711TIP3    H177624   2.467   2.043  13.439 -0.7018 -1.4033  1.0990
18711TIP3    H277625   2.363   2.133  13.503 -0.5953 -0.9613  0.6565
18712TIP3   OH277626   0.505   3.788   2.717  0.2696 -0.1120 -0.0383
18712TIP3    H177627   0.583   3.843   2.713  1.3231 -1.5326  0.0429
18712TIP3    H277628   0.511   3.744   2.801 -0.5631 -0.3542 -0.0907
18713TIP3   OH277629   4.833   5.510  14.724  0.3653  0.2368 -0.1093
18713TIP3    H177630   4.774   5.548  14.790  0.4046 -0.4654  0.3337
18713TIP3    H277631   4.893   5.455  14.774  1.8687  1.4786 -0.4709
18714TIP3   OH277632   5.201   1.735  16.948 -0.4104  0.3063  0.3992
18714TIP3    H177633   5.282   1.723  16.898 -1.1005 -2.0473 -0.2597
18714TIP3    H277634   5.227   1.793  17.020  2.1717 -1.2332  0.8417
18715TIP3   OH277635   5.002   0.169  11.345  0.0902  0.3276  0.0317
18715TIP3    H177636   5.011   0.119  11.264 -1.5191 -1.0400  0.6456
18715TIP3    H277637   4.909   0.162  11.367  0.7586 -0.7720  2.8686
18716TIP3   OH277638   1.577   2.674   5.469  0.1810  0.5345 -0.3306
18716TIP3    H177639   1.618   2.590   5.492 -0.8393 -0.3860 -1.7509
18716TIP3    H277640   1.491   2.670   5.511  0.6014  1.4534  0.6674
18717TIP3   OH277641   0.907   5.854   4.103  0.7028 -0.1936  1.1553
18717TIP3    H177642   0.915   5.853   4.199 -0.8288  0.9603  1.3397
18717TIP3    H277643   0.848   5.782   4.083  1.3819 -0.7251  1.0092
18718TIP3   OH277644   5.019   0.862  12.669  0.0492 -0.3179 -0.0663
18718TIP3    H177645   5.021   0.801  12.743 -0.6964 -0.8129 -0.4425
18718TIP3    H277646   5.016   0.806  12.592  0.5189  0.1981 -0.4678
18719TIP3   OH277647   5.192   3.809  11.667 -0.3708 -0.0107 -0.0182
18719TIP3    H177648   5.237   3.768  11.741 -1.0081 -0.8547 -0.0741
18719TIP3    H277649   5.169   3.735  11.610 -0.6047  0.5488 -0.6528
18720TIP3   OH277650   2.246   6.703   1.995 -0.0468  0.4867 -0.3039
18720TIP3    H177651   2.249   6.797   1.981  1.8966  0.6074  0.5582
18720TIP3    H277652   2.187   6.670   1.927  1.3946  2.0414 -2.4514
18721TIP3   OH277653   4.644   6.526   4.326 -0.0058 -0.7745 -0.2599
18721TIP3    H177654   4.699   6.454   4.296  0.2614 -1.0163  0.7714
18721TIP3    H277655   4.705   6.591   4.360 -0.2940 -0.4716 -0.3111
18722TIP3   OH277656   5.763   5.555   3.785 -0.3104  0.4255 -0.0029
18722TIP3    H177657   5.722   5.512   3.860  0.2525 -1.8215 -0.8964
18722TIP3    H277658   5.856   5.535   3.794  0.1785  2.5043  0.1321
18723TIP3   OH277659   5.756   1.240   4.527 -0.2678  0.2879 -1.5504
18723TIP3    H177660   5.660   1.247   4.524 -0.4352 -0.3481  0.7327
18723TIP3    H277661   5.786   1.329   4.545 -0.6279  0.1070  0.1193
18724TIP3   OH277662   3.355   0.969   5.121  0.1994  0.2175 -0.0382
18724TIP3    H177663   3.358   0.945   5.029 -1.5949 -1.6555  0.3074
18724TIP3    H277664   3.262   0.983   5.139  0.4614  0.1204  1.5846
18725TIP3   OH277665   3.877   6.368   1.260 -0.2207 -0.2055  0.5540
18725TIP3    H177666   3.910   6.450   1.298 -0.6196 -0.5387  1.6636
18725TIP3    H277667   3.800   6.395   1.209  0.5348  0.2977 -0.3550
18726TIP3   OH277668   2.327   4.984  14.924 -0.6893 -0.3483 -0.0273
18726TIP3    H177669   2.267   4.919  14.890 -0.6349 -1.1524  1.3242
18726TIP3    H277670   2.311   4.985  15.019  0.4794  0.3936  0.1911
18727TIP3   OH277671   4.906   4.481  11.112  0.7925  0.3407 -0.5334
18727TIP3    H177672   4.942   4.392  11.121  0.6860  0.5253  2.3383
18727TIP3    H277673   4.814   4.466  11.088  0.4799 -0.4064  0.9898
18728TIP3   OH277674   5.202   3.249   0.298 -0.1244  0.2538  1.0394
18728TIP3    H177675   5.170   3.335   0.325 -1.0888  0.1098  0.4229
18728TIP3    H277676   5.128   3.210   0.252  0.5465 -0.6104  0.6658
18729TIP3   OH277677   1.465   5.672   2.980 -0.2348 -0.0868 -0.3665
18729TIP3    H177678   1.428   5.617   3.050  5.0337  0.0684  3.1406
18729TIP3    H277679   1.533   5.617   2.941 -0.3527  1.2849 -2.6385
18730TIP3   OH277680   0.120   5.464  14.198  0.0244  0.3976  0.1216
18730TIP3    H177681   0.084   5.550  14.221  1.4772  1.2224 -0.5570
18730TIP3    H277682   0.048   5.403  14.212 -1.8154  2.0278 -1.5807
18731TIP3   OH277683   1.685   3.701  15.169 -0.2270  0.2984 -1.0397
18731TIP3    H177684   1.724   3.786  15.148  0.5712  0.7933  1.9942
18731TIP3    H277685   1.686   3.697  15.265 -2.1850 -2.2610 -1.0190
18732TIP3   OH277686   2.116   4.514   2.763  0.4719  0.4997  0.5991
18732TIP3    H177687   2.158   4.517   2.677 -0.4245  1.4218  0.1663
18732TIP3    H277688   2.025   4.538   2.746 -0.3894 -1.8939  1.4345
18733TIP3   OH277689   2.590   5.440  15.311 -0.7698  0.0187 -0.1574
18733TIP3    H177690   2.587   5.368  15.247 -0.8028 -0.3987  0.3043
18733TIP3    H277691   2.498   5.458  15.330 -0.8509  1.4246 -1.6107
18734TIP3   OH277692   2.854   0.986  15.288 -0.4838 -0.6112 -0.1770
18734TIP3    H177693   2.900   1.063  15.322 -0.4084 -0.8084  0.1661
18734TIP3    H277694   2.915   0.947  15.226 -1.3687  0.8654 -2.0715
18735TIP3   OH277695   6.620   1.994  17.020 -0.6976  0.6901 -0.3191
18735TIP3    H177696   6.647   2.041  17.099  0.7616 -0.3019 -0.1838
18735TIP3    H277697   6.613   1.903  17.048  0.8596  0.1518 -1.5314
18736TIP3   OH277698   2.009   0.922  15.209 -0.3729 -0.7548 -0.1796
18736TIP3    H177699   2.034   0.971  15.131 -2.8295  1.1356  0.0926
18736TIP3    H277700   2.059   0.962  15.280 -1.0683  0.2251 -0.2274
18737TIP3   OH277701   6.220   3.633   3.297  0.0418 -0.2826  0.5758
18737TIP3    H177702   6.170   3.558   3.267  2.6121 -2.3431  1.0970
18737TIP3    H277703   6.195   3.642   3.389 -1.2233  0.3915  0.1971
18738TIP3   OH277704   0.536   5.897  12.827  0.2575  0.7331  0.3288
18738TIP3    H177705   0.469   5.831  12.845  0.0528  1.0605  0.8008
18738TIP3    H277706   0.566   5.925  12.914 -0.5722  2.1957  0.1729
18739TIP3   OH277707   1.231   3.042   1.194 -0.1200 -0.0636  0.5471
18739TIP3    H177708   1.153   3.096   1.205  1.2249  2.1946 -0.3091
18739TIP3    H277709   1.215   2.991   1.115 -0.2799  1.3011 -0.3321
18740TIP3   OH277710   4.111   5.187   0.827 -0.3350  0.0529 -0.0278
18740TIP3    H177711   4.104   5.253   0.896  0.2033  1.0363 -0.9008
18740TIP3    H277712   4.204   5.164   0.825 -0.6414 -1.4267  0.8785
18741TIP3   OH277713   2.602   4.335  11.723  0.5928 -0.2263  0.0651
18741TIP3    H177714   2.660   4.330  11.647 -0.3693 -0.5679 -0.6779
18741TIP3    H277715   2.516   4.355  11.686  0.3772  1.1106  1.2028
18742TIP3   OH277716   3.730   2.722   0.519 -0.4614 -0.6032  0.3923
18742TIP3    H177717   3.637   2.734   0.540 -0.6097 -0.0937 -0.5117
18742TIP3    H277718   3.733   2.637   0.475 -1.0695  0.7799 -2.5844
18743TIP3   OH277719   4.528   4.842  11.249 -0.1682  0.6833  0.0295
18743TIP3    H177720   4.493   4.859  11.336  0.8111 -0.0031  0.5838
18743TIP3    H277721   4.605   4.787  11.265 -0.4264 -0.1145 -1.3231
18744TIP3   OH277722   2.778   5.764  16.274  0.6557  0.2674 -0.2211
18744TIP3    H177723   2.780   5.731  16.184  0.5891 -2.1430  0.5641
18744TIP3    H277724   2.857   5.726  16.314  1.2261  2.1218  0.5102
18745TIP3   OH277725   5.750   6.291   0.298  0.5231  0.1040 -0.1769
18745TIP3    H177726   5.775   6.357   0.363 -0.4130  2.2501 -1.8471
18745TIP3    H277727   5.755   6.337   0.214  2.5299 -2.7780 -1.8071
18746TIP3   OH277728   4.952   0.319   4.951  0.1384 -0.2599 -0.1709
18746TIP3    H177729   4.927   0.409   4.930 -1.0676 -0.7201 -0.8082
18746TIP3    H277730   5.047   0.317   4.936  0.1500  0.8409 -0.3472
18747TIP3   OH277731   6.788   0.350  16.725 -0.3660  0.5722  0.4087
18747TIP3    H177732   6.698   0.324  16.710  0.1224 -0.6304 -0.6139
18747TIP3    H277733   6.839   0.270  16.711  0.7876  1.0254  1.8059
18748TIP3   OH277734   4.211   0.748  15.523 -0.1630  0.0058  0.0156
18748TIP3    H177735   4.232   0.788  15.607 -0.4243 -0.0170  0.0923
18748TIP3    H277736   4.234   0.656  15.534 -0.2932 -0.0181  0.0991
18749TIP3   OH277737   1.007   5.219   3.162  0.8197  0.0126  0.1638
18749TIP3    H177738   1.094   5.194   3.193  1.0109  0.5356  0.0577
18749TIP3    H277739   1.012   5.314   3.150 -0.3863  0.4282  2.2528
18750TIP3   OH277740   6.749   5.209   4.697 -0.2316  0.0391  0.0104
18750TIP3    H177741   6.694   5.218   4.775  1.3906  1.7458  1.0489
18750TIP3    H277742   6.690   5.176   4.629 -2.5889  1.9364  0.9968
18751TIP3   OH277743   4.384   2.873   1.854 -0.3828 -0.8907 -0.1688
18751TIP3    H177744   4.450   2.882   1.922 -0.2531  0.1353 -0.4112
18751TIP3    H277745   4.432   2.882   1.772 -0.8924  0.5699 -0.3401
18752TIP3   OH277746   1.628   5.698  15.946  0.3024  0.7196  0.1501
18752TIP3    H177747   1.623   5.614  15.899  0.5109  1.8369 -1.9922
18752TIP3    H277748   1.721   5.718  15.949  0.2640  0.8255  0.7866
18753TIP3   OH277749   0.671   2.027   5.743  0.2005 -0.1276  0.3067
18753TIP3    H177750   0.687   2.119   5.763  0.3644 -0.4480  1.7257
18753TIP3    H277751   0.690   2.019   5.649 -0.8838  1.5078 -0.0935
18754TIP3   OH277752   0.702   3.270   4.385 -0.6681 -0.0480  0.5265
18754TIP3    H177753   0.758   3.202   4.422  0.7365  1.0199  0.4684
18754TIP3    H277754   0.639   3.223   4.332 -0.6908 -1.3929  1.6943
18755TIP3   OH277755   1.668   4.032  17.115  0.1523 -0.0874  0.4595
18755TIP3    H177756   1.661   3.940  17.091  0.5493 -0.1660  0.6461
18755TIP3    H277757   1.585   4.071  17.084  1.1195  0.0860 -2.2246
18756TIP3   OH277758   4.849   4.088   2.082  0.2624  0.0439 -0.2283
18756TIP3    H177759   4.823   4.100   2.173  1.3812 -0.0047  0.1193
18756TIP3    H277760   4.942   4.066   2.086 -0.0253 -1.5735 -1.2863
18757TIP3   OH277761   6.371   0.383  12.454  0.6709  0.5916 -0.3005
18757TIP3    H177762   6.322   0.350  12.530 -0.0747 -0.1662 -1.0872
18757TIP3    H277763   6.316   0.360  12.379  0.7838  2.4406 -0.9884
18758TIP3   OH277764   2.286   3.340   1.521  0.2291 -0.4767 -0.0556
18758TIP3    H177765   2.194   3.356   1.504 -0.2577  0.8905  3.1750
18758TIP3    H277766   2.288   3.260   1.573  0.6381  0.3804  1.3018
18759TIP3   OH277767   3.988   6.290  14.145  0.8763 -0.0559 -0.2314
18759TIP3    H177768   3.942   6.249  14.218 -0.2521 -0.0453 -0.9150
18759TIP3    H277769   4.081   6.274  14.163  0.6600  0.5673  1.5488
18760TIP3   OH277770   1.499   2.155  16.259  0.1315 -0.3447 -0.5847
18760TIP3    H177771   1.417   2.147  16.211 -0.6971  0.7804  0.5858
18760TIP3    H277772   1.487   2.101  16.337 -0.6118  1.9168  0.9710
18761TIP3   OH277773   6.005   6.505   1.077 -0.4590 -0.0322 -0.2738
18761TIP3    H177774   6.009   6.589   1.030  0.8364  0.4139  0.5792
18761TIP3    H277775   6.009   6.439   1.007 -1.0256  0.6049 -0.9295
18762TIP3   OH277776   0.506   2.276  15.686  0.0834  0.1201  0.0146
18762TIP3    H177777   0.541   2.199  15.642 -0.0350 -1.3240  2.2836
18762TIP3    H277778   0.582   2.332  15.703  0.2729  0.1853 -0.9823
18763TIP3   OH277779   0.697   5.419  12.586  0.6363  0.3500  0.2019
18763TIP3    H177780   0.732   5.394  12.500  1.7080  1.3191  0.3334
18763TIP3    H277781   0.735   5.505  12.603  0.1536  0.3244  1.4930
18764TIP3   OH277782   3.649   6.627  16.071 -0.9606 -0.1629  0.3345
18764TIP3    H177783   3.605   6.565  16.013  0.2187  0.3706 -1.2222
18764TIP3    H277784   3.715   6.575  16.117  0.6348  0.0024 -1.6222
18765TIP3   OH277785   4.394   4.277   4.888  0.0176 -0.3594 -0.2018
18765TIP3    H177786   4.378   4.370   4.874 -0.4359 -0.2087  1.1064
18765TIP3    H277787   4.460   4.274   4.957  1.8365 -1.0261 -1.8969
18766TIP3   OH277788   6.083   5.544   4.580 -0.3479 -0.2849  0.0734
18766TIP3    H177789   6.016   5.612   4.587 -0.6653 -0.6215  0.3158
18766TIP3    H277790   6.166   5.591   4.587 -0.5558  0.1444 -0.3197
18767TIP3   OH277791   1.108   3.758  15.349 -0.0077 -0.2086  0.0446
18767TIP3    H177792   1.188   3.715  15.379 -0.8921 -1.1535  1.1337
18767TIP3    H277793   1.112   3.846  15.386  0.6402 -0.1650 -0.1243
18768TIP3   OH277794   2.333   3.059   2.236  0.2753 -0.0635  0.2747
18768TIP3    H177795   2.274   3.032   2.306 -1.3933 -0.1194 -1.1105
18768TIP3    H277796   2.381   2.979   2.214  0.3051 -0.2096  0.8452
18769TIP3   OH277797   5.324   3.624   2.260 -0.2210 -0.2108 -0.8371
18769TIP3    H177798   5.290   3.536   2.240 -0.9046 -0.7829  2.3673
18769TIP3    H277799   5.248   3.672   2.293  0.7119  0.7136  0.0156
18770TIP3   OH277800   4.183   1.716   6.540  0.6142 -0.0663 -0.2569
18770TIP3    H177801   4.109   1.666   6.575  0.0610  1.4724  0.8766
18770TIP3    H277802   4.231   1.653   6.487 -1.0022 -1.3473 -0.2882
18771TIP3   OH277803   3.059   3.883   3.483  0.2774 -0.0138  0.4389
18771TIP3    H177804   3.061   3.891   3.388 -0.2609 -0.2886  0.3973
18771TIP3    H277805   3.022   3.965   3.514 -0.3934 -0.2782  0.3495
18772TIP3   OH277806   0.983   6.032  16.218 -0.0801 -0.0562  0.3849
18772TIP3    H177807   0.890   6.053  16.207 -0.7914 -2.5214  1.1104
18772TIP3    H277808   1.000   6.047  16.311 -0.0490 -0.6997  0.4815
18773TIP3   OH277809   0.244   6.701   2.240 -0.0154 -0.3469  0.0573
18773TIP3    H177810   0.193   6.622   2.256  1.5013 -1.2077  0.9085
18773TIP3    H277811   0.189   6.754   2.182 -2.1196 -0.9193  1.4129
18774TIP3   OH277812   0.649   1.623   3.806  0.2920 -0.5101  0.0212
18774TIP3    H177813   0.651   1.666   3.721  0.5234  0.8670  0.6970
18774TIP3    H277814   0.645   1.530   3.786 -1.9564 -0.1590 -1.4964
18775TIP3   OH277815   3.872   4.218  12.406  0.0734  0.2122 -0.2209
18775TIP3    H177816   3.860   4.219  12.501  1.4608 -0.5013 -0.0160
18775TIP3    H277817   3.915   4.135  12.388  1.4808  1.1096 -1.2512
18776TIP3   OH277818   5.527   4.894   2.968 -0.0961  0.7819  0.3967
18776TIP3    H177819   5.592   4.954   2.930  0.0500 -0.6317 -1.7806
18776TIP3    H277820   5.574   4.850   3.039  0.9078  0.7621 -0.2527
18777TIP3   OH277821   1.203   5.811  12.726  0.1801  0.1294 -0.2858
18777TIP3    H177822   1.118   5.767  12.731  0.0139  0.5615  1.2751
18777TIP3    H277823   1.260   5.757  12.781  0.3727  0.9583  0.3547
18778TIP3   OH277824   6.788   4.944  15.573  0.2026  0.1519  0.2814
18778TIP3    H177825   6.799   4.885  15.648  2.1367  0.3865  0.2454
18778TIP3    H277826   6.846   5.018  15.593 -1.5777  1.7137 -0.0413
18779TIP3   OH277827   4.918   1.421   2.668 -0.4249  0.3706  0.5746
18779TIP3    H177828   4.893   1.457   2.583 -1.1236  0.2609  0.7274
18779TIP3    H277829   4.947   1.497   2.719  1.3219  0.2591 -0.2065
18780TIP3   OH277830   4.636   0.653  13.745 -0.5999 -0.0794 -0.0203
18780TIP3    H177831   4.563   0.601  13.779 -0.6150  0.1834  0.3528
18780TIP3    H277832   4.648   0.622  13.656 -0.6621 -0.6726  0.1734
18781TIP3   OH277833   5.323   2.681  14.370  0.1771  0.1436 -0.3942
18781TIP3    H177834   5.385   2.655  14.302  1.9150  0.0138  1.1508
18781TIP3    H277835   5.285   2.598  14.400 -0.3368  0.1699 -0.9657
18782TIP3   OH277836   4.584   4.961  15.165  0.6288 -0.1062 -0.4093
18782TIP3    H177837   4.595   4.906  15.088 -0.0774 -0.2863 -0.3866
18782TIP3    H277838   4.532   5.036  15.135 -1.0229 -0.9502  0.2182
18783TIP3   OH277839   2.396   2.381   0.111 -0.0240  0.1106 -0.0161
18783TIP3    H177840   2.478   2.364   0.065 -0.0296  0.5968 -0.2105
18783TIP3    H277841   2.335   2.314   0.078 -0.1200  0.6453 -0.9541
18784TIP3   OH277842   3.721   5.623   2.840  0.1692  0.2026  0.0144
18784TIP3    H177843   3.681   5.661   2.762 -0.5963 -0.2720  0.1720
18784TIP3    H277844   3.725   5.529   2.822 -2.0674 -0.2356  1.4063
18785TIP3   OH277845   3.824   5.325   2.104  0.3715 -0.1658  0.1448
18785TIP3    H177846   3.864   5.287   2.182  1.2897  1.0196  0.2652
18785TIP3    H277847   3.852   5.416   2.103 -1.4439  0.4364 -0.3792
18786TIP3   OH277848   6.674   3.653  11.914 -0.3313 -0.4633 -0.0793
18786TIP3    H177849   6.597   3.648  11.971 -0.2172 -0.4693  0.0754
18786TIP3    H277850   6.650   3.716  11.847 -0.8636 -1.2369 -0.6332
18787TIP3   OH277851   6.195   2.978  16.703 -0.5038  0.3017 -0.2694
18787TIP3    H177852   6.149   2.960  16.621 -0.4859  0.2707 -0.2727
18787TIP3    H277853   6.286   2.993  16.676 -0.3230 -0.5626 -0.1662
18788TIP3   OH277854   5.002   3.095  14.564  0.3495  0.0745 -0.2877
18788TIP3    H177855   5.029   3.173  14.515 -0.6593  0.1273 -0.7895
18788TIP3    H277856   5.063   3.027  14.537  0.0629  0.2147 -1.3291
18789TIP3   OH277857   0.653   5.248  16.611  0.0269  0.5852  0.5836
18789TIP3    H177858   0.615   5.317  16.666 -0.3270  0.0075  1.0708
18789TIP3    H277859   0.577   5.200  16.578  0.1772  1.3974 -1.0752
18790TIP3   OH277860   0.790   3.045   3.148 -0.4323  0.1963  0.9981
18790TIP3    H177861   0.748   3.101   3.083 -0.5672 -1.5043 -0.4760
18790TIP3    H277862   0.758   3.076   3.232  0.3631  3.0051  0.3666
18791TIP3   OH277863   5.656   4.056  14.699  0.3370  0.2266  0.0105
18791TIP3    H177864   5.723   4.004  14.744  2.0706  0.5445 -2.0568
18791TIP3    H277865   5.686   4.059  14.608 -2.4119  0.5624 -0.9592
18792TIP3   OH277866   2.281   3.893   2.877  0.1878 -0.4218 -0.2351
18792TIP3    H177867   2.320   3.845   2.951 -2.7905  0.7874  2.3324
18792TIP3    H277868   2.213   3.835   2.845 -1.6611  0.8613  1.1617
18793TIP3   OH277869   5.261   6.204   2.726 -0.2091 -0.5161 -0.0520
18793TIP3    H177870   5.215   6.124   2.752  0.3711 -0.8572 -0.0740
18793TIP3    H277871   5.246   6.210   2.631  0.3378 -0.9757 -0.1673
18794TIP3   OH277872   3.721   2.911  12.655 -0.0859 -0.8717 -0.0201
18794TIP3    H177873   3.691   2.965  12.583  0.3597 -1.3440 -0.5783
18794TIP3    H277874   3.646   2.902  12.713  0.0283  0.9142  0.4531
18795TIP3   OH277875   1.650   5.899   2.874  0.7081  0.4003  0.5082
18795TIP3    H177876   1.658   5.969   2.939  0.9512  0.0057  0.9122
18795TIP3    H277877   1.566   5.916   2.831  0.7417  0.9087  0.6387
18796TIP3   OH277878   5.919   5.838   1.865 -0.6716 -0.1150 -0.0125
18796TIP3    H177879   5.932   5.811   1.775 -0.1773  0.3152 -0.0795
18796TIP3    H277880   5.864   5.916   1.860 -1.1430 -0.4349  0.1018
18797TIP3   OH277881   2.302   6.441   2.344 -0.6667 -0.0508  0.3806
18797TIP3    H177882   2.386   6.433   2.298 -0.9049  1.1330 -0.2955
18797TIP3    H277883   2.326   6.465   2.434 -0.2672 -0.2360  0.3261
18798TIP3   OH277884   1.444   4.711   5.276 -0.2243  0.3509 -0.0079
18798TIP3    H177885   1.508   4.753   5.217 -0.7993  0.5041 -0.5310
18798TIP3    H277886   1.496   4.648   5.326  0.2911  0.2920 -0.6038
18799TIP3   OH277887   5.585   5.452  12.422  0.2010 -0.5038  0.6887
18799TIP3    H177888   5.563   5.417  12.336 -0.2006 -0.8918  0.9425
18799TIP3    H277889   5.651   5.392  12.456  0.8456  0.0184  0.3917
18800TIP3   OH277890   1.441   5.012   0.199 -0.1795  0.3316  0.1270
18800TIP3    H177891   1.389   4.991   0.121 -1.2862  0.9811  0.6728
18800TIP3    H277892   1.448   5.107   0.199 -0.3052  0.3494  0.8829
18801TIP3   OH277893   1.969   1.959  15.974 -0.0556  0.0742 -0.7240
18801TIP3    H177894   2.006   1.900  16.041 -3.1148  0.5617  1.6218
18801TIP3    H277895   2.033   2.030  15.968  0.5442 -0.1858  1.4374
18802TIP3   OH277896   0.789   6.086  15.299  0.8477  0.5120  0.0057
18802TIP3    H177897   0.707   6.044  15.324  0.7471  0.1176 -0.9601
18802TIP3    H277898   0.797   6.161  15.358  0.2016  0.0879  0.6445
18803TIP3   OH277899   5.491   4.056   4.398  0.0096 -0.4245 -0.4987
18803TIP3    H177900   5.403   4.073   4.432 -0.1039  0.6254 -1.2728
18803TIP3    H277901   5.483   4.069   4.303  0.8782 -0.8712 -0.6416
18804TIP3   OH277902   6.595   0.758  16.179 -0.4889 -0.2174  0.2579
18804TIP3    H177903   6.517   0.813  16.178 -0.1436  0.2996  0.7381
18804TIP3    H277904   6.646   0.790  16.254  0.4215 -0.2100 -0.3472
18805TIP3   OH277905   2.309   0.036   4.729  0.5088  0.2602 -0.2518
18805TIP3    H177906   2.396   0.076   4.721  0.7097 -0.3591 -1.2443
18805TIP3    H277907   2.251   0.096   4.684  0.5992  0.1195 -0.5585
18806TIP3   OH277908   3.179   3.776  16.154 -0.0604 -0.1515  0.4716
18806TIP3    H177909   3.182   3.704  16.217  0.8510 -0.7573 -0.2227
18806TIP3    H277910   3.086   3.798  16.146 -0.1544  0.2053  2.2893
18807TIP3   OH277911   1.151   1.457  13.912 -0.0662 -0.7341 -0.5261
18807TIP3    H177912   1.128   1.457  13.819  1.6128  1.7711 -1.0202
18807TIP3    H277913   1.235   1.412  13.916  0.8850  0.9625 -0.5788
18808TIP3   OH277914   1.829   4.907  17.210  0.1031  0.0560 -0.1189
18808TIP3    H177915   1.855   4.817  17.189 -1.4867 -0.5798  0.5241
18808TIP3    H277916   1.907   4.959  17.188  1.1457 -1.4811 -0.2863
18809TIP3   OH277917   3.206   5.174  15.875  0.4155  0.1495  0.7955
18809TIP3    H177918   3.293   5.144  15.850  0.6256  1.4022 -0.0239
18809TIP3    H277919   3.177   5.110  15.940  2.2894  0.1777  1.7252
18810TIP3   OH277920   5.405   3.505   5.779 -0.0760 -0.5066 -0.5678
18810TIP3    H177921   5.420   3.599   5.777  0.7318 -0.5988  0.2604
18810TIP3    H277922   5.364   3.489   5.864  1.2779 -1.0908 -0.0072
18811TIP3   OH277923   3.943   0.170   5.928  0.0017 -0.0933 -0.5888
18811TIP3    H177924   3.987   0.141   6.008 -1.0162 -1.0244 -0.3530
18811TIP3    H277925   3.901   0.252   5.952 -0.9872 -0.7730  0.0947
18812TIP3   OH277926   4.077   5.482   5.472  0.4528 -0.7973 -0.0628
18812TIP3    H177927   4.104   5.544   5.404  0.4912 -0.8929 -0.1350
18812TIP3    H277928   4.044   5.406   5.424 -1.3834 -0.0927 -0.0036
18813TIP3   OH277929   6.387   2.204   6.279  0.4060  0.0196 -0.6736
18813TIP3    H177930   6.429   2.285   6.248 -1.9969  1.6341 -0.0026
18813TIP3    H277931   6.445   2.172   6.348  1.6046  0.9669 -1.1945
18814TIP3   OH277932   1.196   6.662  12.142  0.8945  0.1339  0.4088
18814TIP3    H177933   1.159   6.601  12.078 -1.5534  1.4251  0.4740
18814TIP3    H277934   1.262   6.711  12.093 -0.1962  0.3828 -0.8650
18815TIP3   OH277935   4.894   3.283   4.349  0.2041 -0.1798  0.5905
18815TIP3    H177936   4.803   3.255   4.339  0.2486  0.1671 -1.1846
18815TIP3    H277937   4.944   3.218   4.300  0.7087  0.6534 -0.0191
18816TIP3   OH277938   5.258   4.265   4.724  0.2789  0.5723 -0.2713
18816TIP3    H177939   5.255   4.220   4.640  0.1391  1.0941 -0.5473
18816TIP3    H277940   5.223   4.352   4.706 -3.2684 -0.4393  1.0642
18817TIP3   OH277941   6.304   4.658   2.368 -0.4981  0.2421  0.2761
18817TIP3    H177942   6.318   4.704   2.285  1.5768 -0.3722  0.2318
18817TIP3    H277943   6.212   4.634   2.366 -0.9502  1.8691 -0.9909
18818TIP3   OH277944   1.326   4.136   2.023 -0.2797 -0.0684  0.1338
18818TIP3    H177945   1.404   4.150   1.969  0.1920 -2.1667  0.1711
18818TIP3    H277946   1.260   4.103   1.963  0.7038 -3.8819  0.8842
18819TIP3   OH277947   6.202   0.395  13.714 -0.5656 -0.2540 -0.0605
18819TIP3    H177948   6.249   0.442  13.783  1.3425 -3.3321  0.9323
18819TIP3    H277949   6.180   0.463  13.651  1.5806  2.0535  1.4439
18820TIP3   OH277950   3.298   6.146  11.579 -0.3435 -0.4452  0.2960
18820TIP3    H177951   3.250   6.068  11.551 -1.1442 -0.1712  0.8731
18820TIP3    H277952   3.358   6.165  11.507 -1.9789 -0.0494 -0.9987
18821TIP3   OH277953   1.859   0.968  11.239  0.4419 -0.7528  0.0000
18821TIP3    H177954   1.810   0.965  11.157  1.5513  0.7899 -0.7842
18821TIP3    H277955   1.884   0.877  11.256 -1.4060 -1.3553 -0.3336
18822TIP3   OH277956   0.696   0.375  13.026 -0.0746 -0.2521  0.3951
18822TIP3    H177957   0.785   0.404  13.005  0.4565 -1.7066  0.4991
18822TIP3    H277958   0.640   0.424  12.966  0.8507  0.3206 -0.0174
18823TIP3   OH277959   4.884   2.018   3.894  0.1241  0.1194 -0.2174
18823TIP3    H177960   4.964   2.052   3.853  0.4189  2.7247  2.2632
18823TIP3    H277961   4.813   2.065   3.850  0.3774  2.1144  1.3836
18824TIP3   OH277962   1.667   3.984   2.678 -0.2057 -0.1362  0.1937
18824TIP3    H177963   1.713   4.021   2.603 -1.1233 -1.1409 -0.9031
18824TIP3    H277964   1.719   4.011   2.754  2.3676 -1.4349 -0.9731
18825TIP3   OH277965   1.605   1.288   1.489  0.2968 -0.1935 -0.1879
18825TIP3    H177966   1.622   1.226   1.561 -0.5915 -1.1912 -0.8021
18825TIP3    H277967   1.661   1.258   1.418  1.7425  1.2469  0.2831
18826TIP3   OH277968   1.519   3.859  14.775 -0.4297 -0.4171 -0.0618
18826TIP3    H177969   1.519   3.920  14.701 -0.4830 -0.5325 -0.1572
18826TIP3    H277970   1.513   3.915  14.852  0.7430 -0.2422 -0.0917
18827TIP3   OH277971   2.573   1.301  13.864  0.3225  0.0610 -0.5509
18827TIP3    H177972   2.586   1.324  13.956  2.0645 -1.8556 -0.2342
18827TIP3    H277973   2.568   1.205  13.864  2.1187 -0.1127 -2.5743
18828TIP3   OH277974   3.052   2.827  14.081  0.0019  0.7010 -0.1184
18828TIP3    H177975   3.109   2.893  14.042  0.4647  0.6420  0.4480
18828TIP3    H277976   3.009   2.873  14.153 -1.2394  0.9557 -0.9941
18829TIP3   OH277977   2.390   2.444   2.464 -1.0755  0.5625 -0.0884
18829TIP3    H177978   2.378   2.455   2.370 -0.9966 -0.7513 -0.2820
18829TIP3    H277979   2.485   2.442   2.476 -1.0696 -0.4435 -0.1689
18830TIP3   OH277980   0.219   1.549   2.860 -0.7400  0.3010  0.1085
18830TIP3    H177981   0.209   1.572   2.953  0.2741  0.3648  0.2060
18830TIP3    H277982   0.302   1.502   2.855 -0.0810  1.5075 -0.9770
18831TIP3   OH277983   2.360   5.818  15.693 -0.7360 -0.5687  0.4326
18831TIP3    H177984   2.277   5.809  15.646 -1.6049  0.5562  1.6538
18831TIP3    H277985   2.366   5.912  15.711 -0.3361 -0.9178  2.3296
18832TIP3   OH277986   0.972   0.354   2.257  0.5154  0.0370  0.0377
18832TIP3    H177987   0.966   0.373   2.350 -0.5950  1.4163 -0.2611
18832TIP3    H277988   1.065   0.356   2.237  0.7703 -0.4912  1.1462
18833TIP3   OH277989   4.955   5.847  12.338  0.0507 -0.0583 -0.0215
18833TIP3    H177990   5.008   5.867  12.260  0.7120  3.0501  1.1093
18833TIP3    H277991   4.886   5.914  12.338 -1.9203 -1.9722  0.3994
18834TIP3   OH277992   4.857   2.903   6.018  0.3775  0.0610  0.5974
18834TIP3    H177993   4.835   2.832   5.958 -0.7754  0.7433  0.1675
18834TIP3    H277994   4.796   2.892   6.091 -1.2043  1.7185 -0.3930
18835TIP3   OH277995   5.002   5.313  15.423  0.0824 -0.0127 -0.3763
18835TIP3    H177996   4.964   5.268  15.348  0.0883  0.8155 -0.8868
18835TIP3    H277997   5.087   5.272  15.435 -0.1888 -0.5954 -0.4061
18836TIP3   OH277998   4.401   3.653   5.780  0.6625 -0.1806 -0.0686
18836TIP3    H177999   4.494   3.661   5.801  0.1691  2.2373  1.7182
18836TIP3    H278000   4.366   3.741   5.795 -1.6751 -0.6525 -2.1148
18837TIP3   OH278001   6.490   3.642   4.172 -0.3098 -0.1946 -0.8310
18837TIP3    H178002   6.560   3.704   4.150 -0.5544 -0.4366 -2.4573
18837TIP3    H278003   6.427   3.694   4.222 -0.4269  0.8638 -2.0202
18838TIP3   OH278004   6.723   6.280   0.561  0.0332 -0.3114 -0.0999
18838TIP3    H178005   6.709   6.354   0.501 -1.0740  0.4963  1.0951
18838TIP3    H278006   6.658   6.215   0.534 -0.0003 -0.2372 -0.1991
18839TIP3   OH278007   2.648   3.131  11.811  0.2288 -0.9618  0.5931
18839TIP3    H178008   2.573   3.134  11.870  0.0092 -1.2149  0.3327
18839TIP3    H278009   2.639   3.208  11.756  0.7167 -0.4442  1.2216
18840TIP3   OH278010   1.808   5.524   0.731  0.1262 -0.2793 -0.2822
18840TIP3    H178011   1.868   5.450   0.745  1.0670  0.3258 -0.9774
18840TIP3    H278012   1.761   5.502   0.651  1.2680  0.3821 -1.1768
18841TIP3   OH278013   0.491   0.346   1.113 -0.1275  0.4299  0.0752
18841TIP3    H178014   0.495   0.381   1.024  0.2090 -1.5991 -0.7744
18841TIP3    H278015   0.414   0.289   1.113 -0.3466  0.7049  1.2180
18842TIP3   OH278016   0.829   5.300   4.154  0.0758 -0.3740  0.2087
18842TIP3    H178017   0.844   5.206   4.164 -0.9292 -0.4154  1.6569
18842TIP3    H278018   0.733   5.309   4.150  0.1604  0.5918 -0.0036
18843TIP3   OH278019   2.526   4.187  15.508 -0.1425  0.1742  0.0649
18843TIP3    H178020   2.484   4.131  15.443 -0.9936 -1.9881  2.3430
18843TIP3    H278021   2.606   4.218  15.464 -0.2908 -1.7582 -1.7633
18844TIP3   OH278022   3.242   0.686   3.150  0.0685 -0.7175 -0.4884
18844TIP3    H178023   3.291   0.605   3.136 -1.8819 -1.9990 -0.2357
18844TIP3    H278024   3.175   0.686   3.082  0.8606  1.4060 -1.3451
18845TIP3   OH278025   2.595   2.193  14.719 -0.1110  0.4022  0.1404
18845TIP3    H178026   2.647   2.210  14.797 -0.7099  0.3306  0.5657
18845TIP3    H278027   2.636   2.117  14.678  0.3809  0.6189  0.2245
18846TIP3   OH278028   6.482   6.820  14.363 -0.0818 -0.7003 -0.4101
18846TIP3    H178029   6.398   6.786  14.332 -0.3214 -0.3825 -0.1102
18846TIP3    H278030   6.532   6.742  14.386 -0.2578 -0.8962 -0.6756
18847TIP3   OH278031   2.545   5.900  16.129 -0.1890 -0.2657 -0.4016
18847TIP3    H178032   2.599   5.831  16.091 -0.3389 -0.6016 -0.0130
18847TIP3    H278033   2.543   5.968  16.062  1.7722  0.3218  0.0849
18848TIP3   OH278034   4.569   4.149   2.226  0.1560 -0.8933 -0.6726
18848TIP3    H178035   4.489   4.158   2.278  0.1589 -0.3979 -0.7449
18848TIP3    H278036   4.626   4.095   2.279  1.2509  1.8522  1.1950
18849TIP3   OH278037   2.405   0.148  13.989  0.4397 -0.3344 -0.3164
18849TIP3    H178038   2.465   0.170  13.918  0.5550 -0.3303 -0.2192
18849TIP3    H278039   2.332   0.209  13.978  2.2712  2.5544  1.9561
18850TIP3   OH278040   6.565   6.697  12.595  0.0445  0.8920  0.2291
18850TIP3    H178041   6.544   6.787  12.572 -0.4554  0.6389 -0.3175
18850TIP3    H278042   6.579   6.653  12.512  0.1715  0.4345  0.4865
18851TIP3   OH278043   6.772   2.755  16.455  0.0174 -0.0308  0.4232
18851TIP3    H178044   6.856   2.752  16.410  0.4349  0.3598  1.1541
18851TIP3    H278045   6.794   2.744  16.548 -0.8896 -1.6498  0.4847
18852TIP3   OH278046   4.212   5.665   0.962 -0.7028 -0.1732  0.3736
18852TIP3    H178047   4.294   5.621   0.940 -0.8607 -0.2525 -0.0546
18852TIP3    H278048   4.239   5.739   1.016 -0.2555  0.3819 -0.5811
18853TIP3   OH278049   5.838   3.515   6.735 -0.3216  0.1844  0.1935
18853TIP3    H178050   5.768   3.530   6.671 -1.5187 -1.6319  0.9919
18853TIP3    H278051   5.793   3.514   6.820  0.8010 -0.2021  0.8047
18854TIP3   OH278052   5.390   4.803  14.304 -0.3972  0.0275  0.2112
18854TIP3    H178053   5.430   4.797  14.217  2.8109 -2.4488  1.6192
18854TIP3    H278054   5.354   4.715  14.320 -2.9523  1.0687  0.6239
18855TIP3   OH278055   5.315   1.584   3.346 -0.1586  0.0729  0.5740
18855TIP3    H178056   5.275   1.667   3.370  0.9951  0.6048  0.6842
18855TIP3    H278057   5.274   1.561   3.263  0.7770  1.6571 -0.3742
18856TIP3   OH278058   6.785   0.671   1.483 -0.7394  0.3739 -0.7971
18856TIP3    H178059   6.766   0.606   1.550 -3.1341  0.9614 -0.8037
18856TIP3    H278060   6.786   0.755   1.529  0.3850  0.5387 -1.0896
18857TIP3   OH278061   4.258   1.485  13.012  0.2186  0.3270  0.0979
18857TIP3    H178062   4.230   1.473  13.102 -0.1719 -0.9666 -0.1700
18857TIP3    H278063   4.293   1.400  12.986  0.2495  0.6529 -0.9917
18858TIP3   OH278064   2.760   3.946   3.261 -0.0248 -0.3671  0.4635
18858TIP3    H178065   2.736   4.002   3.187 -1.6417 -1.5482  0.0406
18858TIP3    H278066   2.856   3.946   3.260  0.0323 -0.9613 -2.1296
18859TIP3   OH278067   5.426   6.225   2.380 -0.0605 -0.2308 -0.3912
18859TIP3    H178068   5.422   6.134   2.410  1.4030 -0.1714  0.0972
18859TIP3    H278069   5.469   6.272   2.452 -1.8633  1.1057 -0.1248
18860TIP3   OH278070   0.942   2.233  10.968  0.6538 -0.2234  0.3494
18860TIP3    H178071   1.030   2.209  10.997  1.3347 -0.9801 -2.0646
18860TIP3    H278072   0.957   2.285  10.889 -1.0656  0.8209  0.6546
18861TIP3   OH278073   2.635   1.483  16.142  0.0794  0.4052  0.3065
18861TIP3    H178074   2.601   1.394  16.127  1.3997 -0.2822  1.1790
18861TIP3    H278075   2.710   1.470  16.201 -0.4796  2.2351  1.5020
18862TIP3   OH278076   6.589   5.692  14.952  0.0512 -0.4555 -0.3176
18862TIP3    H178077   6.681   5.681  14.927  0.3143 -0.0800  0.4283
18862TIP3    H278078   6.589   5.676  15.047 -0.1262  2.3580  0.2343
18863TIP3   OH278079   1.821   0.009  17.030 -0.8700  0.2951 -0.6475
18863TIP3    H178080   1.762   0.003  17.105 -0.9526 -0.1319 -0.7434
18863TIP3    H278081   1.765  -0.010  16.955 -0.4234 -1.0590 -0.6642
18864TIP3   OH278082   1.958   5.652  13.203  0.2271  0.6150 -0.8588
18864TIP3    H178083   1.967   5.747  13.192  1.0793  0.5008 -1.2273
18864TIP3    H278084   1.869   5.632  13.172 -0.6839  1.5432  1.0129
18865TIP3   OH278085   2.723   0.022  16.412 -0.2625  0.4018 -0.1403
18865TIP3    H178086   2.656   0.090  16.419 -1.6764 -1.0499  1.3239
18865TIP3    H278087   2.675  -0.060  16.427  1.4531 -0.9052 -1.3965
18866TIP3   OH278088   4.302   4.106   3.677 -0.0796 -0.8818  0.0167
18866TIP3    H178089   4.220   4.063   3.702 -0.9045 -0.4089 -1.6770
18866TIP3    H278090   4.364   4.034   3.664 -0.6926 -1.3750 -0.2274
18867TIP3   OH278091   0.117   0.835  15.967 -0.2312 -0.7189  0.3725
18867TIP3    H178092   0.150   0.798  15.885  0.1298  0.3838  0.0114
18867TIP3    H278093   0.195   0.847  16.021 -0.4375 -1.1804  0.7839
18868TIP3   OH278094   1.449   3.894  11.089  0.5444  0.3140  0.2572
18868TIP3    H178095   1.514   3.829  11.060 -0.1127 -0.9734  1.5316
18868TIP3    H278096   1.367   3.866  11.048 -0.1227 -0.7761  2.2012
18869TIP3   OH278097   5.963   4.794   1.203 -0.4835 -0.2062  0.2402
18869TIP3    H178098   5.895   4.777   1.138 -0.3081 -1.2159  0.2954
18869TIP3    H278099   5.984   4.707   1.238  0.0340  0.2280  1.0269
18870TIP3   OH278100   1.072   5.610   4.856 -0.1051 -0.2587  0.4381
18870TIP3    H178101   1.149   5.558   4.879  1.0860  0.1108 -2.3132
18870TIP3    H278102   1.023   5.554   4.795  0.3601  1.1475 -1.2999
18871TIP3   OH278103   2.993   3.748  11.127  0.0588  0.4353 -0.0843
18871TIP3    H178104   3.048   3.691  11.073  1.2780  1.0012  0.4991
18871TIP3    H278105   3.036   3.746  11.213 -0.0247  2.0041  0.0104
18872TIP3   OH278106   4.225   4.157  13.856 -0.2771 -0.3033  0.5470
18872TIP3    H178107   4.227   4.244  13.894  1.6302 -0.6594  1.4151
18872TIP3    H278108   4.167   4.106  13.913 -1.4028  0.3726  0.0309
18873TIP3   OH278109   0.273   5.393  16.614 -0.3476  0.0296 -0.3221
18873TIP3    H178110   0.245   5.310  16.653 -2.6759  0.5768 -0.6793
18873TIP3    H278111   0.271   5.378  16.520 -0.6946  0.4408 -0.3861
18874TIP3   OH278112   0.067   4.129   3.716  0.4519 -0.6042  0.2417
18874TIP3    H178113   0.133   4.090   3.659 -0.2007 -3.3096  1.1873
18874TIP3    H278114  -0.002   4.063   3.722 -1.8388  1.6328  0.2270
18875TIP3   OH278115   6.281   2.827   5.584 -0.3032 -0.4254 -0.3219
18875TIP3    H178116   6.237   2.896   5.635 -1.5046 -0.5960 -1.0840
18875TIP3    H278117   6.349   2.874   5.535 -1.8999  0.4876 -1.7815
18876TIP3   OH278118   4.676   2.855  14.579  0.0676 -0.3870  0.2929
18876TIP3    H178119   4.699   2.947  14.572 -0.2491 -0.3749 -0.9205
18876TIP3    H278120   4.638   2.845  14.666  3.0058 -0.0650  1.7377
18877TIP3   OH278121   6.105   4.678  15.020 -0.4343  0.4347  0.6856
18877TIP3    H178122   6.041   4.687  15.090 -2.3438  0.4267 -0.9728
18877TIP3    H278123   6.143   4.765  15.010 -1.1586  0.7711  0.8211
18878TIP3   OH278124   6.166   5.710  10.419  0.1267 -0.1686  0.0107
18878TIP3    H178125   6.138   5.777  10.356  0.6400  0.5261  0.4989
18878TIP3    H278126   6.102   5.640  10.410 -1.3426  1.0295  0.5476
18879TIP3   OH278127   1.033   2.143   5.657  0.2198 -0.8392 -0.5491
18879TIP3    H178128   0.961   2.080   5.649  0.4149 -1.2506  0.7203
18879TIP3    H278129   1.112   2.090   5.657  0.3882 -0.6056  0.5009
18880TIP3   OH278130   3.094   6.266   1.975 -0.4617 -0.8069 -0.7109
18880TIP3    H178131   3.123   6.267   1.884  0.1950  0.2260 -0.5089
18880TIP3    H278132   3.171   6.241   2.025 -0.0337  1.3165 -0.2256
18881TIP3   OH278133   6.246   4.129  14.722  0.0127  0.4314 -0.3855
18881TIP3    H178134   6.193   4.198  14.684 -0.0324  0.6751  0.1104
18881TIP3    H278135   6.266   4.071  14.649  0.7494  1.4048 -0.9665
18882TIP3   OH278136   2.881   5.077  16.169  0.6731  0.0368 -0.2850
18882TIP3    H178137   2.878   5.123  16.253 -0.2022 -0.4933 -0.0115
18882TIP3    H278138   2.789   5.068  16.143  0.9548  2.0070 -2.3342
18883TIP3   OH278139   4.932   4.366   1.539  0.5772 -0.1124  0.2273
18883TIP3    H178140   5.006   4.426   1.542  2.0057 -1.8327  1.3947
18883TIP3    H278141   4.906   4.355   1.631  0.2011 -1.0813  0.0233
18884TIP3   OH278142   6.564   3.422  10.809  0.0112  0.1019 -0.1094
18884TIP3    H178143   6.647   3.407  10.854  0.5355  0.2904 -0.9740
18884TIP3    H278144   6.577   3.505  10.763 -1.5323  1.4134  1.6837
18885TIP3   OH278145   2.366   2.497   1.223  0.7029  0.1732 -0.5845
18885TIP3    H178146   2.388   2.414   1.179  2.0029 -0.1523  0.5791
18885TIP3    H278147   2.272   2.508   1.208  0.4187 -1.7020 -0.4654
18886TIP3   OH278148   4.771   2.752  12.449  0.2645  0.0498  0.6442
18886TIP3    H178149   4.780   2.804  12.369 -2.4907  0.1461  0.2889
18886TIP3    H278150   4.825   2.675  12.434  0.0323  0.2102 -1.2100
18887TIP3   OH278151   2.012   2.838  14.159 -0.3553  0.3757 -0.1369
18887TIP3    H178152   1.967   2.877  14.084  1.4561  0.7451 -1.0945
18887TIP3    H278153   1.948   2.776  14.195 -2.2172  2.0638 -0.3684
18888TIP3   OH278154   5.499   3.003   4.893  0.5741 -0.0882  0.1274
18888TIP3    H178155   5.504   2.908   4.882  1.7308 -0.0672  0.3284
18888TIP3    H278156   5.489   3.016   4.987  0.9665  0.0009  0.1584
18889TIP3   OH278157   1.095   6.394   5.395  0.2510  0.1174 -0.1478
18889TIP3    H178158   1.029   6.445   5.348 -0.7520 -0.6810  0.3497
18889TIP3    H278159   1.092   6.307   5.356 -0.4309 -0.4930  1.1861
18890TIP3   OH278160   2.852   1.930  13.932 -0.3675 -0.0753 -0.2943
18890TIP3    H178161   2.904   1.851  13.935  1.1524  0.9190  0.6348
18890TIP3    H278162   2.865   1.964  13.843  0.3008 -0.0149 -0.1775
18891TIP3   OH278163   1.501   2.273   5.702 -0.0752 -0.0046 -0.1137
18891TIP3    H178164   1.553   2.347   5.670  2.0786 -1.3904 -0.0565
18891TIP3    H278165   1.555   2.196   5.682 -2.1750 -1.5613 -0.0633
18892TIP3   OH278166   1.368   2.284   2.965 -0.2310 -0.3336  0.8078
18892TIP3    H178167   1.431   2.261   2.897 -1.4025  0.5158 -0.6017
18892TIP3    H278168   1.380   2.377   2.980 -0.0155 -0.4972  1.7732
18893TIP3   OH278169   6.284   0.281   3.095  0.2020  0.1996  0.2230
18893TIP3    H178170   6.291   0.193   3.058 -0.1082  0.6446 -0.9238
18893TIP3    H278171   6.367   0.295   3.140  0.6211 -0.3306 -0.3781
18894TIP3   OH278172   6.185   3.588   6.450 -0.1615  0.0972  0.3867
18894TIP3    H178173   6.169   3.682   6.437  0.5115 -0.0506 -2.1563
18894TIP3    H278174   6.156   3.571   6.539 -1.9099  2.3851  0.3738
18895TIP3   OH278175   3.076   4.635   1.235  0.0289 -0.3970  1.0079
18895TIP3    H178176   3.104   4.633   1.327 -0.4559  3.8710  1.4221
18895TIP3    H278177   2.995   4.687   1.236  0.6818  0.8355 -1.9417
18896TIP3   OH278178   1.846   6.760   0.683  0.2219 -0.0735  0.1363
18896TIP3    H178179   1.830   6.816   0.759  0.5232 -0.5188  0.5287
18896TIP3    H278180   1.845   6.821   0.609 -0.7659  0.2714  0.4133
18897TIP3   OH278181   6.399   4.001   1.967 -0.4114  0.0247  0.3149
18897TIP3    H178182   6.402   3.999   1.871  0.0654 -0.8300  0.3338
18897TIP3    H278183   6.306   3.994   1.988 -0.8151  3.0957 -0.0942
18898TIP3   OH278184   1.271   3.542  14.858 -0.2549 -0.4135  0.5138
18898TIP3    H178185   1.323   3.475  14.902  0.1781 -1.4792 -1.5241
18898TIP3    H278186   1.193   3.551  14.914 -0.3504 -2.6371  0.8568
18899TIP3   OH278187   3.078   6.580  13.683 -0.4967  0.3281  0.0719
18899TIP3    H178188   3.092   6.562  13.776  0.3167  1.4044  0.1819
18899TIP3    H278189   3.082   6.495  13.641 -2.1665 -0.3374  1.1558
18900TIP3   OH278190   4.499   5.588   3.867 -0.0316 -0.1641 -0.1705
18900TIP3    H178191   4.576   5.607   3.921  0.0648 -0.1156 -0.3233
18900TIP3    H278192   4.426   5.626   3.914  0.2737  1.4605 -0.9419
18901TIP3   OH278193   6.025   1.322  11.519  0.0475 -0.2452 -0.1541
18901TIP3    H178194   5.949   1.294  11.469 -0.4696 -1.9483  1.4553
18901TIP3    H278195   6.098   1.273  11.481 -0.2414 -1.0813  0.3407
18902TIP3   OH278196   6.668   4.873   3.777  0.1419  0.0001  0.3929
18902TIP3    H178197   6.606   4.809   3.742 -0.8012  0.7131  0.7119
18902TIP3    H278198   6.703   4.832   3.856 -0.4692 -0.1224  0.6076
18903TIP3   OH278199   6.752   3.848   3.333  0.1412  0.1431 -0.0851
18903TIP3    H178200   6.705   3.924   3.299 -0.0096 -0.1776 -0.5892
18903TIP3    H278201   6.726   3.775   3.277  2.2136  0.1972 -1.2265
18904TIP3   OH278202   2.919   3.107   1.448  0.0268 -0.2483 -0.3792
18904TIP3    H178203   2.922   3.050   1.372  1.5620 -0.9493  0.1602
18904TIP3    H278204   2.946   3.051   1.521  0.6565  0.9341  0.3254
18905TIP3   OH278205   1.291   1.790  14.085  0.4959  0.4047  0.4972
18905TIP3    H178206   1.269   1.697  14.083  0.2901  0.4513 -1.6237
18905TIP3    H278207   1.221   1.830  14.137 -0.6389 -0.3513 -0.4072
18906TIP3   OH278208   0.920   1.734  12.542 -0.0466  0.0425  0.7520
18906TIP3    H178209   0.878   1.788  12.609  0.2342 -0.1189  1.0596
18906TIP3    H278210   0.968   1.668  12.591 -0.4802 -0.5616  0.3693
18907TIP3   OH278211   0.663   5.565   1.235 -0.2280 -0.0167 -0.1624
18907TIP3    H178212   0.652   5.660   1.233 -1.6331 -0.0511  2.2406
18907TIP3    H278213   0.588   5.531   1.187 -0.0865  0.0853 -0.4537
18908TIP3   OH278214   4.527   2.440  13.372 -0.0934  0.1440 -0.5770
18908TIP3    H178215   4.573   2.455  13.455 -0.3990 -1.3344 -0.1134
18908TIP3    H278216   4.446   2.490  13.380 -0.0568  0.1175 -0.0373
18909TIP3   OH278217   3.700   0.450  12.266 -0.0490  0.0310  0.0395
18909TIP3    H178218   3.730   0.380  12.323  0.3565 -0.5879 -0.9086
18909TIP3    H278219   3.704   0.413  12.178 -0.0315  1.1708 -0.4628
18910TIP3   OH278220   5.819   2.030   3.247 -0.3070 -0.5695 -0.2023
18910TIP3    H178221   5.741   1.986   3.279 -0.5791 -0.5602 -0.8477
18910TIP3    H278222   5.851   2.079   3.323 -0.9643 -0.5169  0.0469
18911TIP3   OH278223   1.389   6.255   6.459  0.1003  0.4740 -0.0123
18911TIP3    H178224   1.453   6.231   6.391 -0.6468 -0.3838 -0.4272
18911TIP3    H278225   1.336   6.177   6.470 -0.3578  0.9102  0.9333
18912TIP3   OH278226   6.694   5.702   0.367 -0.1866 -0.1303 -0.4580
18912TIP3    H178227   6.655   5.636   0.425 -1.7936  1.7849  0.7917
18912TIP3    H278228   6.787   5.700   0.387 -0.7954  1.4138  3.4406
18913TIP3   OH278229   5.481   6.763   2.252 -0.6982  0.4265  0.1463
18913TIP3    H178230   5.519   6.740   2.337 -0.7425 -0.8509 -0.1708
18913TIP3    H278231   5.416   6.695   2.235 -0.4212  0.4460 -1.0886
18914TIP3   OH278232   3.478   6.742  12.949 -0.4268  0.3036 -0.1480
18914TIP3    H178233   3.383   6.743  12.960 -0.5180  3.5510 -0.3075
18914TIP3    H278234   3.507   6.827  12.983  1.9518  1.0421 -3.5640
18915TIP3   OH278235   1.579   3.311   5.404 -0.1872 -0.0260  0.7032
18915TIP3    H178236   1.625   3.289   5.323 -0.3275  0.5364  0.4662
18915TIP3    H278237   1.569   3.228   5.450 -0.0484 -0.3371  0.1705
18916TIP3   OH278238   6.462   6.734  16.022 -0.1301 -0.2708  0.1226
18916TIP3    H178239   6.413   6.816  16.025  1.1610  0.4746  1.3286
18916TIP3    H278240   6.470   6.707  16.113 -0.2428 -1.5720 -0.2342
18917TIP3   OH278241   4.643   0.829  11.683 -0.0206  0.0774  0.4119
18917TIP3    H178242   4.720   0.771  11.689 -1.0499 -1.5379 -1.1016
18917TIP3    H278243   4.652   0.888  11.758  1.9954 -0.9189  1.0299
18918TIP3   OH278244   4.183   4.649   1.012  0.6956  0.0376  0.2057
18918TIP3    H178245   4.266   4.603   1.022  1.2044  1.1452  1.5357
18918TIP3    H278246   4.121   4.583   0.981  1.3465 -1.5990  2.1989
18919TIP3   OH278247   0.324   1.606  16.253  0.4216 -0.5624  0.1658
18919TIP3    H178248   0.285   1.577  16.171  1.1757 -0.1501 -0.3410
18919TIP3    H278249   0.300   1.538  16.316 -0.3550 -0.7637 -0.3327
18920TIP3   OH278250   5.389   2.215  16.310 -0.2591 -0.5316  0.5181
18920TIP3    H178251   5.413   2.262  16.390 -2.4092  0.4040  0.6894
18920TIP3    H278252   5.395   2.280  16.240 -1.4554 -0.4596  0.4589
18921TIP3   OH278253   0.739   5.760   3.019 -0.9363  0.2007 -0.4366
18921TIP3    H178254   0.767   5.825   3.084 -0.0563 -0.2632 -0.3471
18921TIP3    H278255   0.643   5.767   3.018 -1.4930 -2.5795  4.0049
18922TIP3   OH278256   4.661   3.771  14.654  0.1023 -0.2207 -0.3019
18922TIP3    H178257   4.744   3.805  14.623 -0.4061  0.2173 -1.2286
18922TIP3    H278258   4.595   3.825  14.610 -0.6776 -1.1070 -0.2551
18923TIP3   OH278259   5.845   5.342   1.206 -0.4845 -0.2391  0.0724
18923TIP3    H178260   5.850   5.276   1.138 -0.0276 -0.3416  0.2083
18923TIP3    H278261   5.760   5.385   1.191 -0.8141 -0.8889  0.0226
18924TIP3   OH278262   5.692   2.554  12.369 -0.1052 -0.2286 -0.1754
18924TIP3    H178263   5.726   2.601  12.293  0.6981  1.4687  1.1672
18924TIP3    H278264   5.739   2.470  12.368  0.5213  0.1156 -1.0489
18925TIP3   OH278265   6.801   1.640   0.014 -0.3966 -0.0696  0.2579
18925TIP3    H178266   6.819   1.605   0.102 -0.5641  0.5717  0.5533
18925TIP3    H278267   6.880   1.622  -0.036 -1.0605 -2.3492 -0.0889
18926TIP3   OH278268   6.768   5.589  11.872  0.7338 -0.3684 -1.0382
18926TIP3    H178269   6.718   5.539  11.936  0.5141 -1.2363 -1.8575
18926TIP3    H278270   6.821   5.649  11.924 -0.7636  0.2193 -0.1298
18927TIP3   OH278271   2.110   3.866   4.515  0.9146 -0.1078  0.1186
18927TIP3    H178272   2.129   3.780   4.552 -0.2401 -0.8637 -0.9550
18927TIP3    H278273   2.034   3.897   4.564 -0.8583 -1.2771 -1.7242
18928TIP3   OH278274   3.965   3.927  11.792  0.8220  0.0416 -0.8899
18928TIP3    H178275   4.023   3.950  11.720  3.1217 -1.6289  0.3235
18928TIP3    H278276   3.992   3.839  11.818  0.4180  0.7477  2.2997
18929TIP3   OH278277   5.802   6.472  11.625  0.0315  0.1198  0.1675
18929TIP3    H178278   5.736   6.408  11.654  1.8784 -1.5928  0.7804
18929TIP3    H278279   5.793   6.473  11.530 -2.1602  1.4094  0.3229
18930TIP3   OH278280   5.013   1.751  11.746 -0.1100  0.1907  0.2870
18930TIP3    H178281   4.954   1.797  11.687 -0.5067 -0.7980 -0.1147
18930TIP3    H278282   5.094   1.802  11.744  0.4270 -0.6260 -2.3159
18931TIP3   OH278283   5.694   2.053   6.294 -0.1815 -0.2426 -0.1070
18931TIP3    H178284   5.624   2.106   6.254  0.1071 -0.9455 -1.5799
18931TIP3    H278285   5.666   2.043   6.386 -1.2955  0.6765 -0.3195
18932TIP3   OH278286   5.877   3.770   0.533 -0.0542  0.8144  1.0509
18932TIP3    H178287   5.914   3.689   0.568  1.6490  0.4497 -1.3747
18932TIP3    H278288   5.874   3.756   0.439 -0.9049  3.1327  0.6768
18933TIP3   OH278289   4.262   2.627  12.931 -0.5961 -0.3571  0.5667
18933TIP3    H178290   4.233   2.629  12.839 -0.3706  0.6030  0.5120
18933TIP3    H278291   4.356   2.609  12.925 -0.8915 -2.1686  0.6989
18934TIP3   OH278292   4.309   4.277   5.540 -0.5346 -0.0221  0.7493
18934TIP3    H178293   4.387   4.312   5.582 -1.5635  0.5459  2.2342
18934TIP3    H278294   4.342   4.202   5.489  0.8478 -0.3448  2.0353
18935TIP3   OH278295   3.352   5.766  11.523 -0.2459 -0.5080 -0.2181
18935TIP3    H178296   3.365   5.851  11.481  0.2126 -0.6701 -0.4110
18935TIP3    H278297   3.259   5.764  11.546 -0.4203 -0.2675 -0.8985
18936TIP3   OH278298   4.720   1.893   6.137 -0.5810 -0.2862 -0.1469
18936TIP3    H178299   4.640   1.863   6.180 -1.7097 -1.6997 -2.9324
18936TIP3    H278300   4.693   1.970   6.087  0.5213  0.9094  1.0198
18937TIP3   OH278301   5.830   0.859  16.548  0.1592 -0.2554  0.5561
18937TIP3    H178302   5.848   0.765  16.553 -0.2892 -0.3214  0.9409
18937TIP3    H278303   5.867   0.886  16.464 -0.9854 -1.0546 -0.2233
18938TIP3   OH278304   2.745   5.418   4.188 -0.0337  0.4332 -0.2948
18938TIP3    H178305   2.820   5.445   4.241  0.9574 -1.5655 -0.5766
18938TIP3    H278306   2.718   5.334   4.226 -0.7414  0.0654 -1.5695
18939TIP3   OH278307   6.481   2.930   3.170  0.2097 -0.5956 -0.5510
18939TIP3    H178308   6.539   3.004   3.185 -1.3437  0.7217 -0.7700
18939TIP3    H278309   6.529   2.875   3.107  1.1645  0.4945 -0.8156
18940TIP3   OH278310   0.245   5.769  14.098  0.1087 -0.2628  0.7118
18940TIP3    H178311   0.268   5.756  14.006 -2.9512 -0.7491 -0.1196
18940TIP3    H278312   0.166   5.823  14.095 -0.5732 -1.0210  3.0059
18941TIP3   OH278313   1.357   0.917  13.210 -0.5679 -0.0030 -0.8126
18941TIP3    H178314   1.308   0.985  13.256  0.2055 -0.1687  0.2760
18941TIP3    H278315   1.326   0.835  13.247  1.2766 -0.0794  0.7178
18942TIP3   OH278316   4.008   0.650  17.047 -0.0977 -0.5060  0.0664
18942TIP3    H178317   4.102   0.649  17.033 -0.1644 -0.2547 -0.4285
18942TIP3    H278318   3.974   0.710  16.980 -0.5181  0.0677  0.7699
18943TIP3   OH278319   1.936   5.669   4.548 -0.4392 -0.3854 -0.5480
18943TIP3    H178320   1.971   5.582   4.530 -0.5700 -0.4861 -0.3193
18943TIP3    H278321   1.971   5.724   4.478 -1.9801 -1.0134 -1.8679
18944TIP3   OH278322   2.093   1.213  10.084  0.3204  0.1186  1.1021
18944TIP3    H178323   2.134   1.141  10.134  2.8065 -0.0732 -0.9885
18944TIP3    H278324   2.148   1.289  10.103 -0.5673  0.7814  1.0537
18945TIP3   OH278325   3.540   0.266  11.302  0.1363 -0.3247 -0.3123
18945TIP3    H178326   3.603   0.338  11.308 -1.4286  1.0041  0.9218
18945TIP3    H278327   3.538   0.244  11.209  2.0879 -0.1350 -0.4415
18946TIP3   OH278328   4.955   3.259  13.658 -0.2691 -0.3817  0.0242
18946TIP3    H178329   4.956   3.317  13.582 -0.8369 -0.3438  0.0424
18946TIP3    H278330   4.975   3.316  13.732 -2.5566  0.1699  0.2823
18947TIP3   OH278331   5.096   2.063  10.876 -0.1483 -0.1340  0.0621
18947TIP3    H178332   5.122   2.039  10.788  0.8305 -0.4960  0.4357
18947TIP3    H278333   5.062   2.153  10.868  0.9423  0.2337 -0.5006
18948TIP3   OH278334   5.868   1.958   0.670  0.2051 -0.4753 -0.4130
18948TIP3    H178335   5.869   1.966   0.765  0.8160 -0.1325 -0.4398
18948TIP3    H278336   5.792   2.009   0.642  0.5101  0.1310 -0.1574
18949TIP3   OH278337   2.615   6.614  16.934  0.2527  0.6909 -0.3165
18949TIP3    H178338   2.521   6.615  16.916  0.4619 -0.0029 -1.5464
18949TIP3    H278339   2.656   6.631  16.849  1.2571  0.2337  0.0628
18950TIP3   OH278340   2.217   2.376   0.949  0.7519  0.5041 -0.1275
18950TIP3    H178341   2.162   2.370   1.027  1.9572 -1.5153  0.6250
18950TIP3    H278342   2.301   2.337   0.975  0.6958 -1.7349 -2.8434
18951TIP3   OH278343   1.278   1.965   5.075 -1.0142  0.2009  0.4767
18951TIP3    H178344   1.265   1.932   4.986  2.3018  0.2129 -0.1520
18951TIP3    H278345   1.295   1.886   5.127  1.1625  0.4153  0.1715
18952TIP3   OH278346   5.747   5.319  15.426  0.3127  0.3766 -0.6606
18952TIP3    H178347   5.671   5.288  15.476  0.9842  0.8187  0.6760
18952TIP3    H278348   5.715   5.324  15.336 -0.6250 -1.5058 -0.4992
18953TIP3   OH278349   4.056   5.201  17.133  0.2458 -0.1552  0.6680
18953TIP3    H178350   4.134   5.211  17.078 -1.1042 -0.0643 -1.3447
18953TIP3    H278351   4.090   5.189  17.221  2.5447 -0.4986 -0.1949
18954TIP3   OH278352   2.440   5.375   6.048 -0.1253  0.1361 -0.4781
18954TIP3    H178353   2.360   5.332   6.019 -1.2352  1.1719  0.8636
18954TIP3    H278354   2.506   5.306   6.049 -0.9169 -0.6917 -1.8484
18955TIP3   OH278355   2.588   2.342   3.186  0.3537 -0.1559  0.1896
18955TIP3    H178356   2.520   2.402   3.217  0.8025  0.9672 -0.8888
18955TIP3    H278357   2.608   2.373   3.097  2.8554  0.0942  0.7705
18956TIP3   OH278358   1.094   2.130   0.900 -0.5013  0.1777 -0.6529
18956TIP3    H178359   1.169   2.188   0.882 -1.8428  1.8206 -1.2398
18956TIP3    H278360   1.124   2.075   0.972  0.8097  1.7646  0.1018
18957TIP3   OH278361   5.040   3.238  12.906  0.5694  0.1429 -0.5046
18957TIP3    H178362   5.123   3.219  12.951  0.4228 -1.0692 -0.6945
18957TIP3    H278363   4.994   3.298  12.964  1.1005 -0.0726  0.1574
18958TIP3   OH278364   5.349   1.340   2.906 -0.4269  0.0903  0.2537
18958TIP3    H178365   5.280   1.333   2.841 -0.7599  0.1188  0.6014
18958TIP3    H278366   5.422   1.383   2.859 -0.1050 -1.2505 -0.5222
18959TIP3   OH278367   6.679   5.414  13.376  0.6946 -0.2287 -0.4295
18959TIP3    H178368   6.734   5.356  13.323 -0.4388 -0.0834 -1.8135
18959TIP3    H278369   6.715   5.501  13.360 -0.1641 -0.0778 -1.6965
18960TIP3   OH278370   6.581   3.806  11.456 -0.5025  0.0880  0.4006
18960TIP3    H178371   6.667   3.833  11.425 -0.5243 -1.1410 -0.8439
18960TIP3    H278372   6.594   3.717  11.491 -1.5540 -0.8839 -1.5121
18961TIP3   OH278373   1.889   0.213  16.393  0.9766 -0.0060  0.6236
18961TIP3    H178374   1.844   0.137  16.356  1.8638 -0.2146 -0.0518
18961TIP3    H278375   1.981   0.188  16.396  1.2670  0.9927  0.4940
18962TIP3   OH278376   4.830   5.612  12.030  0.4566 -0.3769 -0.2943
18962TIP3    H178377   4.788   5.691  12.062 -0.5031 -0.2395 -1.8304
18962TIP3    H278378   4.808   5.608  11.937 -0.5382 -3.0664 -0.0433
18963TIP3   OH278379   2.990   2.729   5.669 -0.1450 -0.4850 -0.4262
18963TIP3    H178380   2.999   2.821   5.642 -0.0572 -0.9646 -2.1300
18963TIP3    H278381   2.932   2.732   5.746 -0.6738  0.9306 -0.8532
18964TIP3   OH278382   3.243   2.217  15.194 -0.0123  0.1390  0.1562
18964TIP3    H178383   3.327   2.261  15.210 -0.1827  0.9140 -0.9345
18964TIP3    H278384   3.238   2.208  15.098 -1.5898  0.9919  0.1198
18965TIP3   OH278385   5.635   0.263   0.666 -0.0762  0.9029 -0.2603
18965TIP3    H178386   5.631   0.228   0.577 -0.6456 -0.2472  0.1950
18965TIP3    H278387   5.652   0.186   0.721 -1.6248  1.2866  0.8051
18966TIP3   OH278388   4.702   0.789  16.957  0.1989  0.1610 -0.3545
18966TIP3    H178389   4.788   0.787  16.998 -0.6736  0.8219  1.5949
18966TIP3    H278390   4.693   0.878  16.924  0.9385 -0.3912 -2.2254
18967TIP3   OH278391   0.807   5.000  16.165  0.4937 -0.0238  0.0505
18967TIP3    H178392   0.793   5.015  16.259  0.1392 -0.0597  0.0043
18967TIP3    H278393   0.893   5.038  16.147  0.5916 -0.0775  0.4048
18968TIP3   OH278394   4.330   6.594  14.457  0.1010 -0.7001 -0.0564
18968TIP3    H178395   4.246   6.575  14.417 -0.0926 -0.6805  0.3363
18968TIP3    H278396   4.322   6.561  14.547 -0.6563  2.1397  1.0386
18969TIP3   OH278397   5.945   3.012   2.912  0.3458 -0.5868  0.0809
18969TIP3    H178398   6.010   2.983   2.847  0.7384  0.0090  0.1950
18969TIP3    H278399   5.917   2.932   2.956  1.1505 -0.8370  0.1531
18970TIP3   OH278400   1.221   3.256  13.726 -0.7581 -0.1267  0.4117
18970TIP3    H178401   1.293   3.276  13.667 -0.2332 -0.3616  0.9597
18970TIP3    H278402   1.146   3.239  13.669 -0.8118  1.7318 -0.1308
18971TIP3   OH278403   0.185   1.443   3.502 -0.0565  0.0853 -0.0311
18971TIP3    H178404   0.257   1.403   3.550  0.2013  0.8475  0.2427
18971TIP3    H278405   0.162   1.380   3.434  0.5619 -0.3603  0.1684
18972TIP3   OH278406   3.160   6.630  14.498  0.5626  0.3751 -0.0416
18972TIP3    H178407   3.195   6.673  14.419  0.8732  0.5717  0.2003
18972TIP3    H278408   3.230   6.638  14.563  1.0070 -1.3635 -0.2732
18973TIP3   OH278409   0.990   2.717  12.930 -0.7466  0.0214 -0.2014
18973TIP3    H178410   0.975   2.623  12.939  0.3438 -0.3161 -1.4826
18973TIP3    H278411   0.918   2.748  12.875 -0.4861 -0.2904 -0.7247
18974TIP3   OH278412   5.459   2.364   0.672 -0.2667 -0.0546  0.6050
18974TIP3    H178413   5.531   2.348   0.612  0.3557 -2.2515  1.8575
18974TIP3    H278414   5.451   2.460   0.674  2.2837  0.2446  0.0686
18975TIP3   OH278415   1.556   2.729  12.871 -0.0859 -0.0987  0.0316
18975TIP3    H178416   1.628   2.785  12.843 -1.8340  1.1161 -2.4321
18975TIP3    H278417   1.505   2.784  12.931 -0.2150 -0.1016 -0.0746
18976TIP3   OH278418   1.251   0.868   4.233 -0.0030 -0.2799 -0.2200
18976TIP3    H178419   1.273   0.807   4.304  1.4644  1.7690  1.1928
18976TIP3    H278420   1.183   0.823   4.183  0.8448 -2.9567  0.8634
18977TIP3   OH278421   6.717   2.876  14.110  0.4141 -0.3665  0.2810
18977TIP3    H178422   6.676   2.790  14.105 -0.2693 -0.0366  0.1415
18977TIP3    H278423   6.796   2.861  14.162 -0.3375 -0.8387  1.3112
18978TIP3   OH278424   2.502   5.238  12.182  0.1444 -0.1529  0.0456
18978TIP3    H178425   2.463   5.153  12.161 -0.7382  0.3562 -0.4571
18978TIP3    H278426   2.452   5.301  12.129  0.9659  0.6501  0.1978
18979TIP3   OH278427   4.314   6.383  14.846  0.1179  0.1298  0.5543
18979TIP3    H178428   4.254   6.315  14.876  0.7560 -0.3076  0.8551
18979TIP3    H278429   4.272   6.465  14.872 -1.1943 -0.0857 -0.7969
18980TIP3   OH278430   2.941   6.237  12.233  0.1839 -0.0005 -0.7805
18980TIP3    H178431   3.011   6.296  12.207  0.4555 -0.0618 -0.1939
18980TIP3    H278432   2.864   6.294  12.242  0.7241  0.5108  1.0291
18981TIP3   OH278433   6.311   2.803   1.704 -0.4542 -0.6778  0.3308
18981TIP3    H178434   6.293   2.832   1.794 -1.1667  0.9558 -0.2930
18981TIP3    H278435   6.297   2.881   1.651  0.5127 -1.4735 -1.1558
18982TIP3   OH278436   0.589   5.413  11.367  0.5720  0.3492  0.0717
18982TIP3    H178437   0.603   5.364  11.448  0.0425  1.1734  0.6774
18982TIP3    H278438   0.499   5.391  11.341 -0.3499  2.3691  1.3473
18983TIP3   OH278439   2.190   0.550  12.756 -0.2379  0.4137  0.0247
18983TIP3    H178440   2.149   0.572  12.839  1.4755  1.1749  0.7096
18983TIP3    H278441   2.177   0.627  12.701  0.4025  0.7313  0.3076
18984TIP3   OH278442   3.872   0.839   2.456  0.3688  0.1325 -0.0949
18984TIP3    H178443   3.966   0.837   2.474  0.5907 -0.6050 -1.2092
18984TIP3    H278444   3.866   0.835   2.360 -0.8040 -1.1673 -0.0007
18985TIP3   OH278445   6.570   3.798  14.815  0.7911  0.1020  0.4315
18985TIP3    H178446   6.498   3.737  14.802  0.8936  0.2169 -0.7593
18985TIP3    H278447   6.608   3.773  14.899 -0.6009  0.0121  1.0547
18986TIP3   OH278448   5.988   4.367   4.852  0.1600 -0.3660  0.1039
18986TIP3    H178449   5.930   4.444   4.856  1.5925  1.0562 -2.9628
18986TIP3    H278450   5.932   4.298   4.816 -0.4967 -0.0212  0.4336
18987TIP3   OH278451   3.750   1.800   5.333 -0.2827  0.1122 -0.3316
18987TIP3    H178452   3.745   1.858   5.257 -0.4617 -0.5284 -0.8233
18987TIP3    H278453   3.677   1.739   5.322 -0.4148  0.1119  0.4526
18988TIP3   OH278454   0.673   1.293  13.851  0.4498  0.6983  0.0402
18988TIP3    H178455   0.718   1.373  13.825 -0.2327  0.7541 -1.0659
18988TIP3    H278456   0.593   1.293  13.798 -0.0554 -0.2007  0.7766
18989TIP3   OH278457   0.976   2.707  13.889  0.2925  0.6225 -0.6009
18989TIP3    H178458   0.961   2.773  13.956 -1.2333 -1.2289  0.9894
18989TIP3    H278459   1.016   2.633  13.936  1.6996  0.2564 -2.2660
18990TIP3   OH278460   4.119   2.951   0.205 -0.4956 -0.6840  0.3106
18990TIP3    H178461   4.181   2.996   0.262 -1.5026 -0.0459  0.9339
18990TIP3    H278462   4.044   3.011   0.198 -1.3612 -1.7445  0.1840
18991TIP3   OH278463   5.527   1.568   0.045  0.4088 -0.5867 -0.4685
18991TIP3    H178464   5.511   1.541   0.135  2.0732 -0.1764 -0.0165
18991TIP3    H278465   5.539   1.485  -0.003  0.8117 -0.7846 -0.0361
18992TIP3   OH278466   4.191   6.200   0.174 -0.2365  0.5965 -0.1567
18992TIP3    H178467   4.276   6.155   0.165 -0.4087  0.5845 -1.9229
18992TIP3    H278468   4.214   6.292   0.184 -0.0149  0.5479 -0.2016
18993TIP3   OH278469   5.087   4.964  13.997  0.4803 -0.0140  0.3075
18993TIP3    H178470   5.131   4.981  14.081 -0.6523 -3.3559  1.7357
18993TIP3    H278471   5.004   5.011  14.003  0.5396  0.0185  0.9385
18994TIP3   OH278472   3.318   6.402  15.902 -0.3411 -0.0347  0.4575
18994TIP3    H178473   3.271   6.454  15.837 -1.5525 -1.0406  0.4970
18994TIP3    H278474   3.285   6.434  15.986 -2.4649 -1.9974  0.4673
18995TIP3   OH278475   4.616   6.051   3.211  0.6665 -0.2410  0.0209
18995TIP3    H178476   4.618   6.147   3.217 -0.0614 -0.1896 -0.4176
18995TIP3    H278477   4.525   6.031   3.190  0.9493 -0.9921 -0.5065
18996TIP3   OH278478   2.500   1.513   4.644 -0.0538 -0.3023  0.0671
18996TIP3    H178479   2.556   1.460   4.587  1.9865  2.5073 -0.8024
18996TIP3    H278480   2.461   1.578   4.585  1.5601  2.2477  1.5877
18997TIP3   OH278481   6.018   5.547  16.771  0.7177 -0.5440 -0.2292
18997TIP3    H178482   6.007   5.642  16.776  0.9423 -0.3013 -2.8172
18997TIP3    H278483   6.044   5.521  16.859  0.2510  1.7243  0.6520
18998TIP3   OH278484   4.837   5.957  11.530  0.5721 -0.3677  0.2804
18998TIP3    H178485   4.900   6.010  11.579  0.0203  0.4110  0.1502
18998TIP3    H278486   4.877   5.946  11.443  1.2147 -1.1477  0.6532
18999TIP3   OH278487   2.157   2.290  15.294  0.0504 -0.2839 -0.0527
18999TIP3    H178488   2.211   2.262  15.220 -2.6861 -0.8100 -1.9968
18999TIP3    H278489   2.155   2.386  15.288  0.0254 -0.3143 -0.5208
19000TIP3   OH278490   0.121   3.690   5.025  0.4691  0.2499 -0.2230
19000TIP3    H178491   0.032   3.657   5.037  0.2245  0.7858 -0.5384
19000TIP3    H278492   0.111   3.784   5.014  1.2906  0.6587  2.1169
19001TIP3   OH278493   6.539   5.581   0.003 -0.1551 -0.0013 -0.0049
19001TIP3    H178494   6.611   5.643   0.000  0.6862 -0.9742 -1.0729
19001TIP3    H278495   6.460   5.635  -0.003  0.3013  1.2633  3.1388
19002TIP3   OH278496   1.623   5.582   1.722 -0.2903 -0.4375  0.1372
19002TIP3    H178497   1.570   5.593   1.643 -0.7814  2.3080  0.7420
19002TIP3    H278498   1.713   5.589   1.692 -0.4787  3.2814 -0.0333
19003TIP3   OH278499   2.880   1.178   3.652 -0.2523 -1.2697  0.1626
19003TIP3    H178500   2.812   1.157   3.588 -0.2280 -0.5205 -0.1204
19003TIP3    H278501   2.925   1.095   3.668  0.5606 -1.2525 -1.7468
19004TIP3   OH278502   4.038   2.369   3.040  0.6560 -0.1167  0.2126
19004TIP3    H178503   3.982   2.377   3.118  1.7313 -0.5402  1.0586
19004TIP3    H278504   3.979   2.385   2.966 -0.9037 -1.9140  0.9788
19005TIP3   OH278505   2.980   1.008   6.949  0.0770  0.3387  0.2259
19005TIP3    H178506   3.057   1.059   6.924  0.5919 -0.1681  0.7598
19005TIP3    H278507   3.013   0.920   6.966 -0.8898 -0.3766 -1.3026
19006TIP3   OH278508   4.674   5.869   6.177 -0.1893  0.1693 -0.1666
19006TIP3    H178509   4.744   5.846   6.239 -0.2876 -0.3960 -0.2611
19006TIP3    H278510   4.633   5.947   6.215 -0.2595 -0.1809  0.4911
19007TIP3   OH278511   1.809   6.731   5.200  0.3984 -0.1248 -0.4200
19007TIP3    H178512   1.751   6.678   5.254  0.2914  1.8748  1.5898
19007TIP3    H278513   1.889   6.738   5.252  0.3471  1.7470 -0.5408
19008TIP3   OH278514   5.779   0.263  11.154  0.6063 -0.2842 -0.0862
19008TIP3    H178515   5.712   0.214  11.107  0.8088 -0.7459  0.0954
19008TIP3    H278516   5.761   0.355  11.134 -0.9173 -0.3008  1.0528
19009TIP3   OH278517   1.924   1.884   1.175 -0.0340  0.1754  0.4336
19009TIP3    H178518   1.877   1.939   1.238 -1.5483  1.2302 -1.4859
19009TIP3    H278519   2.016   1.896   1.196 -0.4409  1.5834  1.5747
19010TIP3   OH278520   6.756   0.525   5.156 -0.2603 -0.1829  0.3879
19010TIP3    H178521   6.847   0.512   5.132  0.9460  3.0814  2.4054
19010TIP3    H278522   6.722   0.586   5.091 -0.7419 -0.6740  0.1693
19011TIP3   OH278523   5.016   1.479  14.517 -0.5271 -0.5355 -0.4151
19011TIP3    H178524   5.016   1.481  14.422 -0.6429 -1.6696 -0.4607
19011TIP3    H278525   5.096   1.432  14.540 -0.0096  0.5543  0.0949
19012TIP3   OH278526   4.848   0.938  14.699 -0.0976 -0.0809  0.4462
19012TIP3    H178527   4.800   0.952  14.780 -0.7049  3.3004 -0.3558
19012TIP3    H278528   4.784   0.958  14.630  1.5937  1.6023 -0.7146
19013TIP3   OH278529   6.373   5.236   2.795 -0.1264 -0.0367 -0.1728
19013TIP3    H178530   6.467   5.223   2.802 -0.0394  0.4353 -0.4374
19013TIP3    H278531   6.363   5.322   2.754 -0.6531 -0.5424 -1.1574
19014TIP3   OH278532   4.822   4.298  16.633 -0.1114  0.3955 -0.6544
19014TIP3    H178533   4.751   4.235  16.632  0.7812 -0.6543 -0.0706
19014TIP3    H278534   4.800   4.359  16.704 -0.0453 -0.3914  0.0552
19015TIP3   OH278535   5.883   6.379   3.133  0.6967 -0.0005  0.1847
19015TIP3    H178536   5.812   6.433   3.098  2.2830  2.6907  0.7659
19015TIP3    H278537   5.952   6.384   3.066  1.1730 -0.6649  0.6162
19016TIP3   OH278538   3.115   2.930   5.401 -0.2739 -0.1968  0.2921
19016TIP3    H178539   3.126   2.838   5.375 -0.0820 -0.2160  0.4367
19016TIP3    H278540   3.164   2.937   5.483  0.2912  0.1989 -0.0687
19017TIP3   OH278541   0.531   1.014  15.216 -0.2254  0.3383 -0.0317
19017TIP3    H178542   0.622   1.019  15.189 -0.2316 -0.2745 -0.1623
19017TIP3    H278543   0.481   1.028  15.136 -0.2552  0.8915  0.0753
19018TIP3   OH278544   4.941   5.845  13.262  0.3265 -0.3558 -0.1521
19018TIP3    H178545   5.013   5.782  13.254  2.3322  1.7588 -0.0562
19018TIP3    H278546   4.950   5.880  13.351 -0.8759 -0.0974 -0.1261
19019TIP3   OH278547   5.098   3.031  13.999 -0.4485  0.3502 -0.5336
19019TIP3    H178548   5.126   3.028  13.908 -1.5911 -0.5858 -0.8725
19019TIP3    H278549   5.031   2.963  14.006 -2.1085  2.0061  0.4173
19020TIP3   OH278550   2.043   5.927   3.593 -0.3775  0.0843  0.0749
19020TIP3    H178551   2.055   5.866   3.521  1.7193  0.4484  0.0657
19020TIP3    H278552   2.083   6.009   3.563  1.4558 -0.0306  1.9640
19021TIP3   OH278553   4.768   3.875  10.304  0.0262 -0.0830 -0.0023
19021TIP3    H178554   4.693   3.933  10.319  1.7276  2.2766 -0.1292
19021TIP3    H278555   4.839   3.914  10.354  0.8674 -3.1860  1.4765
19022TIP3   OH278556   5.435   4.140  10.849 -0.1805 -0.7887  0.0355
19022TIP3    H178557   5.482   4.080  10.792 -1.0493 -1.4527 -0.0072
19022TIP3    H278558   5.464   4.227  10.823 -0.4790 -1.0853 -1.3465
19023TIP3   OH278559   5.789   0.784   2.105 -0.1026 -0.1496 -0.0794
19023TIP3    H178560   5.822   0.874   2.103  0.9328 -0.5238 -1.0917
19023TIP3    H278561   5.809   0.753   2.193  0.6352  0.2402 -0.0951
19024TIP3   OH278562   0.180   1.118  12.724  0.4567 -0.0248  0.0342
19024TIP3    H178563   0.125   1.197  12.723 -2.2807 -1.7637 -0.7085
19024TIP3    H278564   0.171   1.083  12.635  0.9310 -1.5671  0.5673
19025TIP3   OH278565   6.476   6.484  14.202  0.1644 -0.6336 -0.3438
19025TIP3    H178566   6.506   6.574  14.187  1.3120 -1.0025 -0.3629
19025TIP3    H278567   6.452   6.481  14.295  0.3659 -0.3792 -0.2846
19026TIP3   OH278568   4.947   4.333  12.939  0.0486 -0.4524  0.2842
19026TIP3    H178569   4.897   4.415  12.941  1.4642  0.4812 -0.7819
19026TIP3    H278570   5.036   4.358  12.962 -0.1288 -2.3426  3.8224
19027TIP3   OH278571   5.099   3.561   1.621  0.1606 -0.5293 -0.0569
19027TIP3    H178572   5.046   3.616   1.564  2.0036 -0.7285 -2.1244
19027TIP3    H278573   5.186   3.601   1.619  0.9035 -2.0198  0.5316
19028TIP3   OH278574   5.829   1.235  11.348 -0.1634  0.1327  0.1738
19028TIP3    H178575   5.737   1.221  11.372  0.2083 -0.1496  1.5224
19028TIP3    H278576   5.847   1.167  11.283 -0.6433 -0.4386  0.6294
19029TIP3   OH278577   0.171   1.952  10.703  0.3950  0.5781 -0.3333
19029TIP3    H178578   0.211   1.923  10.786  0.4637 -1.3601 -1.0042
19029TIP3    H278579   0.078   1.963  10.724  0.5103  0.6883  0.1398
19030TIP3   OH278580   3.967   4.404   4.135  0.2640 -0.3320 -0.2490
19030TIP3    H178581   3.985   4.466   4.065 -2.0558 -1.1720 -1.6995
19030TIP3    H278582   3.997   4.319   4.101 -2.6591 -1.1032 -1.1989
19031TIP3   OH278583   1.752   0.977  11.816 -0.0102 -0.4122 -0.5270
19031TIP3    H178584   1.698   0.898  11.819 -1.3510  0.4820 -0.0008
19031TIP3    H278585   1.821   0.962  11.880 -0.0202 -1.3210 -0.7257
19032TIP3   OH278586   1.759   2.480  15.452  0.6475 -0.0481  0.4805
19032TIP3    H178587   1.709   2.557  15.425  1.4894  0.6730  0.9347
19032TIP3    H278588   1.774   2.493  15.546  1.1783 -0.5487  0.4703
19033TIP3   OH278589   5.728   1.961  12.652  0.2909 -0.3436 -0.3880
19033TIP3    H178590   5.633   1.953  12.640 -0.0449  1.8630  0.3015
19033TIP3    H278591   5.765   1.892  12.597 -1.6539 -0.1389 -2.0899
19034TIP3   OH278592   2.598   6.544  13.756  0.2486  0.4517  0.0480
19034TIP3    H178593   2.616   6.638  13.753  0.4702  0.4131  0.1677
19034TIP3    H278594   2.680   6.505  13.785 -0.1607  0.3250  1.0836
19035TIP3   OH278595   2.158   5.271   4.300 -0.2218 -0.2423 -0.4513
19035TIP3    H178596   2.158   5.270   4.205 -2.0709  0.0371 -0.5001
19035TIP3    H278597   2.155   5.179   4.325  1.2048 -0.3541 -0.6129
19036TIP3   OH278598   1.899   0.945   1.438 -0.1780  0.2699  0.2412
19036TIP3    H178599   1.901   0.921   1.345 -0.0833  1.1081  0.0208
19036TIP3    H278600   1.934   0.868   1.483  2.0258  0.6766 -0.6200
19037TIP3   OH278601   0.139   6.261   2.865 -0.5354 -0.0710  0.0586
19037TIP3    H178602   0.078   6.335   2.866 -0.6246 -0.1465  0.2545
19037TIP3    H278603   0.217   6.294   2.909 -0.5772 -0.0948  0.1510
19038TIP3   OH278604   5.189   5.410   5.359 -0.3821 -0.2962 -0.0781
19038TIP3    H178605   5.146   5.388   5.277 -1.8333  1.5099  0.1168
19038TIP3    H278606   5.173   5.504   5.369  2.7987  0.2814  0.5424
19039TIP3   OH278607   1.210   2.208   2.658  0.0423 -0.3082 -0.0410
19039TIP3    H178608   1.211   2.294   2.701  0.8108  0.6374 -1.8616
19039TIP3    H278609   1.252   2.150   2.721  3.7430  1.6054 -0.4952
19040TIP3   OH278610   0.553   3.100  12.592  0.1471  0.0759  0.8594
19040TIP3    H178611   0.598   3.033  12.540 -0.1338  1.5559 -1.3941
19040TIP3    H278612   0.529   3.168  12.530 -0.6990  1.7332  2.8582
19041TIP3   OH278613   5.294   1.854   2.324 -0.3328 -0.5907 -0.1167
19041TIP3    H178614   5.233   1.914   2.365 -1.8785 -1.3928 -1.1143
19041TIP3    H278615   5.292   1.878   2.231  0.0760 -1.2890 -0.3148
19042TIP3   OH278616   0.383   1.899  14.437  0.1285 -0.1390  0.3901
19042TIP3    H178617   0.414   1.956  14.367 -0.7386  0.4556  0.4707
19042TIP3    H278618   0.348   1.823  14.392 -2.1951  1.0729  0.0011
19043TIP3   OH278619   0.274   4.258  13.166 -0.1741 -0.4398  0.2731
19043TIP3    H178620   0.184   4.267  13.133 -0.0304 -1.7895 -0.5673
19043TIP3    H278621   0.285   4.164  13.178  0.2116 -0.1132  3.0661
19044TIP3   OH278622   1.493   3.237  11.424 -0.0497 -0.1340  0.2490
19044TIP3    H178623   1.504   3.295  11.349  0.8466 -1.0496 -0.3461
19044TIP3    H278624   1.484   3.149  11.387  0.9462 -0.6722  1.2052
19045TIP3   OH278625   4.899   1.018  11.863  0.4153  0.1190 -0.1045
19045TIP3    H178626   4.916   0.926  11.885  0.6844 -0.2060 -1.5422
19045TIP3    H278627   4.933   1.028  11.774  0.3926  1.6252  0.0281
19046TIP3   OH278628   6.017   0.903   3.453 -0.6296 -0.2910 -0.3847
19046TIP3    H178629   6.045   0.841   3.386 -2.6216 -0.8327 -0.7697
19046TIP3    H278630   6.009   0.986   3.406  1.1718  0.1136 -0.0577
19047TIP3   OH278631   3.169   1.485   5.445 -0.2294  0.3314  0.3230
19047TIP3    H178632   3.122   1.415   5.400 -1.1556  0.3302  1.2621
19047TIP3    H278633   3.253   1.446   5.469 -0.2845 -0.0953 -0.1673
19048TIP3   OH278634   3.152   0.555   4.115 -0.4239  0.1154  0.1632
19048TIP3    H178635   3.231   0.564   4.061  0.2615  1.0397  1.2775
19048TIP3    H278636   3.080   0.570   4.054  0.3332  1.3387 -0.4785
19049TIP3   OH278637   0.271   4.157   0.379  0.5486  0.0471  0.5157
19049TIP3    H178638   0.290   4.137   0.288  0.1677  0.0493  0.4321
19049TIP3    H278639   0.357   4.165   0.421  0.7296  0.5120  0.0594
19050TIP3   OH278640   5.882   0.407   3.070  0.8398  0.0309  0.3409
19050TIP3    H178641   5.803   0.461   3.075  0.7975 -0.0615  0.6754
19050TIP3    H278642   5.851   0.322   3.039  0.7442 -0.1296  0.8649
19051TIP3   OH278643   6.524   0.370   1.655  0.3123  0.8125 -0.1789
19051TIP3    H178644   6.455   0.436   1.654  0.5799  1.1416  1.1245
19051TIP3    H278645   6.522   0.335   1.744  0.3119 -0.8057 -0.7873
19052TIP3   OH278646   2.689   2.530   4.107 -0.1514 -0.6428 -0.0654
19052TIP3    H178647   2.753   2.529   4.177  1.3350  2.7300 -1.1645
19052TIP3    H278648   2.737   2.500   4.030 -1.1346 -2.1099 -0.1485
19053TIP3   OH278649   2.507   2.829   1.120 -0.9540 -0.0055 -0.3294
19053TIP3    H178650   2.450   2.824   1.197 -0.1094  1.0190  0.4029
19053TIP3    H278651   2.554   2.746   1.120 -1.5101 -0.3230 -0.1759
19054TIP3   OH278652   6.156   6.695   3.129 -0.3785  0.3377 -0.3241
19054TIP3    H178653   6.151   6.741   3.213 -1.1881  1.9603 -1.2072
19054TIP3    H278654   6.241   6.650   3.132  0.0495  1.1521  0.9785
19055TIP3   OH278655   5.347   2.409   1.570 -0.0271 -0.6966 -0.3600
19055TIP3    H178656   5.312   2.419   1.482 -0.5489  1.5183  0.0298
19055TIP3    H278657   5.369   2.317   1.578  0.2989 -0.8881 -2.9021
19056TIP3   OH278658   4.791   0.441  13.947 -0.2539  0.8311  0.0538
19056TIP3    H178659   4.704   0.431  13.909 -0.7420  1.9855  0.8180
19056TIP3    H278660   4.831   0.513  13.898  0.1204  0.5876 -0.0079
19057TIP3   OH278661   4.983   5.810  14.000  0.0289  0.1521  0.1407
19057TIP3    H178662   4.959   5.722  14.029 -0.3679  0.4216  0.6608
19057TIP3    H278663   5.077   5.816  14.016 -0.0347 -0.0047  0.5978
19058TIP3   OH278664   6.510   5.361  17.094 -0.1469 -0.1038  0.0468
19058TIP3    H178665   6.481   5.306  17.166  0.0582 -1.5431 -0.9145
19058TIP3    H278666   6.493   5.450  17.123 -1.1282 -0.6937  1.3929
19059TIP3   OH278667   2.219   4.706   1.024  0.0113  0.3167  0.3580
19059TIP3    H178668   2.177   4.771   0.967  2.0144  0.6788 -0.8340
19059TIP3    H278669   2.179   4.719   1.109 -1.6087  1.2220 -0.4954
19060TIP3   OH278670   4.503   0.102   5.170  0.1990 -0.0247 -0.2417
19060TIP3    H178671   4.540   0.179   5.127  0.9501  0.0581  0.5191
19060TIP3    H278672   4.572   0.036   5.166  0.4051  0.0791  1.0483
19061TIP3   OH278673   6.376   1.344  11.892 -0.1879  0.5547 -0.4120
19061TIP3    H178674   6.453   1.392  11.861 -0.5281  0.0230 -2.2278
19061TIP3    H278675   6.314   1.349  11.819 -1.1208 -0.6880  0.2597
19062TIP3   OH278676   0.547   1.220   1.712 -1.1165 -0.2365 -0.0038
19062TIP3    H178677   0.452   1.224   1.703 -1.2982 -2.3463  0.2637
19062TIP3    H278678   0.564   1.129   1.737  1.1494 -0.4976 -2.1329
19063TIP3   OH278679   5.335   1.490  13.890  0.6533 -0.1225 -0.0301
19063TIP3    H178680   5.343   1.511  13.797  1.3005  1.1111  0.2823
19063TIP3    H278681   5.368   1.400  13.897 -0.0089 -0.4699 -1.0757
19064TIP3   OH278682   4.594   0.271   0.824  0.1399  0.2548 -0.0357
19064TIP3    H178683   4.543   0.289   0.903  0.8690  1.5368  0.1859
19064TIP3    H278684   4.532   0.284   0.752 -0.0942  0.8740  0.2641
19065TIP3   OH278685   4.373   6.678  16.387 -0.0514 -0.4766  0.2237
19065TIP3    H178686   4.371   6.708  16.296 -2.1383  0.2701  0.4550
19065TIP3    H278687   4.323   6.596  16.386  1.1399 -1.2280  0.4903
19066TIP3   OH278688   0.719   1.903  15.097 -0.3369  0.2971  0.1885
19066TIP3    H178689   0.713   1.969  15.028 -2.2160 -0.9225 -0.8832
19066TIP3    H278690   0.787   1.936  15.156 -0.1998  2.4425 -1.0841
19067TIP3   OH278691   3.329   1.793  16.155 -0.0813  0.2521  0.1547
19067TIP3    H178692   3.299   1.713  16.111  0.6129  1.0209 -1.8459
19067TIP3    H278693   3.289   1.864  16.106  0.3131  1.1767  1.1262
19068TIP3   OH278694   3.594   4.952  16.345 -0.6541  0.6768  0.0115
19068TIP3    H178695   3.539   5.019  16.305 -1.0109 -0.1527 -0.9296
19068TIP3    H278696   3.656   4.927  16.277 -0.0068  0.6136  0.6119
19069TIP3   OH278697   3.315   0.293  14.853  0.2527 -0.2025 -1.0042
19069TIP3    H178698   3.394   0.346  14.861 -0.2752  0.3196  1.9701
19069TIP3    H278699   3.347   0.203  14.842  1.3121 -0.0571  0.5614
19070TIP3   OH278700   0.341   4.959  14.436  0.0983  0.3855  0.3755
19070TIP3    H178701   0.330   4.877  14.485  2.5239  0.5091  1.2693
19070TIP3    H278702   0.300   5.026  14.492 -1.4111 -0.0916 -0.1051
19071TIP3   OH278703   1.275   2.659   3.939  0.2613  0.1551 -1.0947
19071TIP3    H178704   1.270   2.633   3.847 -0.4904  0.8658 -1.2608
19071TIP3    H278705   1.193   2.628   3.977 -0.2243  1.4313 -1.0799
19072TIP3   OH278706   1.919   0.721  11.301 -0.2316 -0.1572  0.4543
19072TIP3    H178707   1.881   0.638  11.329 -0.2856 -0.4912 -0.5856
19072TIP3    H278708   1.950   0.705  11.212 -1.9266  1.4602 -0.4925
19073TIP3   OH278709   1.668   1.594  12.169 -0.1162  0.4216 -0.3744
19073TIP3    H178710   1.705   1.662  12.113 -1.6034  0.3890 -1.4837
19073TIP3    H278711   1.591   1.635  12.209  0.5097  0.2087  1.0872
19074TIP3   OH278712   0.147   2.160   3.723  0.0316  0.1591  0.2200
19074TIP3    H178713   0.197   2.189   3.646  0.4208  0.1433  0.4656
19074TIP3    H278714   0.126   2.069   3.704 -0.1327  0.2413 -0.0021
19075TIP3   OH278715   6.280   5.188   3.052  0.1474 -0.2064 -0.7696
19075TIP3    H178716   6.333   5.174   2.974 -0.4706  1.5889 -1.5780
19075TIP3    H278717   6.210   5.123   3.045  0.0782 -0.0412 -1.7302
19076TIP3   OH278718   2.665   2.350   6.012 -0.3890 -0.2250 -0.7946
19076TIP3    H178719   2.689   2.441   5.998 -0.8402  0.2678  1.3036
19076TIP3    H278720   2.746   2.309   6.044 -1.0830  0.4309  2.0890
19077TIP3   OH278721   5.726   0.156   4.164  0.3486 -0.2559 -0.1213
19077TIP3    H178722   5.675   0.080   4.193  0.7331 -0.8790 -1.0326
19077TIP3    H278723   5.664   0.229   4.168  0.2448 -0.3864  1.7457
19078TIP3   OH278724   1.760   5.494   1.110 -0.4597  0.4739 -0.1681
19078TIP3    H178725   1.668   5.503   1.134 -0.8457 -0.5036 -1.1818
19078TIP3    H278726   1.773   5.556   1.038 -0.8460 -0.6697 -1.2747
19079TIP3   OH278727   3.027   1.065   1.436 -0.3271 -0.2508 -0.2260
19079TIP3    H178728   3.017   1.074   1.531  0.3178  0.3481 -0.2124
19079TIP3    H278729   3.120   1.081   1.419 -0.5876  0.5127 -1.0506
19080TIP3   OH278730   6.138   6.686  13.088 -0.3324  0.2186  0.0846
19080TIP3    H178731   6.141   6.644  13.003 -0.8603 -0.7794  0.5401
19080TIP3    H278732   6.221   6.663  13.130  0.2267  1.2834 -0.4075
19081TIP3   OH278733   2.518   5.139   2.848 -0.1900 -0.0258  0.2557
19081TIP3    H178734   2.563   5.221   2.827 -0.7069 -0.2265 -1.8835
19081TIP3    H278735   2.523   5.088   2.767 -1.2590 -1.4616  1.0551
19082TIP3   OH278736   1.131   0.203   3.170  0.0446 -0.2143  0.0077
19082TIP3    H178737   1.075   0.129   3.192 -1.8388  1.1313 -0.0106
19082TIP3    H278738   1.099   0.275   3.225  0.9039  0.9473 -0.9519
19083TIP3   OH278739   5.579   3.687   3.094  0.1597  0.2918 -0.0127
19083TIP3    H178740   5.582   3.753   3.162  0.4465 -0.2982  0.5531
19083TIP3    H278741   5.670   3.677   3.065  0.0232  0.6421 -0.5894
19084TIP3   OH278742   1.363   5.490  13.109 -0.2150  0.0238 -0.6095
19084TIP3    H178743   1.328   5.517  13.024 -0.9809 -0.2723 -0.3995
19084TIP3    H278744   1.369   5.395  13.104  1.3206  0.1192 -0.9150
19085TIP3   OH278745   3.325   0.844  14.666  0.2285 -0.0523  0.3712
19085TIP3    H178746   3.415   0.864  14.640  0.5038  0.6945  1.7712
19085TIP3    H278747   3.301   0.916  14.726 -1.6957  0.3821 -0.8161
19086TIP3   OH278748   2.623   1.338   4.081 -0.4702  0.3949 -0.3582
19086TIP3    H178749   2.659   1.424   4.059 -2.0673  0.9556 -0.9028
19086TIP3    H278750   2.674   1.276   4.029 -0.1875  1.1315 -0.9757
19087TIP3   OH278751   1.996   6.738  13.235  0.3404  0.2351  0.6414
19087TIP3    H178752   2.072   6.733  13.177 -0.1087  1.1985 -0.0558
19087TIP3    H278753   1.991   6.651  13.275  1.0559 -0.2407 -0.2574
19088TIP3   OH278754   4.486   4.663  17.232 -0.5144  0.0646 -0.2596
19088TIP3    H178755   4.474   4.581  17.280 -0.4946  0.3198  0.1871
19088TIP3    H278756   4.494   4.636  17.140  2.8901 -0.7609  0.1727
19089TIP3   OH278757   1.588   1.399  10.681 -0.1801  0.8052  0.1583
19089TIP3    H178758   1.643   1.331  10.720  1.5797  1.7874 -0.4905
19089TIP3    H278759   1.564   1.365  10.595 -0.2978  0.5233  0.3018
19090TIP3   OH278760   5.963   2.395   1.958  0.2629  0.2515  0.5067
19090TIP3    H178761   6.001   2.481   1.976  1.3065  0.2316 -1.3641
19090TIP3    H278762   6.037   2.341   1.930 -0.2822 -1.4430  2.0772
19091TIP3   OH278763   4.943   3.001  17.164  0.0163 -0.8565 -0.2873
19091TIP3    H178764   4.884   2.994  17.088 -2.2002  1.2809  1.0875
19091TIP3    H278765   4.954   3.096  17.177  1.7002 -1.1952  1.0708
19092TIP3   OH278766   3.134   6.008   4.491  0.0828  0.6874 -0.5665
19092TIP3    H178767   3.149   5.938   4.427  0.9636 -0.0765  0.4435
19092TIP3    H278768   3.211   6.064   4.484  0.4590  0.2778  0.2244
19093TIP3   OH278769   0.931   4.344  16.340  0.3143  0.2810  0.1575
19093TIP3    H178770   1.013   4.297  16.331 -0.3346 -1.0515  0.9130
19093TIP3    H278771   0.868   4.294  16.289 -0.1237  1.0584 -0.0873
19094TIP3   OH278772   6.075   1.687   4.038 -0.0354 -0.0584  0.1210
19094TIP3    H178773   6.090   1.711   3.946  2.5049 -0.5631  0.3121
19094TIP3    H278774   6.147   1.728   4.085  1.1167 -3.0833  1.2568
19095TIP3   OH278775   6.300   4.104   4.008 -0.3958  0.8477 -0.0955
19095TIP3    H178776   6.268   4.063   4.088 -0.9219  2.0762  0.3530
19095TIP3    H278777   6.347   4.034   3.962  1.4240  0.4879  2.0930
19096TIP3   OH278778   0.973   2.347   0.020  0.0873 -0.0593  1.1131
19096TIP3    H178779   0.994   2.373  -0.070 -1.4565  0.0057  0.7481
19096TIP3    H278780   1.051   2.370   0.070 -0.0414  2.4970  0.2808
19097TIP3   OH278781   4.232   4.138   2.705  0.8992 -0.6547  0.2218
19097TIP3    H178782   4.215   4.055   2.661  1.2639 -0.6278  0.0304
19097TIP3    H278783   4.314   4.169   2.667 -0.3509  0.8851 -1.3417
19098TIP3   OH278784   1.268   4.407  15.519  0.3929  0.3106  0.4845
19098TIP3    H178785   1.324   4.331  15.504  1.3196  1.0444  0.1492
19098TIP3    H278786   1.318   4.463  15.579 -0.8030  0.1094  1.7374
19099TIP3   OH278787   3.067   1.623  12.987  0.3060  0.2502 -0.2543
19099TIP3    H178788   3.093   1.532  12.999  1.7573  0.8610  1.7915
19099TIP3    H278789   3.035   1.650  13.073  0.6675  1.8748 -0.6008
19100TIP3   OH278790   4.935   6.403  15.883 -0.1038 -0.1551  0.2958
19100TIP3    H178791   5.025   6.376  15.864  0.0285  0.6491 -0.2729
19100TIP3    H278792   4.915   6.363  15.968  0.5924 -0.7916  0.1672
19101TIP3   OH278793   0.172   1.058   5.017  0.0114 -0.1125 -0.2653
19101TIP3    H178794   0.170   1.057   4.922  0.5974 -1.0208 -0.2862
19101TIP3    H278795   0.255   1.015   5.039 -1.6473 -3.0950  0.6879
19102TIP3   OH278796   1.747   2.036   0.971 -0.2385  0.0525  0.1026
19102TIP3    H178797   1.808   2.022   1.043 -0.3774 -0.0984  0.1914
19102TIP3    H278798   1.766   1.964   0.910 -0.5463 -0.1815  0.2810
19103TIP3   OH278799   6.164   2.477  13.655  0.0001 -0.6638  0.0293
19103TIP3    H178800   6.131   2.407  13.711 -0.7135  0.8547  1.5896
19103TIP3    H278801   6.114   2.469  13.574  0.4813 -2.3921 -0.1525
19104TIP3   OH278802   0.034   6.272   1.132 -0.7933 -0.4880 -0.1323
19104TIP3    H178803  -0.014   6.346   1.095  0.8968  0.6609 -0.1855
19104TIP3    H278804   0.016   6.199   1.073 -1.7631  0.1306 -0.6153
19105TIP3   OH278805   3.792   2.107  14.642 -0.2992  0.0534 -0.3311
19105TIP3    H178806   3.739   2.184  14.665  0.8183  0.2932  1.7801
19105TIP3    H278807   3.772   2.090  14.550 -2.8012  1.0664 -0.0562
19106TIP3   OH278808   2.467   1.706   4.456  0.3785  0.3506 -0.0478
19106TIP3    H178809   2.532   1.751   4.401 -0.8040  1.1346 -0.8524
19106TIP3    H278810   2.431   1.638   4.400  1.5733 -1.1138  0.9062
19107TIP3   OH278811   3.685   0.319   1.577 -0.5555 -0.1280 -0.4548
19107TIP3    H178812   3.618   0.251   1.565 -0.5771 -0.3629  0.8531
19107TIP3    H278813   3.663   0.359   1.662  1.5856 -0.9293  0.5288
19108TIP3   OH278814   3.544   4.891  13.238 -0.1565  0.4051  0.1719
19108TIP3    H178815   3.600   4.906  13.163 -0.7237 -0.0463 -0.3546
19108TIP3    H278816   3.555   4.968  13.293  0.8395  0.3923 -0.0027
19109TIP3   OH278817   1.614   3.575   2.961 -0.0798  0.0291  0.0184
19109TIP3    H178818   1.529   3.596   2.921 -1.2082 -1.0531  1.7043
19109TIP3    H278819   1.615   3.625   3.042  0.4389 -0.7557  0.5071
19110TIP3   OH278820   6.731   6.632  15.262 -0.1258 -0.1478  0.1095
19110TIP3    H178821   6.795   6.665  15.326  0.8831 -0.3683 -0.7455
19110TIP3    H278822   6.667   6.702  15.254  0.8935  0.7738 -0.1965
19111TIP3   OH278823   5.683   3.681   5.038 -0.8113 -0.1573 -0.5775
19111TIP3    H178824   5.747   3.638   4.981 -1.3505  0.1712 -1.4504
19111TIP3    H278825   5.600   3.638   5.018 -0.9319 -0.3885  0.3471
19112TIP3   OH278826   2.577   6.529   3.549  0.3464  0.3062  0.4178
19112TIP3    H178827   2.611   6.478   3.622  2.3292  0.1402 -0.5496
19112TIP3    H278828   2.508   6.583   3.588 -0.2223 -1.4052  1.9160
19113TIP3   OH278829   3.276   6.560  17.238  0.3951  0.0612  0.4591
19113TIP3    H178830   3.311   6.548  17.149  1.3208 -0.0338  0.8260
19113TIP3    H278831   3.183   6.540  17.230  0.3503  0.6063 -0.6078
19114TIP3   OH278832   4.433   1.523  16.154  0.0906 -0.0788  0.9512
19114TIP3    H178833   4.514   1.481  16.185 -0.4595 -0.9877  1.2286
19114TIP3    H278834   4.365   1.482  16.207 -0.6057  0.2727  0.3348
19115TIP3   OH278835   5.480   2.012  11.377  0.2787  0.1142  0.0290
19115TIP3    H178836   5.486   1.919  11.356 -0.5684  0.3477 -1.3737
19115TIP3    H278837   5.558   2.050  11.338  0.0219  0.1650 -0.4367
19116TIP3   OH278838   0.121   3.591  11.183  0.2376  0.8431  0.2303
19116TIP3    H178839   0.083   3.534  11.116  1.5745  1.4104 -1.0796
19116TIP3    H278840   0.125   3.536  11.261 -2.4519  0.5329  0.2316
19117TIP3   OH278841   1.285   3.767  13.493 -0.0558  0.4740 -0.3000
19117TIP3    H178842   1.359   3.715  13.526 -0.5698  0.2885  0.6088
19117TIP3    H278843   1.326   3.844  13.453  0.6586  0.0106 -0.4720
19118TIP3   OH278844   0.827   1.356  11.724 -0.2578  0.3240  0.8052
19118TIP3    H178845   0.766   1.304  11.672  0.2142  0.1703  0.4126
19118TIP3    H278846   0.874   1.292  11.778  2.0476  0.0324 -1.3955
19119TIP3   OH278847   2.418   6.394  13.592  0.2008 -0.0862 -0.6200
19119TIP3    H178848   2.473   6.444  13.652  1.0331  0.1935 -1.5946
19119TIP3    H278849   2.406   6.310  13.635  1.6292 -0.2524 -0.4985
19120TIP3   OH278850   6.437   6.815   2.363  0.3147  1.0009  0.6034
19120TIP3    H178851   6.371   6.863   2.313 -0.6004 -0.9197 -0.1497
19120TIP3    H278852   6.387   6.748   2.411  1.6403 -0.2150  0.3663
19121TIP3   OH278853   1.676   3.659  13.104 -0.2822 -0.4836 -0.2510
19121TIP3    H178854   1.644   3.639  13.192  0.2378 -0.0324  0.0496
19121TIP3    H278855   1.705   3.750  13.109  2.0471 -1.1638 -0.1691
19122TIP3   OH278856   1.042   2.988  13.034  0.5374  0.2220  0.5316
19122TIP3    H178857   0.953   3.022  13.046  0.5797  1.4040 -1.8613
19122TIP3    H278858   1.031   2.909  12.981  0.9553  1.7688 -2.0488
19123TIP3   OH278859   5.940   1.676   0.141 -0.3257 -0.3266  0.4826
19123TIP3    H178860   6.016   1.618   0.131  0.5857  0.8179  0.4331
19123TIP3    H278861   5.924   1.710   0.052 -1.1808 -0.8963  0.4146
19124TIP3   OH278862   4.085   3.314   4.960  0.2312 -0.5129  0.5400
19124TIP3    H178863   3.991   3.294   4.969  0.2478 -0.2108  1.4968
19124TIP3    H278864   4.110   3.350   5.045  0.7492  1.3901 -0.3756
19125TIP3   OH278865   6.634   3.200   2.951 -0.1934  0.1264  0.2417
19125TIP3    H178866   6.574   3.150   2.896 -0.4445  1.7128 -0.9778
19125TIP3    H278867   6.579   3.262   2.998  0.2153 -0.1003  1.0324
19126TIP3   OH278868   5.445   0.196   3.846 -0.4264 -0.1228 -0.0363
19126TIP3    H178869   5.370   0.137   3.853 -0.8834  0.2928 -1.2296
19126TIP3    H278870   5.419   0.274   3.896 -0.7307 -0.0377 -0.3280
19127TIP3   OH278871   4.235   6.048  15.362 -0.0340  0.1730  0.0775
19127TIP3    H178872   4.287   6.025  15.285 -1.1974  0.0443 -0.6986
19127TIP3    H278873   4.250   6.141  15.375  0.2379  0.1767 -0.2572
19128TIP3   OH278874   2.549   3.700   2.108  0.4084 -0.1420 -0.6067
19128TIP3    H178875   2.575   3.646   2.033 -0.2982  0.4580 -1.2995
19128TIP3    H278876   2.459   3.673   2.126 -0.2317  1.3097 -1.4521
19129TIP3   OH278877   4.110   2.071  16.167  0.6632  0.0755  0.3251
19129TIP3    H178878   4.048   2.103  16.101  1.7290 -2.0859 -1.8708
19129TIP3    H278879   4.058   2.013  16.222  0.2054  0.2550  0.0917
19130TIP3   OH278880   5.694   1.014  15.720 -0.2254  0.3487 -0.0031
19130TIP3    H178881   5.632   1.010  15.793 -0.0527 -1.2395  0.1015
19130TIP3    H278882   5.649   0.967  15.649  0.3279  0.3143 -0.3311
19131TIP3   OH278883   4.830   0.680  14.589  0.0827 -0.5687 -0.1770
19131TIP3    H178884   4.829   0.604  14.648 -0.7937 -0.0503  0.5137
19131TIP3    H278885   4.846   0.755  14.647  0.8932 -0.2080 -0.8415
19132TIP3   OH278886   5.216   1.592  16.298 -0.3414 -0.2695 -0.3966
19132TIP3    H178887   5.221   1.522  16.362  0.1146 -0.5660 -0.7523
19132TIP3    H278888   5.275   1.565  16.227  0.4228  0.8088 -0.2009
19133TIP3   OH278889   1.700   5.448  15.861 -0.3680 -0.1996 -0.1201
19133TIP3    H178890   1.750   5.404  15.929 -0.1337 -0.5672 -0.5234
19133TIP3    H278891   1.638   5.382  15.830 -2.5349  0.8137  1.7449
19134TIP3   OH278892   5.760   3.414  17.184  0.4789 -0.1306 -0.3505
19134TIP3    H178893   5.832   3.447  17.130  0.9474 -1.3161 -0.4726
19134TIP3    H278894   5.718   3.493  17.218  1.3073  0.5977 -0.9685
19135TIP3   OH278895   4.343   1.865   2.910  0.0685  0.1041  0.1129
19135TIP3    H178896   4.375   1.804   2.843  0.7442  2.1279 -1.5121
19135TIP3    H278897   4.410   1.862   2.978  0.7166 -0.0724 -0.5132
19136TIP3   OH278898   2.018   0.657  16.420 -0.1481 -0.1301  0.5082
19136TIP3    H178899   1.987   0.715  16.350  1.1540 -2.2255 -1.9574
19136TIP3    H278900   1.943   0.600  16.438 -0.3713  0.1809  0.5755
19137TIP3   OH278901   5.006   4.218   6.255 -0.8007  0.2616 -0.3169
19137TIP3    H178902   5.027   4.126   6.273 -1.0885  0.4295  0.9601
19137TIP3    H278903   4.955   4.246   6.331 -0.2769  1.6228 -0.4410
19138TIP3   OH278904   1.697   0.845   3.955 -0.0126  0.4587  0.2501
19138TIP3    H178905   1.615   0.825   4.002  1.3174  0.6237  2.7925
19138TIP3    H278906   1.683   0.932   3.918 -1.4270 -0.0400 -0.4729
19139TIP3   OH278907   5.528   1.907   6.755  0.1109 -1.3661 -0.0821
19139TIP3    H178908   5.450   1.936   6.802  0.8271 -1.1119  1.0017
19139TIP3    H278909   5.504   1.822   6.718  0.1294 -2.6607  2.5697
19140TIP3   OH278910   2.189   3.887  15.072  0.0497  0.5686  0.1499
19140TIP3    H178911   2.257   3.833  15.114 -1.7180 -0.7412  1.4579
19140TIP3    H278912   2.132   3.825  15.028 -0.9797  1.5303  0.0697
19141TIP3   OH278913   2.282   5.565   0.378  0.4594  0.1140  0.7631
19141TIP3    H178914   2.264   5.513   0.299  1.5855  1.2545 -0.2890
19141TIP3    H278915   2.228   5.644   0.367  1.3033  0.6902  0.6779
19142TIP3   OH278916   0.563   5.778   1.617 -0.3854 -0.3779  0.1650
19142TIP3    H178917   0.471   5.783   1.644 -0.3763  0.6202  0.0382
19142TIP3    H278918   0.559   5.752   1.525 -0.4852 -1.6440  0.5109
19143TIP3   OH278919   1.404   5.690  14.965  0.1002 -0.0711  0.2651
19143TIP3    H178920   1.419   5.596  14.980 -1.1161 -0.1576  1.0797
19143TIP3    H278921   1.325   5.694  14.911 -0.9859  0.5034  1.8311
19144TIP3   OH278922   1.248   0.400   5.730  0.4163  0.1374 -0.0801
19144TIP3    H178923   1.316   0.338   5.754  1.2951  1.2607  0.4379
19144TIP3    H278924   1.166   0.358   5.757  1.0536 -0.4544  0.9988
19145TIP3   OH278925   3.914   6.366  14.644 -0.2597  0.3696  0.0951
19145TIP3    H178926   3.864   6.354  14.725  0.0503  0.6408  0.3305
19145TIP3    H278927   3.961   6.283  14.632  0.2351  0.5802  0.5716
19146TIP3   OH278928   1.624   6.680  14.111 -0.5241  0.9632 -0.0412
19146TIP3    H178929   1.579   6.612  14.061  0.5243  0.1692  0.0591
19146TIP3    H278930   1.589   6.671  14.200  0.4438 -0.2687  0.2539
19147TIP3   OH278931   3.856   2.003  11.973 -0.1333 -0.1222  0.2619
19147TIP3    H178932   3.937   2.019  11.924 -0.1274 -1.4199 -0.2071
19147TIP3    H278933   3.871   2.043  12.059  0.7765  0.1691 -0.0218
19148TIP3   OH278934   6.214   6.295   0.202 -0.5347 -0.4723 -0.2389
19148TIP3    H178935   6.268   6.346   0.263 -1.8821  0.3668  0.3072
19148TIP3    H278936   6.182   6.360   0.139 -2.0901 -0.6617  0.3234
19149TIP3   OH278937   4.128   2.511   4.997 -0.3782 -0.4603 -0.0681
19149TIP3    H178938   4.210   2.515   5.045  0.0309  1.1244 -0.8255
19149TIP3    H278939   4.120   2.419   4.970  0.1489 -1.0507  1.6364
19150TIP3   OH278940   5.435   4.566   4.232 -0.1587  0.6308  0.2988
19150TIP3    H178941   5.519   4.521   4.227 -1.0150 -1.0357 -0.1464
19150TIP3    H278942   5.399   4.560   4.144 -1.7285 -0.8297  0.9628
19151TIP3   OH278943   5.355   3.267  13.009 -0.3816  0.1285 -0.4883
19151TIP3    H178944   5.409   3.191  13.027  1.7083  1.1162 -2.1236
19151TIP3    H278945   5.333   3.302  13.096  0.8380 -0.8526  0.2477
19152TIP3   OH278946   0.198   1.728   1.146 -0.6623  0.5071  0.2870
19152TIP3    H178947   0.183   1.810   1.192  1.0413  1.5016 -0.7904
19152TIP3    H278948   0.260   1.680   1.202  2.0562  2.0659 -1.1546
19153TIP3   OH278949   5.263   5.577   1.306 -0.5366  0.6987 -0.3874
19153TIP3    H178950   5.182   5.595   1.259  0.1319 -2.2588 -3.0147
19153TIP3    H278951   5.330   5.624   1.257 -0.3783  1.5143  0.5805
19154TIP3   OH278952   4.182   6.821  17.009  0.0086  0.1784 -0.0942
19154TIP3    H178953   4.176   6.907  16.968 -0.5171  0.0729 -0.2547
19154TIP3    H278954   4.145   6.833  17.096 -5.1640 -0.8912 -1.7364
19155TIP3   OH278955   0.055   2.470  14.708  0.5643 -0.2940  0.2124
19155TIP3    H178956  -0.013   2.526  14.745  1.3219 -1.1226  3.1167
19155TIP3    H278957   0.011   2.387  14.690  0.1804  0.1279 -0.8549
19156TIP3   OH278958   1.559   5.159  13.205 -0.3462 -0.6265 -0.2352
19156TIP3    H178959   1.530   5.183  13.293  0.8986  2.4907 -0.5716
19156TIP3    H278960   1.641   5.112  13.219  0.5035  0.9629  0.2596
19157TIP3   OH278961   6.232   2.271   3.894 -0.4332  0.1631 -0.7613
19157TIP3    H178962   6.286   2.193   3.907 -0.8138 -0.3592 -2.2178
19157TIP3    H278963   6.287   2.343   3.926  0.2181 -0.6063 -0.1027
19158TIP3   OH278964   4.339   2.469   3.038  0.0236  0.2471 -0.5300
19158TIP3    H178965   4.429   2.436   3.034  0.7267  2.1507 -1.6593
19158TIP3    H278966   4.307   2.442   3.124  0.7806 -2.5985 -1.0419
19159TIP3   OH278967   3.474   6.771  15.033  0.4072  0.5972  0.6672
19159TIP3    H178968   3.463   6.678  15.055 -0.8785  0.9267  1.5270
19159TIP3    H278969   3.516   6.809  15.110 -0.7306  1.0485  1.0970
19160TIP3   OH278970   3.254   5.624  14.602  0.2018  0.0000  0.0829
19160TIP3    H178971   3.195   5.648  14.674 -0.1164 -1.9739  0.5433
19160TIP3    H278972   3.206   5.649  14.523 -1.9231 -2.6377  0.3842
19161TIP3   OH278973   5.392   6.590  13.662  0.5560  0.0928  0.2189
19161TIP3    H178974   5.452   6.589  13.588 -0.9215  1.0375 -1.0288
19161TIP3    H278975   5.350   6.675  13.659 -0.6494 -0.4297  1.2417
19162TIP3   OH278976   6.749   5.412   3.999 -0.6302  0.4023 -0.3561
19162TIP3    H178977   6.793   5.493   4.024 -1.4834  0.3991  1.2650
19162TIP3    H278978   6.655   5.432   4.008 -0.9100 -0.2908 -1.4913
19163TIP3   OH278979   2.921   2.655  11.902 -0.3989 -0.3723  0.3684
19163TIP3    H178980   2.891   2.732  11.950 -1.9547  0.1837 -1.3699
19163TIP3    H278981   2.887   2.581  11.951 -0.9100  0.1425  0.8014
19164TIP3   OH278982   3.163   3.082  14.048 -0.2469 -0.2886  0.1802
19164TIP3    H178983   3.091   3.139  14.022 -0.6942 -0.3621  1.2043
19164TIP3    H278984   3.240   3.138  14.046 -0.3049 -0.2277 -1.0040
19165TIP3   OH278985   2.056   0.730   4.600 -0.6491 -0.2180 -0.4237
19165TIP3    H178986   2.054   0.743   4.506  0.2123 -0.7717 -0.5332
19165TIP3    H278987   2.070   0.636   4.611  0.8964  0.0408  0.2076
19166TIP3   OH278988   5.551   6.630   3.361  0.2200 -0.5264  0.1384
19166TIP3    H178989   5.586   6.585   3.284  1.9742 -0.4442  0.8360
19166TIP3    H278990   5.570   6.722   3.346 -1.2120 -0.2624 -0.1975
19167TIP3   OH278991   4.305   2.295  13.723 -0.2578  0.0760 -0.4851
19167TIP3    H178992   4.273   2.205  13.733 -0.6346  0.3834  1.4932
19167TIP3    H278993   4.400   2.286  13.719 -0.2371 -0.3957  0.5440
19168TIP3   OH278994   3.462   2.337   3.839 -0.3203 -0.2367  0.1469
19168TIP3    H178995   3.442   2.336   3.746 -0.2636  0.2794  0.1295
19168TIP3    H278996   3.466   2.429   3.862 -0.4678 -0.3649  0.6926
19169TIP3   OH278997   6.523   1.315   0.729 -0.5592  0.1954  0.3597
19169TIP3    H178998   6.468   1.255   0.779  1.2787 -0.8273  1.2328
19169TIP3    H278999   6.612   1.285   0.744  0.3590  2.4649 -0.0967
19170TIP3   OH279000   6.782   4.215  13.758 -0.1451 -0.2583 -0.6029
19170TIP3    H179001   6.872   4.247  13.767  0.0601 -0.5335 -1.5406
19170TIP3    H279002   6.755   4.195  13.848  1.0519 -1.0456 -0.3927
19171TIP3   OH279003   5.309   6.000  13.767  0.5010  0.5037  0.3105
19171TIP3    H179004   5.342   5.992  13.857 -1.4412 -0.3977  0.9901
19171TIP3    H279005   5.378   5.962  13.713  1.3668  0.3396  1.4883
19172TIP3   OH279006   4.324   3.819   1.517 -0.2474 -0.0690 -0.3736
19172TIP3    H179007   4.377   3.752   1.473 -1.4357 -1.8953  0.8205
19172TIP3    H279008   4.234   3.790   1.505 -0.7810  1.1496  0.4934
19173TIP3   OH279009   3.029   6.648   3.111  0.6731  0.2850 -0.2923
19173TIP3    H179010   2.978   6.590   3.168  1.2709 -0.0178 -0.0578
19173TIP3    H279011   3.116   6.609   3.108  1.1114  1.2025 -0.0663
19174TIP3   OH279012   4.765   5.478   3.776 -0.6474  0.0529  0.2648
19174TIP3    H179013   4.818   5.544   3.732  1.9759 -1.8299  0.4100
19174TIP3    H279014   4.699   5.453   3.712 -0.2119  1.1233 -0.6284
19175TIP3   OH279015   6.697   1.741   5.824  0.3810 -0.0132 -0.1846
19175TIP3    H179016   6.760   1.768   5.891  0.1663  0.7107 -0.2608
19175TIP3    H279017   6.661   1.659   5.856  0.4898  0.1845  0.4503
19176TIP3   OH279018   6.401   0.434  13.032  0.3766 -0.3934 -0.2887
19176TIP3    H179019   6.318   0.406  12.995  0.2706  0.9812 -1.1757
19176TIP3    H279020   6.387   0.434  13.127 -0.6847 -0.0111 -0.4431
19177TIP3   OH279021   0.893   0.752   6.147 -0.5183 -0.2177  0.8671
19177TIP3    H179022   0.826   0.750   6.215 -0.6287 -0.0257  0.7635
19177TIP3    H279023   0.964   0.804   6.185 -0.0909 -1.0712  1.2849
19178TIP3   OH279024   5.193   5.113   0.840 -0.2292 -0.2192 -0.6736
19178TIP3    H179025   5.217   5.024   0.865  0.6915  0.2858  0.3223
19178TIP3    H279026   5.115   5.132   0.892  0.7168  0.2309  0.6379
19179TIP3   OH279027   5.878   4.771   6.201  0.5291  0.0131  0.1610
19179TIP3    H179028   5.910   4.847   6.249 -1.1160  1.6429 -1.1902
19179TIP3    H279029   5.955   4.738   6.155  0.7481  2.7804 -1.6819
19180TIP3   OH279030   0.038   4.635   5.164  0.0453  0.1139  0.3379
19180TIP3    H179031  -0.036   4.674   5.210 -1.0154  0.0595 -1.2105
19180TIP3    H279032   0.104   4.704   5.161 -1.2064  1.3319 -1.0244
19181TIP3   OH279033   1.630   6.350  12.512 -0.6108 -0.0519 -0.3177
19181TIP3    H179034   1.612   6.335  12.420 -0.9207 -0.0737 -0.2527
19181TIP3    H279035   1.584   6.280  12.558 -1.6416  0.7714 -0.0481
19182TIP3   OH279036   1.594   6.566   2.166 -0.4066 -0.6587 -0.3976
19182TIP3    H179037   1.524   6.502   2.154 -1.9685  0.7531  0.6560
19182TIP3    H279038   1.556   6.632   2.224  0.2457  2.4865 -3.2293
19183TIP3   OH279039   1.957   6.230  12.213  0.0893 -0.1783 -0.3259
19183TIP3    H179040   2.028   6.175  12.180 -0.2808 -1.2544  0.5947
19183TIP3    H279041   1.885   6.168  12.228 -0.1325  0.4487  1.3592
19184TIP3   OH279042   2.939   4.058   4.596 -0.9933  1.1290 -0.0406
19184TIP3    H179043   3.024   4.085   4.631 -1.0932  0.5714  0.6552
19184TIP3    H279044   2.955   3.973   4.555 -1.4526  0.4183  1.2033
19185TIP3   OH279045   4.345   0.885  16.566  0.0853  0.7258  0.2606
19185TIP3    H179046   4.326   0.915  16.654  2.7824 -1.1112  1.6049
19185TIP3    H279047   4.264   0.846  16.535 -0.2680 -0.8605  2.9678
19186TIP3   OH279048   5.452   6.364  13.772  0.3491 -0.5508  0.0311
19186TIP3    H179049   5.411   6.435  13.723  2.0047 -0.7251 -1.7078
19186TIP3    H279050   5.381   6.329  13.827 -0.8904  1.3858 -0.2463
19187TIP3   OH279051   2.061   0.002   3.096 -0.1040  0.7516  0.3207
19187TIP3    H179052   1.989  -0.049   3.057 -0.1519 -0.9721  2.4662
19187TIP3    H279053   2.019   0.056   3.162  0.1914  2.3560 -0.7549
19188TIP3   OH279054   6.712   5.296  12.554  0.2172  0.2705 -0.5094
19188TIP3    H179055   6.772   5.292  12.629  0.9528 -0.5822 -1.1136
19188TIP3    H279056   6.638   5.348  12.585  0.2676 -0.4872  0.9787
19189TIP3   OH279057   6.299   3.843  12.528 -0.7257  0.1578  0.2267
19189TIP3    H179058   6.294   3.939  12.534 -0.0355  0.1604  0.9407
19189TIP3    H279059   6.295   3.813  12.619  3.0713 -0.2458  0.4004
19190TIP3   OH279060   0.774   4.737   6.245 -0.0916  0.1159  0.5745
19190TIP3    H179061   0.833   4.705   6.313  0.0764 -0.8715 -0.0118
19190TIP3    H279062   0.690   4.696   6.265 -0.1360  0.1278  0.4110
19191TIP3   OH279063   4.272   3.319  11.098  0.1533  0.2453  0.0553
19191TIP3    H179064   4.232   3.275  11.023  0.0297  0.5238 -0.0424
19191TIP3    H279065   4.304   3.402  11.063 -0.4290  0.6354  0.4301
19192TIP3   OH279066   4.364   4.778   0.278  0.1722  0.6345  0.7358
19192TIP3    H179067   4.356   4.780   0.183 -0.6710 -1.2768  0.7140
19192TIP3    H279068   4.458   4.787   0.294  0.1437  3.1078 -0.1176
19193TIP3   OH279069   3.517   5.059   3.510 -0.1919  0.0594 -0.3424
19193TIP3    H179070   3.484   5.149   3.510 -1.0135 -0.2389  0.1745
19193TIP3    H279071   3.511   5.031   3.419  2.0622  1.2241 -0.9337
19194TIP3   OH279072   1.262   0.138  12.643 -0.1170  0.1461  0.2420
19194TIP3    H179073   1.310   0.210  12.683 -0.2862  1.5610 -1.9128
19194TIP3    H279074   1.317   0.061  12.658  1.8302  1.3523 -0.3596
19195TIP3   OH279075   4.495   5.380   4.400  0.1614 -0.1340  0.0443
19195TIP3    H179076   4.507   5.454   4.459  1.1833 -0.0786 -0.2137
19195TIP3    H279077   4.558   5.315   4.429 -0.2911 -0.6605 -0.1284
19196TIP3   OH279078   0.947   5.377   0.349  0.1471 -0.5986 -0.0341
19196TIP3    H179079   1.003   5.451   0.327  0.2260  0.4686  3.2459
19196TIP3    H279080   1.005   5.302   0.352  0.8085 -0.0778  0.3254
19197TIP3   OH279081   2.286   3.964   1.069 -0.2294 -0.6291  0.2164
19197TIP3    H179082   2.312   3.876   1.099  0.8338 -0.2123  0.5550
19197TIP3    H279083   2.321   4.023   1.136  0.9967  0.2273 -1.1252
19198TIP3   OH279084   3.312   3.729   6.381 -0.2513  0.0079  0.5946
19198TIP3    H179085   3.387   3.789   6.372  0.3181 -0.4953  1.8378
19198TIP3    H279086   3.240   3.776   6.339  0.4332  1.1101  0.5933
19199TIP3   OH279087   2.092   4.065   5.648 -0.5111  0.3598 -0.5757
19199TIP3    H179088   2.142   3.985   5.666 -1.6147 -0.2273  0.0098
19199TIP3    H279089   2.095   4.074   5.553 -0.3226 -0.3480 -0.6414
19200TIP3   OH279090   1.087   1.624  16.998  0.5458  0.8641  0.4237
19200TIP3    H179091   1.172   1.588  17.024 -0.0797  0.6340  2.2702
19200TIP3    H279092   1.068   1.691  17.065 -0.7575  0.8600  0.0756
19201TIP3   OH279093   0.720   0.803   2.153 -0.0690  0.0972 -0.1306
19201TIP3    H179094   0.767   0.788   2.235  1.4392 -0.4611 -1.0488
19201TIP3    H279095   0.771   0.869   2.108 -0.3273 -0.3144 -1.0464
19202TIP3   OH279096   1.406   6.456   5.201  0.0283  0.2164 -0.0873
19202TIP3    H179097   1.446   6.511   5.267 -0.4341  0.3594  0.0780
19202TIP3    H279098   1.340   6.512   5.160  2.7441  1.4533 -3.2933
19203TIP3   OH279099   4.216   3.964   3.347 -0.2666 -0.5560  0.4640
19203TIP3    H179100   4.172   3.918   3.276  0.6430 -0.2450 -0.3215
19203TIP3    H279101   4.195   4.056   3.333  0.1992 -0.4573  0.3787
19204TIP3   OH279102   6.101   1.130  13.376  0.0587 -0.4225  0.5103
19204TIP3    H179103   6.076   1.211  13.331 -0.6536  0.3513  2.2080
19204TIP3    H279104   6.023   1.076  13.374  0.5624 -1.1638 -0.7062
19205TIP3   OH279105   4.239   6.720  12.485 -0.0867  0.1392  0.2384
19205TIP3    H179106   4.184   6.691  12.412 -0.4909 -0.0599  0.6106
19205TIP3    H279107   4.327   6.727  12.448 -0.2720 -0.0413 -0.2464
19206TIP3   OH279108   6.657   2.131  13.198 -0.0989 -0.0900  0.7339
19206TIP3    H179109   6.746   2.123  13.165  0.0106 -0.9779  1.1964
19206TIP3    H279110   6.645   2.224  13.214  0.0582  0.3065 -1.1747
19207TIP3   OH279111   2.746   3.579   5.218 -0.6174 -0.4112  0.1731
19207TIP3    H179112   2.788   3.546   5.298 -2.3968 -0.5737  1.0987
19207TIP3    H279113   2.732   3.672   5.235  0.0489 -0.1925 -0.4465
19208TIP3   OH279114   4.746   1.828  12.526 -0.9630  0.6920 -0.3046
19208TIP3    H179115   4.773   1.914  12.494  0.4848  0.5326  0.4031
19208TIP3    H279116   4.779   1.767  12.460  1.9578  0.3691  1.3161
19209TIP3   OH279117   3.133   5.677  12.084  0.0480 -0.1950 -0.5640
19209TIP3    H179118   3.142   5.657  12.177  1.4896 -0.9242 -0.8343
19209TIP3    H279119   3.073   5.611  12.051 -0.1412 -0.1914 -0.2268
19210TIP3   OH279120   4.087   1.654   0.716  0.0601 -0.3179 -0.0168
19210TIP3    H179121   4.017   1.594   0.741  0.0359 -0.1782  0.2527
19210TIP3    H279122   4.083   1.657   0.620 -0.8957  0.3966  0.0296
19211TIP3   OH279123   2.930   0.283  16.567  0.2310  0.1040  0.3431
19211TIP3    H179124   2.893   0.361  16.608 -0.2520 -0.3464  0.7611
19211TIP3    H279125   2.957   0.227  16.639  0.6532 -0.0862  0.0443
19212TIP3   OH279126   0.734   6.314   5.244  0.7216  0.3701  0.1432
19212TIP3    H179127   0.699   6.366   5.316 -0.3978 -0.5054  0.2477
19212TIP3    H279128   0.823   6.293   5.270  1.3377  2.4780 -0.0382
19213TIP3   OH279129   0.574   4.573  16.392 -0.5731  0.1735 -0.3417
19213TIP3    H179130   0.628   4.580  16.471 -2.9896  0.0246  1.4284
19213TIP3    H279131   0.622   4.622  16.325  0.4127  2.3978  1.8764
19214TIP3   OH279132   1.253   6.178  13.572 -0.1563  0.1403  0.0385
19214TIP3    H179133   1.279   6.126  13.496 -0.5824 -0.6790  0.4458
19214TIP3    H279134   1.224   6.114  13.637  0.3712  0.8128  0.9651
19215TIP3   OH279135   1.624   2.247  13.536 -0.0125 -0.0687  0.0488
19215TIP3    H179136   1.569   2.196  13.476 -1.3011  1.1878  0.1157
19215TIP3    H279137   1.669   2.310  13.480  0.5935 -0.4169  0.1303
19216TIP3   OH279138   4.011   0.701   5.921 -0.1450  0.4983  0.2396
19216TIP3    H179139   3.980   0.790   5.903  0.8107  0.7877 -0.0848
19216TIP3    H279140   4.106   0.706   5.907 -0.0745 -0.5709  0.2467
19217TIP3   OH279141   2.175   0.573   2.664  0.1782 -0.2253 -0.4371
19217TIP3    H179142   2.241   0.592   2.730  0.6322  1.3049 -1.2803
19217TIP3    H279143   2.112   0.517   2.708  0.1218  1.2651  1.4736
19218TIP3   OH279144   2.983   3.448  11.188 -0.3922 -0.2720  0.1830
19218TIP3    H179145   3.053   3.494  11.141 -2.1056  1.7568 -0.5370
19218TIP3    H279146   2.982   3.360  11.150  1.6258 -0.3143  0.1138
19219TIP3   OH279147   3.246   3.206   3.627  0.2465  0.7750  0.2230
19219TIP3    H179148   3.152   3.211   3.611  0.4721 -0.2969 -1.7880
19219TIP3    H279149   3.254   3.201   3.722 -1.8397 -0.8757  0.3796
19220TIP3   OH279150   4.673   5.660  14.882  0.5360  0.3249 -0.5539
19220TIP3    H179151   4.706   5.624  14.964  1.8870 -0.3288 -1.3531
19220TIP3    H279152   4.601   5.717  14.908  1.0426  0.2588  1.0944
19221TIP3   OH279153   6.184   0.874   5.959  0.3834 -0.5892  0.1370
19221TIP3    H179154   6.181   0.931   6.035  0.2830 -1.1162  0.5295
19221TIP3    H279155   6.134   0.797   5.984 -0.6258 -0.2866 -0.8739
19222TIP3   OH279156   2.451   3.763   2.449  0.1470 -0.3049  0.3922
19222TIP3    H179157   2.381   3.705   2.478 -1.0227  0.5774 -0.5526
19222TIP3    H279158   2.498   3.713   2.383 -1.3457  0.0319 -1.0059
19223TIP3   OH279159   3.527   5.072   2.055  0.2156 -0.1604  0.0195
19223TIP3    H179160   3.458   5.137   2.049 -0.7005 -1.2071 -2.0041
19223TIP3    H279161   3.568   5.073   1.968  0.7605 -1.6270  0.2328
19224TIP3   OH279162   0.914   2.545  14.666  0.2623  0.5043 -0.0798
19224TIP3    H179163   0.856   2.473  14.641 -0.4140  1.1370 -0.3674
19224TIP3    H279164   0.909   2.547  14.762  0.1642  0.2660 -0.0795
19225TIP3   OH279165   6.077   4.268   0.387  0.4215 -0.1457  0.3555
19225TIP3    H179166   6.068   4.215   0.466 -1.9819 -1.1654 -0.5289
19225TIP3    H279167   6.066   4.358   0.418  0.5543 -0.4337  1.2967
19226TIP3   OH279168   6.354   1.700  16.654 -0.5888  0.1405 -0.3033
19226TIP3    H179169   6.413   1.770  16.680 -1.6527  1.0893 -0.3985
19226TIP3    H279170   6.267   1.731  16.677 -1.1036 -1.0745 -0.5131
19227TIP3   OH279171   5.355   2.141  14.324  0.0800 -0.0215  0.2047
19227TIP3    H179172   5.330   2.161  14.414  1.6375  2.2677  0.2038
19227TIP3    H279173   5.308   2.060  14.304  1.5054 -1.9723  3.8301
19228TIP3   OH279174   0.624   1.418  16.507 -0.3691 -0.0757 -0.0398
19228TIP3    H179175   0.611   1.508  16.537 -1.3944  0.2275 -1.3011
19228TIP3    H279176   0.670   1.375  16.580 -0.7755  1.1847  1.0091
19229TIP3   OH279177   6.116   6.002   3.558 -0.2769 -0.4588 -0.3531
19229TIP3    H179178   6.111   6.091   3.591 -0.2393 -0.7617  0.5028
19229TIP3    H279179   6.025   5.974   3.550 -0.3276  0.0811 -1.8459
19230TIP3   OH279180   6.149   3.869   3.211 -0.4129  0.1189  0.6672
19230TIP3    H179181   6.191   3.874   3.125 -1.6935 -2.2609 -0.1847
19230TIP3    H279182   6.162   3.779   3.239 -0.2581  0.7831  2.8863
19231TIP3   OH279183   6.314   6.571   1.025  0.3128  0.3272  0.2977
19231TIP3    H179184   6.269   6.570   0.941 -0.9873 -1.8177  0.9244
19231TIP3    H279185   6.407   6.572   1.003  0.0348  3.0608 -1.0647
19232TIP3   OH279186   3.687   4.814   1.787 -0.3665 -0.6217 -0.4812
19232TIP3    H179187   3.661   4.906   1.784 -0.2851 -0.5667  0.3737
19232TIP3    H279188   3.781   4.817   1.805 -0.0557 -0.8517 -1.9502
19233TIP3   OH279189   2.715   0.289   2.982 -0.4825 -0.3076 -0.7769
19233TIP3    H179190   2.754   0.215   2.935  1.2079  0.3046 -0.4078
19233TIP3    H279191   2.625   0.293   2.949 -1.2344 -3.6071  0.4589
19234TIP3   OH279192   4.515   3.882  15.974 -0.0783 -0.2256 -0.2332
19234TIP3    H179193   4.465   3.963  15.961 -0.7578 -0.9843 -3.2442
19234TIP3    H279194   4.490   3.827  15.899  3.1353 -1.7595 -0.3380
19235TIP3   OH279195   5.241   4.212  14.904 -0.3559  0.1602 -0.2671
19235TIP3    H179196   5.329   4.175  14.913 -0.3151  0.3257  0.0420
19235TIP3    H279197   5.211   4.225  14.994  0.4205  2.7477 -0.3051
19236TIP3   OH279198   1.707   2.460   4.811  0.3694 -0.3135  0.1807
19236TIP3    H179199   1.758   2.443   4.732  0.4862  0.8930 -0.0125
19236TIP3    H279200   1.689   2.554   4.809 -3.0994 -0.8667 -0.4968
19237TIP3   OH279201   4.553   2.896  16.104  0.2192  0.6024 -0.3476
19237TIP3    H179202   4.505   2.813  16.107 -0.7384  1.1471 -0.0399
19237TIP3    H279203   4.508   2.947  16.037 -0.2288  1.4655  0.5896
19238TIP3   OH279204   4.632   0.101  12.783  0.0600 -0.5642  0.5329
19238TIP3    H179205   4.644   0.038  12.712 -1.1458 -0.3359  0.1060
19238TIP3    H279206   4.717   0.105  12.826  1.3826  0.5853 -1.9577
19239TIP3   OH279207   6.167   5.839  11.169 -0.0781 -0.5149 -0.0524
19239TIP3    H179208   6.185   5.853  11.076 -0.5629  0.2850 -0.0301
19239TIP3    H279209   6.073   5.825  11.173  0.0117 -1.0609  0.2664
19240TIP3   OH279210   6.230   2.320   1.943 -0.5192  0.1047 -0.3618
19240TIP3    H179211   6.276   2.336   2.025 -2.2427 -0.1497  0.7131
19240TIP3    H279212   6.275   2.245   1.904 -0.2800 -0.4198  0.8682
19241TIP3   OH279213   3.642   6.115  11.463  0.8726  0.4324 -0.8169
19241TIP3    H179214   3.719   6.090  11.413  2.0467  1.3169  0.4817
19241TIP3    H279215   3.644   6.058  11.540 -0.9458 -0.9612 -1.7319
19242TIP3   OH279216   0.096   5.071   0.628 -0.3286 -0.4148 -0.3876
19242TIP3    H179217   0.075   5.159   0.658  0.0076  1.2185 -4.3192
19242TIP3    H279218   0.181   5.051   0.666  0.5081  1.8539 -0.9503
19243TIP3   OH279219   2.864   0.721   6.148 -0.3495  0.0302 -0.3866
19243TIP3    H179220   2.938   0.778   6.127 -0.6264  0.9840  1.0939
19243TIP3    H279221   2.803   0.778   6.195 -0.7628 -1.3974  0.8869
19244TIP3   OH279222   2.086   3.125   2.702 -0.3093  0.1592  0.2570
19244TIP3    H179223   2.060   3.217   2.707 -1.1124 -0.0890  0.9972
19244TIP3    H279224   2.007   3.077   2.728  1.4649 -0.5922  5.2180
19245TIP3   OH279225   5.909   2.002   6.161 -0.5304  0.7433 -0.1663
19245TIP3    H179226   5.941   2.092   6.165 -2.1198  1.3288  0.1355
19245TIP3    H279227   5.821   2.006   6.200 -0.7999 -0.8549 -0.5436
19246TIP3   OH279228   2.075   3.824   5.176 -0.4338  0.3735 -0.6692
19246TIP3    H179229   1.994   3.870   5.156  0.2104  2.3144  0.8339
19246TIP3    H279230   2.107   3.793   5.091 -1.3327  2.0224 -1.6686
19247TIP3   OH279231   5.256   4.974  14.471  0.0277  0.1277  0.4866
19247TIP3    H179232   5.196   4.927  14.529  1.1412 -0.9831  0.7729
19247TIP3    H279233   5.312   4.906  14.434  1.8695  1.2115  1.1257
19248TIP3   OH279234   1.846   3.560  16.988  0.3013  0.7650  0.0182
19248TIP3    H179235   1.771   3.618  16.974 -0.9780 -0.7013  0.4936
19248TIP3    H279236   1.889   3.595  17.066 -0.5879  0.9443  0.4430
19249TIP3   OH279237   1.879   0.640  13.130  0.1580 -0.3918  0.3225
19249TIP3    H179238   1.865   0.563  13.076  2.8047 -0.4280 -0.4745
19249TIP3    H279239   1.856   0.714  13.073  1.6679 -0.4837 -0.4610
19250TIP3   OH279240   4.253   2.891  14.667 -0.0363 -0.2930 -0.4060
19250TIP3    H179241   4.273   2.851  14.752 -0.6062  2.7441  1.3378
19250TIP3    H279242   4.337   2.920  14.634  0.1691 -1.3431 -0.8444
19251TIP3   OH279243   5.076   4.162  15.737 -0.2756  0.5645  0.1615
19251TIP3    H179244   5.038   4.077  15.718  0.5672  0.5141 -1.5265
19251TIP3    H279245   5.124   4.151  15.819  0.2353 -0.7262 -0.2988
19252TIP3   OH279246   0.008   4.670   4.433 -0.6569  0.0238 -0.6960
19252TIP3    H179247  -0.010   4.714   4.516 -1.9626  0.7092 -1.3001
19252TIP3    H279248   0.102   4.679   4.420 -0.5023  0.2368  0.5263
19253TIP3   OH279249   4.482   4.378  17.061  0.1119  0.3159 -0.1003
19253TIP3    H179250   4.423   4.375  16.986  1.0006 -0.0599 -0.8005
19253TIP3    H279251   4.436   4.329  17.129  1.0300 -3.0676 -1.7018
19254TIP3   OH279252   5.107   5.319  13.148  0.9675 -0.2939 -0.1208
19254TIP3    H179253   5.029   5.351  13.192  1.5289  1.1217 -0.0979
19254TIP3    H279254   5.074   5.258  13.081  0.0151 -1.2401  1.1729
19255TIP3   OH279255   1.118   1.274   0.461  0.5387 -0.4579  0.1203
19255TIP3    H179256   1.186   1.258   0.526 -1.2133 -3.1368  1.4473
19255TIP3    H279257   1.039   1.290   0.513  0.1256  3.5631 -1.3407
19256TIP3   OH279258   1.026   4.572   3.069 -0.1287  0.3562 -0.9746
19256TIP3    H179259   1.020   4.492   3.122  0.0440  0.5169 -0.7120
19256TIP3    H279260   1.005   4.643   3.130  0.0584  0.5408 -1.1224
19257TIP3   OH279261   6.525   5.233   4.123  0.2459  0.8493 -0.0143
19257TIP3    H179262   6.565   5.159   4.169 -0.5202  0.9478  0.8274
19257TIP3    H279263   6.522   5.303   4.188 -0.0993  1.2565 -0.4648
19258TIP3   OH279264   6.769   2.344   5.681 -0.0221 -0.1686  0.3963
19258TIP3    H179265   6.790   2.402   5.754 -0.0385 -1.3621  1.3780
19258TIP3    H279266   6.854   2.308   5.654 -0.1870 -0.8953  0.8352
19259TIP3   OH279267   5.785   1.132  11.662 -0.2947 -0.6255 -0.0605
19259TIP3    H179268   5.764   1.039  11.663  0.4249 -0.7932  0.8274
19259TIP3    H279269   5.846   1.142  11.588 -0.6133 -0.7983 -0.3473
19260TIP3   OH279270   1.314   2.182  16.058 -0.2695  0.3261 -0.0106
19260TIP3    H179271   1.239   2.208  16.004 -1.2475 -1.8880  0.1758
19260TIP3    H279272   1.371   2.134  15.998 -0.2489 -0.1801  0.4099
19261TIP3   OH279273   4.373   6.230  11.447 -0.0050  0.0691  0.2164
19261TIP3    H179274   4.298   6.238  11.388  1.0685 -0.2129 -1.2285
19261TIP3    H279275   4.445   6.274  11.401  1.6298 -2.6879 -0.1236
19262TIP3   OH279276   1.476   2.750   0.441  0.1947  0.7724  0.3819
19262TIP3    H179277   1.404   2.812   0.457 -0.4507  0.2989 -0.5744
19262TIP3    H279278   1.466   2.684   0.511 -3.4263 -2.0214 -2.3518
19263TIP3   OH279279   5.598   2.322  11.916 -0.1311  0.5127 -0.2426
19263TIP3    H179280   5.589   2.239  11.868 -1.0072  0.0574  0.6683
19263TIP3    H279281   5.656   2.300  11.990 -2.2188  0.0490  1.3532
19264TIP3   OH279282   1.097   3.575  13.528  0.3487 -0.6089 -0.1808
19264TIP3    H179283   1.095   3.542  13.618  0.7155  0.1486  0.1151
19264TIP3    H279284   1.163   3.644  13.529 -1.2953  1.0466 -0.4327
19265TIP3   OH279285   4.002   1.949  17.234  0.1262 -0.7536  0.2572
19265TIP3    H179286   4.048   1.866  17.243  0.0852 -1.0685 -2.0356
19265TIP3    H279287   4.068   2.011  17.203 -0.3925 -0.5800 -0.5372
19266TIP3   OH279288   5.380   2.812   0.999  0.3411 -0.2254  0.1676
19266TIP3    H179289   5.337   2.897   0.988  0.5421  0.1277  1.7955
19266TIP3    H279290   5.350   2.760   0.925  0.4923  1.3710 -1.0546
19267TIP3   OH279291   6.634   5.016   5.934  0.3458  0.6150 -0.3389
19267TIP3    H179292   6.613   4.968   5.854  1.1505  0.0100 -0.2088
19267TIP3    H279293   6.685   4.953   5.986  0.6045  1.3060  0.2523
19268TIP3   OH279294   2.358   1.193   4.078 -0.4767 -0.0668 -0.2960
19268TIP3    H179295   2.447   1.228   4.079 -0.6845  0.4489  0.7179
19268TIP3    H279296   2.347   1.160   3.988  0.7126 -0.1026 -0.4476
19269TIP3   OH279297   3.561   4.144   1.393 -0.0224  0.3025 -0.5499
19269TIP3    H179298   3.545   4.231   1.357 -1.8482  0.2655  0.0576
19269TIP3    H279299   3.628   4.157   1.460 -1.4345  1.5751  0.6963
19270TIP3   OH279300   0.746   6.041   1.163 -0.1794  0.1310  0.1822
19270TIP3    H179301   0.742   6.055   1.069  2.0626  0.2976  0.0705
19270TIP3    H279302   0.749   6.129   1.201 -1.7099  0.0795  0.4844
19271TIP3   OH279303   4.902   5.167  14.198 -0.5922 -0.3108 -0.1043
19271TIP3    H179304   4.963   5.105  14.239 -0.8210 -0.5979 -0.1929
19271TIP3    H279305   4.958   5.238  14.166 -0.3349 -0.4337  0.0670
19272TIP3   OH279306   6.104   3.548   4.827 -0.2664  0.0868 -0.5433
19272TIP3    H179307   6.102   3.636   4.866  2.0967  0.3333 -0.8537
19272TIP3    H279308   6.196   3.532   4.810 -0.4165 -3.1242  0.9631
19273TIP3   OH279309   2.926   0.316   5.836  0.1370  0.1067  0.1010
19273TIP3    H179310   2.857   0.381   5.818  1.3899  1.2712 -0.6629
19273TIP3    H279311   2.901   0.240   5.784 -0.7814  0.3637  0.1475
19274TIP3   OH279312   5.128   1.417  11.392 -0.3133 -0.4865  0.1367
19274TIP3    H179313   5.082   1.337  11.421 -0.2290 -0.0730  1.5037
19274TIP3    H279314   5.072   1.453  11.324 -0.2549 -1.8113 -0.6510
19275TIP3   OH279315   3.903   3.923  16.097 -0.6078 -0.1133  0.3433
19275TIP3    H179316   3.904   3.996  16.035 -1.5485 -1.3570 -1.2061
19275TIP3    H279317   3.922   3.964  16.182 -0.8411  1.8812 -0.5032
19276TIP3   OH279318   5.060   5.671  11.795  0.6977  0.0336  0.4413
19276TIP3    H179319   5.095   5.698  11.710 -1.6636  2.1240  0.0006
19276TIP3    H279320   5.082   5.744  11.853  0.5991 -0.4914  1.1408
19277TIP3   OH279321   0.015   2.989   2.798 -0.2419  0.3074 -0.0640
19277TIP3    H179322   0.039   3.007   2.888  1.3357  2.2878 -0.8061
19277TIP3    H279323  -0.048   3.058   2.776 -1.1997 -0.6128 -0.2749
19278TIP3   OH279324   4.598   1.160  13.860 -0.1847  0.5271  0.1916
19278TIP3    H179325   4.639   1.080  13.828  0.5867  1.1568 -0.4619
19278TIP3    H279326   4.612   1.159  13.955  1.8339  0.9671 -0.0675
19279TIP3   OH279327   0.874   5.804   1.450 -0.3867 -0.2491 -0.4929
19279TIP3    H179328   0.855   5.874   1.387  0.9643  0.0101 -0.6408
19279TIP3    H279329   0.816   5.732   1.423  0.1836 -0.1602 -2.0770
19280TIP3   OH279330   4.394   2.915  12.713  0.1768 -0.4577  0.4464
19280TIP3    H179331   4.427   2.830  12.683  0.7148  0.1294 -0.6754
19280TIP3    H279332   4.471   2.972  12.714 -0.7405  0.9907 -2.4180
19281TIP3   OH279333   4.626   5.522   1.675 -0.0090 -0.2696  0.3405
19281TIP3    H179334   4.704   5.490   1.719 -1.0190  0.9493  3.2534
19281TIP3    H279335   4.654   5.602   1.631  0.1349  1.1888  2.8876
19282TIP3   OH279336   3.691   1.574  12.223  0.2522 -0.1991 -0.0234
19282TIP3    H179337   3.644   1.596  12.142  0.1141  0.6426  0.2704
19282TIP3    H279338   3.722   1.485  12.210  1.3973  0.3773 -1.5791
19283TIP3   OH279339   4.367   6.021  14.457  0.0390  0.1116  0.0470
19283TIP3    H179340   4.327   6.087  14.401 -0.6074  0.1220  0.5131
19283TIP3    H279341   4.455   6.009  14.420  0.5680  1.9979  0.5849
19284TIP3   OH279342   0.911   6.186   2.544  0.2433 -0.0277 -0.7449
19284TIP3    H179343   1.006   6.181   2.544  0.3076  0.8013 -2.0571
19284TIP3    H279344   0.887   6.196   2.636  1.4107 -0.2264 -0.4076
19285TIP3   OH279345   0.251   1.602  13.415  0.1674 -0.3226 -0.5535
19285TIP3    H179346   0.309   1.653  13.473  0.9030  1.1682 -2.5014
19285TIP3    H279347   0.173   1.656  13.405 -0.0590 -0.6828 -0.7683
19286TIP3   OH279348   1.209   4.232   1.762  0.7160 -0.9304  0.1578
19286TIP3    H179349   1.292   4.280   1.772  1.0307 -1.3815 -0.2028
19286TIP3    H279350   1.143   4.300   1.755  1.0154 -0.5662  0.7799
19287TIP3   OH279351   2.362   3.201   4.120 -0.7297 -0.1151  0.2561
19287TIP3    H179352   2.388   3.181   4.210 -0.6846  0.6274  0.4211
19287TIP3    H279353   2.277   3.243   4.129 -1.0937 -0.7663 -0.1218
19288TIP3   OH279354   2.234   3.478  16.168 -0.4638  0.3680  0.1663
19288TIP3    H179355   2.258   3.415  16.100 -1.2178  0.0775  0.1673
19288TIP3    H279356   2.193   3.426  16.237 -1.4133  0.8880  0.0111
19289TIP3   OH279357   5.027   5.022  12.835 -0.1529 -0.0727  0.0568
19289TIP3    H179358   4.973   5.088  12.879 -0.2914  0.4867 -0.9150
19289TIP3    H279359   5.117   5.044  12.861 -0.2253  0.3107 -0.0124
19290TIP3   OH279360   3.336   5.213   0.932  0.0179  0.6456  0.4470
19290TIP3    H179361   3.419   5.238   0.892 -1.2832  1.0988 -2.1307
19290TIP3    H279362   3.291   5.296   0.950 -0.3683  0.3724  0.7761
19291TIP3   OH279363   5.585   4.760  11.297 -0.2081  0.0640 -0.4890
19291TIP3    H179364   5.496   4.748  11.263 -1.4419 -2.0684  2.9397
19291TIP3    H279365   5.577   4.833  11.359  0.6339  0.2946 -0.6420
19292TIP3   OH279366   2.152   0.148   1.336  0.8948 -0.1318 -0.3134
19292TIP3    H179367   2.060   0.119   1.338  0.5362  0.9566 -0.5554
19292TIP3    H279368   2.169   0.179   1.425  1.2048 -0.8445 -0.1192
19293TIP3   OH279369   3.774   6.116   1.358 -0.2627 -0.4375 -0.1027
19293TIP3    H179370   3.828   6.191   1.334  0.2089 -0.8163 -0.2461
19293TIP3    H279371   3.734   6.088   1.276 -1.7509  0.6562  0.2170
19294TIP3   OH279372   5.069   6.096   3.746 -0.5623  0.0216 -0.0654
19294TIP3    H179373   5.147   6.145   3.774  0.5738 -2.1699  0.8675
19294TIP3    H279374   4.998   6.159   3.753  0.7478  1.4327  1.5032
19295TIP3   OH279375   3.000   6.723   1.514 -0.3319 -0.5108  0.1524
19295TIP3    H179376   2.997   6.803   1.565  0.2356 -0.6898  0.4798
19295TIP3    H279377   2.910   6.710   1.483 -0.3686  0.4013 -0.1487
19296TIP3   OH279378   5.546   4.283   3.906  0.0388  0.3898  0.6724
19296TIP3    H179379   5.461   4.327   3.909 -0.7167 -0.8428 -1.1411
19296TIP3    H279380   5.533   4.202   3.955  0.1559  0.2009  0.3938
19297TIP3   OH279381   1.973   2.055  14.408 -0.1080  0.1324  0.3894
19297TIP3    H179382   2.018   1.971  14.417 -1.5855 -0.5273  2.1541
19297TIP3    H279383   1.902   2.038  14.346 -0.8255 -0.1300  1.2674
19298TIP3   OH279384   0.952   3.397   4.857 -0.2990  0.4563  0.1451
19298TIP3    H179385   0.970   3.474   4.910 -1.9228  0.3936  0.8513
19298TIP3    H279386   0.866   3.414   4.819 -1.1314 -1.3743  1.0749
19299TIP3   OH279387   4.408   1.443   4.283 -0.0257 -0.0645  0.5605
19299TIP3    H179388   4.342   1.505   4.250  0.5190 -0.0068 -0.4855
19299TIP3    H279389   4.368   1.357   4.271  0.3607 -0.0796 -0.8014
19300TIP3   OH279390   6.593   2.158   6.445  0.3291 -0.0514 -0.6864
19300TIP3    H179391   6.618   2.238   6.491 -0.9399 -0.1488  0.2402
19300TIP3    H279392   6.613   2.087   6.506  2.6988 -0.6128 -2.0188
19301TIP3   OH279393   0.761   6.425   3.892 -1.0179  0.0673  0.2552
19301TIP3    H179394   0.741   6.349   3.947 -2.9798  1.0253  0.9699
19301TIP3    H279395   0.759   6.390   3.803 -0.6886 -0.9523  0.6338
19302TIP3   OH279396   5.158   3.274   4.135  0.0086  0.3033 -0.2682
19302TIP3    H179397   5.170   3.368   4.124  0.3049  0.4651  1.2660
19302TIP3    H279398   5.218   3.235   4.071  2.1528  1.1825  1.0920
19303TIP3   OH279399   2.834   0.310   6.275 -0.5738 -0.0387  0.6452
19303TIP3    H179400   2.838   0.306   6.371  0.5094 -0.9278  0.5752
19303TIP3    H279401   2.777   0.385   6.257 -1.5069 -0.3888  1.9869
19304TIP3   OH279402   1.522   1.338  17.040  0.4428 -0.3512  0.6818
19304TIP3    H179403   1.530   1.428  17.007  1.4622 -0.9048 -0.6585
19304TIP3    H279404   1.467   1.346  17.119  2.5836  1.7884  2.0732
19305TIP3   OH279405   3.029   2.341  12.766 -0.1293  0.0425  0.0543
19305TIP3    H179406   3.096   2.408  12.753 -1.2880  1.1667 -0.3591
19305TIP3    H279407   3.058   2.292  12.843  1.1893  0.4408 -0.1626
19306TIP3   OH279408   3.084   0.427  13.839 -1.0736  0.0388 -0.2860
19306TIP3    H179409   3.086   0.355  13.903 -3.1906 -0.5096 -0.7283
19306TIP3    H279410   3.170   0.425  13.798 -1.0903 -2.3641 -0.3674
19307TIP3   OH279411   0.500   5.222   5.174 -0.1411 -0.2123 -0.0869
19307TIP3    H179412   0.512   5.180   5.259  0.3839  1.9637  0.9731
19307TIP3    H279413   0.478   5.312   5.194  0.1339  0.4042 -2.2731
19308TIP3   OH279414   0.527   5.182   2.181  0.2441 -0.4835  0.2342
19308TIP3    H179415   0.577   5.227   2.112 -1.6231  1.3290 -0.0217
19308TIP3    H279416   0.568   5.212   2.263  1.0067 -0.8359 -0.0042
19309TIP3   OH279417   1.292   2.198  13.454 -0.0763  0.3493  0.4198
19309TIP3    H179418   1.207   2.226  13.421 -0.3826  0.3880  1.2334
19309TIP3    H279419   1.289   2.216  13.548  0.0118 -1.7069  0.8475
19310TIP3   OH279420   5.761   0.173  10.783  0.3932  0.1354 -0.4586
19310TIP3    H179421   5.709   0.194  10.860  2.9174 -1.0076  1.7358
19310TIP3    H279422   5.722   0.092  10.749  0.2843 -0.3352  0.7276
19311TIP3   OH279423   5.430   2.985   5.175 -0.4978 -0.1882 -0.4260
19311TIP3    H179424   5.375   2.930   5.231  0.7381  0.7820  1.8827
19311TIP3    H279425   5.500   2.927   5.145 -0.0868 -0.2996  0.6920
19312TIP3   OH279426   6.164   4.479  10.508  0.6676 -0.3483  0.3430
19312TIP3    H179427   6.257   4.460  10.498  1.0009  1.3472 -0.1196
19312TIP3    H279428   6.157   4.521  10.594  0.5762  0.7451 -0.1749
19313TIP3   OH279429   3.607   2.070  11.898 -0.1735  0.0962 -0.5297
19313TIP3    H179430   3.603   1.988  11.848  0.8560  0.0976 -0.6248
19313TIP3    H279431   3.694   2.070  11.937 -0.5748  0.6217  0.3860
19314TIP3   OH279432   5.340   3.853  15.404  0.2317 -0.5091  0.2831
19314TIP3    H179433   5.293   3.936  15.405  0.4172 -0.4027  0.2734
19314TIP3    H279434   5.391   3.856  15.323  1.9332  0.3263  1.3417
19315TIP3   OH279435   5.484   1.579  14.375 -0.0139  0.0025  0.3416
19315TIP3    H179436   5.500   1.526  14.452 -0.2331 -1.3320 -0.4957
19315TIP3    H279437   5.411   1.636  14.399 -1.3032 -1.6675  0.5402
19316TIP3   OH279438   3.776   4.740  14.719  0.6148 -0.2133 -0.5635
19316TIP3    H179439   3.756   4.683  14.645  1.6491  2.0339 -2.6936
19316TIP3    H279440   3.844   4.799  14.687  0.2177  1.6916  1.7825
19317TIP3   OH279441   3.458   2.818   6.307  0.2265  0.5740 -0.0888
19317TIP3    H179442   3.367   2.836   6.286 -0.0633 -0.5542  0.1654
19317TIP3    H279443   3.478   2.878   6.380 -0.5469  0.2747  0.3799
19318TIP3   OH279444   5.819   1.064  12.495 -0.1770  0.0789 -0.0074
19318TIP3    H179445   5.795   1.086  12.405  0.2121 -1.0588 -0.4003
19318TIP3    H279446   5.863   1.142  12.528 -0.0159  0.3788 -0.9124
19319TIP3   OH279447   5.678   3.766  11.244 -0.3032 -0.2825 -0.2323
19319TIP3    H179448   5.730   3.689  11.268 -1.2160 -0.7022  0.5034
19319TIP3    H279449   5.630   3.740  11.166 -0.1858 -0.2616 -0.3110
19320TIP3   OH279450   5.246   3.283  11.450 -0.4188  0.4999 -0.3409
19320TIP3    H179451   5.210   3.213  11.505 -0.4474 -0.6494 -1.7547
19320TIP3    H279452   5.233   3.363  11.501 -2.4334 -0.2184  0.3795
19321TIP3   OH279453   0.019   4.845   4.666  0.1037 -0.3330 -0.2802
19321TIP3    H179454   0.002   4.914   4.730  1.4389 -0.3872  0.1556
19321TIP3    H279455   0.105   4.865   4.631 -0.7056 -0.1565 -2.2936
19322TIP3   OH279456   2.843   2.587  12.650 -0.3783  0.0465  0.4160
19322TIP3    H179457   2.842   2.492  12.665 -1.0233  0.0867  0.6943
19322TIP3    H279458   2.842   2.625  12.738  1.5724  0.3396  0.3471
19323TIP3   OH279459   3.202   6.550   2.130 -0.4310  0.0683 -0.1441
19323TIP3    H179460   3.280   6.507   2.166  0.0479  1.0029 -0.0302
19323TIP3    H279461   3.133   6.531   2.194  0.0210  0.3380  0.4350
19324TIP3   OH279462   4.330   0.490   0.791 -0.4098 -0.1157 -0.0800
19324TIP3    H179463   4.287   0.436   0.725 -1.3503  0.8304 -0.2630
19324TIP3    H279464   4.261   0.513   0.853 -0.3753  1.9719 -0.7349
19325TIP3   OH279465   1.865   3.114   5.433  0.6686 -0.1131  0.4445
19325TIP3    H179466   1.874   3.152   5.346 -0.8138  1.2490  0.8253
19325TIP3    H279467   1.854   3.189   5.491 -1.2358 -1.0394  1.3932
19326TIP3   OH279468   5.283   1.403   2.253  0.3909 -1.1317 -0.5514
19326TIP3    H179469   5.271   1.344   2.328  1.0121 -1.6348 -0.8372
19326TIP3    H279470   5.372   1.385   2.222  1.1329  0.9235  0.1936
19327TIP3   OH279471   1.840   2.667   1.734  0.0800 -0.1624  0.3078
19327TIP3    H179472   1.796   2.708   1.659 -2.6040  0.5555  2.0979
19327TIP3    H279473   1.833   2.573   1.717  1.7196 -0.0365 -1.4241
19328TIP3   OH279474   5.816   1.526  11.346 -0.1231 -0.3919  0.4295
19328TIP3    H179475   5.895   1.531  11.400  1.0187 -1.1498 -1.1004
19328TIP3    H279476   5.811   1.435  11.318 -1.5954 -0.3713  0.5250
19329TIP3   OH279477   0.226   5.529   4.423  0.0099  0.8816  0.6421
19329TIP3    H179478   0.228   5.618   4.458 -0.3508  1.5510 -0.9488
19329TIP3    H279479   0.232   5.472   4.500 -1.5562  2.2655  1.8331
19330TIP3   OH279480   2.341   5.373   0.664 -0.3412  0.4809 -0.1046
19330TIP3    H179481   2.419   5.343   0.619  0.2764  1.9216 -0.0254
19330TIP3    H279482   2.280   5.397   0.594  0.4466  2.2780 -0.2140
19331TIP3   OH279483   4.832   1.398   3.693  0.3160 -0.0796  0.0207
19331TIP3    H179484   4.787   1.344   3.760 -0.9273  2.2030  1.1477
19331TIP3    H279485   4.789   1.373   3.611 -1.3698  0.2739  0.7383
19332TIP3   OH279486   0.395   6.148  15.665  0.7253  0.4477  0.4957
19332TIP3    H179487   0.301   6.161  15.658  0.8380  0.6542 -1.0436
19332TIP3    H279488   0.407   6.094  15.743 -0.8717 -1.5778 -0.5684
19333TIP3   OH279489   0.641   3.388   5.255  0.4737 -0.1364 -0.2272
19333TIP3    H179490   0.629   3.476   5.291  1.6965  0.2979 -0.8159
19333TIP3    H279491   0.641   3.401   5.160 -0.5417 -0.9591 -0.3592
19334TIP3   OH279492   0.914   0.181  11.228  0.0214 -0.0773 -0.0871
19334TIP3    H179493   0.856   0.153  11.157  0.1095 -2.2985  0.6254
19334TIP3    H279494   0.984   0.115  11.228  1.2507  1.1954  0.6052
19335TIP3   OH279495   2.788   2.453   4.616  0.2889  0.0717 -0.2659
19335TIP3    H179496   2.750   2.510   4.682  3.1200  2.0886 -0.2151
19335TIP3    H279497   2.843   2.392   4.666  1.9604  1.2191 -0.5973
19336TIP3   OH279498   4.456   6.673  13.505  0.4216  0.0627  0.0470
19336TIP3    H179499   4.403   6.752  13.501 -0.8369 -0.6870  1.1569
19336TIP3    H279500   4.469   6.648  13.413 -0.9567  0.3988 -0.2557
19337TIP3   OH279501   5.722   6.764   1.198  0.2318 -0.2152 -0.0162
19337TIP3    H179502   5.707   6.681   1.153 -0.0436  0.0180 -0.3684
19337TIP3    H279503   5.814   6.762   1.224  0.4897 -0.2017 -0.9138
19338TIP3   OH279504   1.759   5.158  16.970 -0.0720  0.4493  0.2680
19338TIP3    H179505   1.700   5.122  16.904 -0.0908  0.5165  0.2471
19338TIP3    H279506   1.822   5.210  16.920  1.0193 -0.9592  0.1305
19339TIP3   OH279507   6.507   4.485   0.055 -0.2061 -0.1561  0.1955
19339TIP3    H179508   6.594   4.444   0.065  0.4352  0.6282 -1.7756
19339TIP3    H279509   6.447   4.422   0.096  1.0637 -1.6962 -0.1830
19340TIP3   OH279510   4.696   6.797  13.583 -0.1523  0.2349 -0.0839
19340TIP3    H179511   4.606   6.768  13.572 -0.4290  0.1122  2.0902
19340TIP3    H279512   4.745   6.718  13.604  0.3885  0.3632 -0.8383
19341TIP3   OH279513   2.739   5.762  12.726 -0.7464  0.0373  0.1564
19341TIP3    H179514   2.750   5.764  12.630  0.0954 -0.4980  0.2259
19341TIP3    H279515   2.696   5.845  12.747  1.2708  1.3176 -0.4493
19342TIP3   OH279516   6.389   5.828   0.834  0.3706  0.1080 -0.0002
19342TIP3    H179517   6.479   5.862   0.831  0.3987  0.0090 -0.4392
19342TIP3    H279518   6.400   5.733   0.831  0.2666  0.0864  0.3766
19343TIP3   OH279519   1.132   4.415  10.519  0.0455 -0.8716 -0.1577
19343TIP3    H179520   1.127   4.510  10.527 -1.8205 -1.0080  1.2372
19343TIP3    H279521   1.045   4.385  10.548  1.3454 -3.1068  1.7756
19344TIP3   OH279522   1.548   0.957   3.125  0.0760 -0.7329  0.8999
19344TIP3    H179523   1.576   0.877   3.082 -1.6582 -1.0217  0.2122
19344TIP3    H279524   1.458   0.939   3.153 -0.9826  1.4769 -0.7250
19345TIP3   OH279525   1.301   2.769   3.472 -0.1105 -0.2728 -0.2232
19345TIP3    H179526   1.254   2.692   3.506  1.9951 -1.4377  0.2303
19345TIP3    H279527   1.358   2.796   3.544  0.6136  0.5019 -1.0620
19346TIP3   OH279528   5.542   0.327   4.396 -0.0888  0.5524 -0.0070
19346TIP3    H179529   5.611   0.388   4.422 -0.8846  1.4334  0.0640
19346TIP3    H279530   5.531   0.342   4.302  0.1252  0.0919 -0.1071
19347TIP3   OH279531   3.539   2.518  11.965  0.5521  0.2395  0.4544
19347TIP3    H179532   3.614   2.510  11.906  2.1596  0.6269  2.3310
19347TIP3    H279533   3.504   2.430  11.972 -1.0636  0.4936 -2.6616
19348TIP3   OH279534   6.207   5.518  15.836 -0.0591 -0.6558  0.0550
19348TIP3    H179535   6.175   5.599  15.876 -2.1365 -1.7769  0.8128
19348TIP3    H279536   6.139   5.493  15.773  0.0866 -2.2333  0.4670
19349TIP3   OH279537   3.914   4.135   3.008  0.2251  0.1604  0.5604
19349TIP3    H179538   3.964   4.179   2.939 -0.3987  0.6191  0.3872
19349TIP3    H279539   3.968   4.060   3.033  0.2089 -0.3603 -0.8424
19350TIP3   OH279540   4.708   3.567  12.235 -0.1378  0.4585 -0.0875
19350TIP3    H179541   4.777   3.629  12.212 -0.3100  1.0009  0.8206
19350TIP3    H279542   4.740   3.523  12.313 -0.7304  0.5882  0.2369
19351TIP3   OH279543   6.191   2.172   6.091  0.5198  0.6055 -0.3139
19351TIP3    H179544   6.260   2.169   6.158  0.2288 -0.4685 -0.0429
19351TIP3    H279545   6.117   2.215   6.135  0.4788  0.2948 -0.0676
19352TIP3   OH279546   0.301   2.311   5.534  0.0351  0.8100  0.3029
19352TIP3    H179547   0.343   2.384   5.489  0.0527 -0.0369 -1.1110
19352TIP3    H279548   0.360   2.292   5.608  1.5063  0.4714 -0.9082
19353TIP3   OH279549   2.020   1.717  15.249  0.5637  0.2215  0.0704
19353TIP3    H179550   1.931   1.682  15.240  0.9229 -0.2062 -3.3672
19353TIP3    H279551   2.014   1.781  15.320 -2.6328  0.6089 -0.3904
19354TIP3   OH279552   0.119   0.982   1.689 -0.6186 -0.0877 -0.0099
19354TIP3    H179553   0.180   0.982   1.615  1.7375  3.8115  1.6048
19354TIP3    H279554   0.161   0.925   1.754 -0.5477 -0.2315 -0.1794
19355TIP3   OH279555   3.059   4.761  12.770 -0.1121  0.1989  0.2174
19355TIP3    H179556   3.004   4.797  12.701  0.2685  0.6266  0.1328
19355TIP3    H279557   2.998   4.745  12.843 -0.2971  1.0242  0.2575
19356TIP3   OH279558   3.225   2.531   0.376  0.0393 -0.2350  0.0979
19356TIP3    H179559   3.298   2.490   0.422  1.0043  1.0874 -0.1884
19356TIP3    H279560   3.183   2.459   0.328 -0.7962 -1.5993  2.6837
19357TIP3   OH279561   3.748   4.160   5.530 -0.2610  0.5380  0.5838
19357TIP3    H179562   3.838   4.153   5.562 -0.1646  0.6859  0.3531
19357TIP3    H279563   3.758   4.168   5.435 -0.5789 -0.9390  0.3962
19358TIP3   OH279564   3.526   1.027  13.300  0.2249 -0.1033  0.3025
19358TIP3    H179565   3.518   0.962  13.370  0.9914 -0.4227  0.1034
19358TIP3    H279566   3.448   1.013  13.246 -0.7898  0.6667  1.5030
19359TIP3   OH279567   5.694   3.549   6.051 -0.2386  0.4820 -0.2173
19359TIP3    H179568   5.672   3.461   6.082 -0.0773  0.9740  1.3860
19359TIP3    H279569   5.789   3.551   6.050 -0.2346  0.3678 -1.1345
19360TIP3   OH279570   2.198   4.313   4.918 -0.3508 -0.3618  0.4174
19360TIP3    H179571   2.164   4.403   4.912  1.0030  0.0823 -2.8395
19360TIP3    H279572   2.120   4.258   4.915 -1.1404  0.6816  1.0386
19361TIP3   OH279573   2.496   2.325   3.461  0.2187  0.1788  0.1443
19361TIP3    H179574   2.534   2.323   3.374  1.1840 -2.4451  0.5330
19361TIP3    H279575   2.404   2.300   3.448  0.4996 -0.7763 -0.0976
19362TIP3   OH279576   6.334   4.583  11.370  0.3646 -0.3951 -0.1618
19362TIP3    H179577   6.296   4.496  11.358  0.8241 -0.3500 -2.1978
19362TIP3    H279578   6.423   4.566  11.399  0.7598 -0.6557 -1.4722
19363TIP3   OH279579   0.780   1.371  15.150  0.1623  0.4877 -0.3431
19363TIP3    H179580   0.865   1.397  15.115  0.4409  2.3836  1.5783
19363TIP3    H279581   0.720   1.382  15.077  1.0935  1.9737 -0.9304
19364TIP3   OH279582   0.819   5.010   0.810  0.3566 -0.0595 -0.5091
19364TIP3    H179583   0.764   4.951   0.759 -1.2732  1.2655 -0.3982
19364TIP3    H279584   0.773   5.094   0.806  2.0072  0.9273  0.2529
19365TIP3   OH279585   2.732   1.040   5.059 -0.3153  0.2735 -0.3333
19365TIP3    H179586   2.670   0.968   5.068  0.5842 -0.4659  0.1621
19365TIP3    H279587   2.749   1.069   5.149  1.0016 -0.3827 -0.3475
19366TIP3   OH279588   6.240   1.032   1.146  0.5557 -0.1467  0.5796
19366TIP3    H179589   6.163   1.040   1.202 -0.4701 -0.0224 -0.7899
19366TIP3    H279590   6.281   1.119   1.149 -0.9781  0.6823 -0.8735
19367TIP3   OH279591   3.125   6.119  13.629 -0.4171  0.2517 -0.2655
19367TIP3    H179592   3.149   6.027  13.617  0.2061  0.4325 -0.4162
19367TIP3    H279593   3.038   6.126  13.588  0.2889  0.1258 -1.8700
19368TIP3   OH279594   6.211   0.888   5.667 -0.3836 -0.1855 -0.2022
19368TIP3    H179595   6.209   0.875   5.762 -0.7583 -4.3756 -0.5881
19368TIP3    H279596   6.302   0.871   5.642 -0.5323 -0.2971 -0.6886
19369TIP3   OH279597   1.416   4.942   1.858  0.2040 -0.1699 -0.3188
19369TIP3    H179598   1.386   4.862   1.900  1.0890  0.3932  1.4593
19369TIP3    H279599   1.350   4.960   1.791 -0.5376 -1.8156 -0.0740
19370TIP3   OH279600   4.666   1.225   3.217 -0.1999  0.3532  0.6344
19370TIP3    H179601   4.676   1.130   3.224  2.7793  0.4242 -1.0250
19370TIP3    H279602   4.614   1.239   3.138  1.2499  0.0873 -0.3918
19371TIP3   OH279603   3.822   1.859  16.172 -0.0046  0.0340  0.0594
19371TIP3    H179604   3.811   1.764  16.177  1.2081 -0.1791 -0.9314
19371TIP3    H279605   3.850   1.876  16.082  0.1545  1.3039  0.3255
19372TIP3   OH279606   2.302   5.958  13.204 -0.6922 -0.2693 -0.3045
19372TIP3    H179607   2.271   5.973  13.293 -2.0562  0.7603 -0.9219
19372TIP3    H279608   2.395   5.978  13.207 -1.2517  2.6387  0.2773
19373TIP3   OH279609   2.771   4.371  16.502 -0.0329  0.1142  0.4666
19373TIP3    H179610   2.795   4.398  16.590  1.9243 -0.7884  0.2618
19373TIP3    H279611   2.772   4.451  16.450 -0.3495  0.5166  1.0714
19374TIP3   OH279612   2.263   3.295  12.303  0.3654 -0.0645 -0.3088
19374TIP3    H179613   2.328   3.224  12.297  0.0567 -0.4238  0.4686
19374TIP3    H279614   2.260   3.316  12.396 -2.0735 -1.4292 -0.0125
19375TIP3   OH279615   4.572   3.640   4.259  0.1352  0.6268  0.3835
19375TIP3    H179616   4.485   3.679   4.247  1.1930  2.7225 -1.2041
19375TIP3    H279617   4.576   3.618   4.352 -2.1950  0.1121  0.4226
19376TIP3   OH279618   5.937   1.100   4.365  0.2286 -0.5291 -0.2231
19376TIP3    H179619   5.846   1.131   4.358 -0.3025 -0.5477  3.8700
19376TIP3    H279620   5.986   1.177   4.394  0.7470 -1.2745  0.9956
19377TIP3   OH279621   1.914   6.776  14.736  0.4150  0.2301  0.2373
19377TIP3    H179622   1.879   6.827  14.663  1.8608  0.7303 -0.1563
19377TIP3    H279623   1.875   6.816  14.814 -0.7643  0.0078 -0.2179
19378TIP3   OH279624   2.513   3.720  11.970 -0.4911 -0.1327 -0.2215
19378TIP3    H179625   2.574   3.758  11.907  3.1158 -0.7730  2.5519
19378TIP3    H279626   2.542   3.629  11.980 -2.0679 -0.5491  1.0659
19379TIP3   OH279627   3.048   5.331  16.062 -0.2038 -0.5670 -0.1113
19379TIP3    H179628   3.117   5.395  16.078  0.1182 -0.7994 -0.5782
19379TIP3    H279629   3.036   5.287  16.146 -0.5786  0.2464  0.2777
19380TIP3   OH279630   4.090   1.655   1.258 -0.4807 -0.0992 -0.3031
19380TIP3    H179631   4.180   1.622   1.255 -0.5377 -0.2516 -0.3746
19380TIP3    H279632   4.098   1.745   1.289 -0.0839  0.7353 -2.6377
19381TIP3   OH279633   4.575   0.099  15.356  0.5983  0.4979  0.1885
19381TIP3    H179634   4.521   0.109  15.435  0.7422 -3.1172  0.9234
19381TIP3    H279635   4.529   0.148  15.289 -2.3236 -0.4095  1.3746
19382TIP3   OH279636   6.706   2.818  13.149  0.0343  0.2768 -0.1298
19382TIP3    H179637   6.682   2.862  13.067 -0.8214  3.2529  1.5621
19382TIP3    H279638   6.768   2.750  13.123 -0.0177  1.2551 -3.1925
19383TIP3   OH279639   4.491   0.162  14.433 -0.3614  0.3330  0.2176
19383TIP3    H179640   4.559   0.230  14.428 -1.3640  1.4669  1.1791
19383TIP3    H279641   4.501   0.126  14.521 -0.4222 -0.1423  0.0322
19384TIP3   OH279642   5.358   2.102   0.074 -0.6400  0.5519  0.0992
19384TIP3    H179643   5.272   2.119   0.114 -1.6583  1.3356 -2.2252
19384TIP3    H279644   5.348   2.016   0.032  0.2031  0.0198  0.9433
19385TIP3   OH279645   6.296   0.063  16.206  1.0199  0.1157 -0.1842
19385TIP3    H179646   6.327  -0.013  16.255  1.5110 -0.0141 -0.6911
19385TIP3    H279647   6.235   0.107  16.266 -0.6789 -1.6444 -0.5357
19386TIP3   OH279648   4.092   1.262   3.582  0.7537  0.1352  0.4816
19386TIP3    H179649   4.044   1.234   3.659  0.9387  1.8840  1.2854
19386TIP3    H279650   4.057   1.209   3.511 -0.6820 -0.2773  1.4598
19387TIP3   OH279651   6.651   3.445  11.177 -0.1364 -0.3332 -0.0338
19387TIP3    H179652   6.650   3.408  11.266  0.8650  0.3984  0.2969
19387TIP3    H279653   6.707   3.385  11.127 -2.7190 -2.2134 -0.8813
19388TIP3   OH279654   4.703   5.355  11.897  0.1923 -0.0053  0.4634
19388TIP3    H179655   4.622   5.314  11.866  0.1140 -0.0745  0.7555
19388TIP3    H279656   4.726   5.418  11.828  0.1674 -0.3462  0.1378
19389TIP3   OH279657   1.842   6.120   2.716  0.2493 -0.4890  0.0919
19389TIP3    H179658   1.778   6.102   2.648 -0.3850  0.6435  0.3571
19389TIP3    H279659   1.824   6.056   2.785 -0.0688 -0.6912 -0.1821
19390TIP3   OH279660   1.354   5.253  15.311 -0.4804  0.5199  0.1474
19390TIP3    H179661   1.368   5.298  15.228 -0.3041  0.2478  0.0256
19390TIP3    H279662   1.441   5.248  15.350 -0.6973  1.4395  0.7691
19391TIP3   OH279663   4.774   6.339   3.240 -0.1252  0.1603 -0.2832
19391TIP3    H179664   4.850   6.317   3.293 -0.2213  0.2924 -0.0918
19391TIP3    H279665   4.699   6.311   3.292 -0.2174  0.2351 -0.3747
19392TIP3   OH279666   5.944   0.568   0.383 -0.3554  0.1981  0.4489
19392TIP3    H179667   5.987   0.573   0.468 -0.6034 -2.0105  0.7685
19392TIP3    H279668   5.890   0.489   0.388 -0.2876 -0.0536 -1.7832
19393TIP3   OH279669   1.587   5.454   4.774  0.3381  0.4214  0.3637
19393TIP3    H179670   1.680   5.447   4.794  0.3346  1.4560  0.7846
19393TIP3    H279671   1.560   5.364   4.755  1.2377 -0.0061  1.0242
19394TIP3   OH279672   6.210   2.462   0.204 -0.0755  0.2008 -0.4217
19394TIP3    H179673   6.125   2.419   0.211 -0.0572  0.0033 -1.2652
19394TIP3    H279674   6.264   2.421   0.271 -0.3477 -0.3940 -0.5669
19395TIP3   OH279675   1.340   1.311  14.650  0.0145  0.3346  0.3553
19395TIP3    H179676   1.435   1.315  14.638  0.1069  2.0475  1.2691
19395TIP3    H279677   1.322   1.219  14.671  1.2741 -0.2804 -1.0809
19396TIP3   OH279678   3.339   5.814  16.618 -0.1469 -0.5755 -0.4457
19396TIP3    H179679   3.303   5.804  16.706 -2.2111  1.4979 -0.9576
19396TIP3    H279680   3.430   5.840  16.632 -0.6248  0.3668  1.1063
19397TIP3   OH279681   0.992   0.354   5.354  0.1050 -0.2035 -0.4543
19397TIP3    H179682   0.934   0.293   5.400  0.2354  2.1085  3.1997
19397TIP3    H279683   1.048   0.390   5.423  2.2670  1.6087 -2.9608
19398TIP3   OH279684   6.242   5.283  11.297  0.5604 -0.1437 -0.1685
19398TIP3    H179685   6.316   5.331  11.259 -0.8128  2.0605 -0.2690
19398TIP3    H279686   6.189   5.258  11.222 -0.8002  1.8876  0.0265
19399TIP3   OH279687   4.290   1.816  11.910  0.5271  0.0840 -0.4336
19399TIP3    H179688   4.290   1.837  11.817  3.1717  0.1129 -0.5043
19399TIP3    H279689   4.226   1.745  11.919 -0.7295  0.9761 -2.0086
19400TIP3   OH279690   2.922   6.029   3.642 -0.0908  0.1842  0.4413
19400TIP3    H179691   2.920   6.010   3.548  2.3813  0.8107  0.1813
19400TIP3    H279692   3.013   6.011   3.668 -0.5251  0.7651  2.5622
19401TIP3   OH279693   2.249   4.229   5.321 -0.0900 -0.7292 -0.0326
19401TIP3    H179694   2.344   4.231   5.311 -0.0934  0.1858  0.0334
19401TIP3    H279695   2.228   4.136   5.330  0.9229 -0.8833  1.1432
19402TIP3   OH279696   5.561   4.008  10.540  0.2032 -0.6387 -0.2843
19402TIP3    H179697   5.491   3.946  10.560  0.7306 -0.8530  1.0437
19402TIP3    H279698   5.641   3.961  10.564  0.7267 -0.0351 -0.8234
19403TIP3   OH279699   4.186   6.693   2.949  0.4087  0.0309 -0.0825
19403TIP3    H179700   4.238   6.614   2.962  0.2747 -0.2482 -1.1162
19403TIP3    H279701   4.250   6.760   2.924  0.4369  0.0487  0.0390
19404TIP3   OH279702   4.780   0.613  16.511 -0.0019 -0.1844 -0.1793
19404TIP3    H179703   4.757   0.698  16.548 -0.7017 -0.5464  0.2441
19404TIP3    H279704   4.796   0.630  16.419  1.1880  0.6319  0.1497
19405TIP3   OH279705   3.898   6.179   2.271 -0.5557  0.3785  0.4438
19405TIP3    H179706   3.925   6.235   2.198  1.9341 -0.8147  0.3323
19405TIP3    H279707   3.803   6.174   2.264 -0.7748  3.4805 -0.3087
19406TIP3   OH279708   2.964   3.007   4.132 -0.6390 -0.0252  0.2931
19406TIP3    H179709   2.907   2.932   4.112 -0.4022 -0.0680 -0.2174
19406TIP3    H279710   2.905   3.082   4.131 -0.6443 -0.0303 -0.5282
19407TIP3   OH279711   4.568   1.422   4.803 -0.1179  0.0792 -0.3638
19407TIP3    H179712   4.480   1.445   4.775 -0.9109 -0.7767  1.3103
19407TIP3    H279713   4.625   1.459   4.735 -1.7458  0.5835 -1.5110
19408TIP3   OH279714   1.163   2.224   3.935 -0.1290  0.3266  0.4406
19408TIP3    H179715   1.157   2.244   4.028 -0.6935  0.4384  0.3864
19408TIP3    H279716   1.233   2.280   3.902  0.8886 -0.5798  1.0253
19409TIP3   OH279717   0.992   1.259   4.763 -0.0668 -0.7227 -0.2958
19409TIP3    H179718   1.063   1.230   4.706  1.8712  0.7127  1.2194
19409TIP3    H279719   0.972   1.347   4.733  0.9536  0.0385  1.1126
19410TIP3   OH279720   5.276   0.964  12.031 -0.1025 -0.1161 -0.0976
19410TIP3    H179721   5.339   0.990  12.098  0.7880  0.6183 -1.1863
19410TIP3    H279722   5.192   0.997  12.062  0.5519  1.6338 -0.0897
19411TIP3   OH279723   2.581   3.547  16.842 -0.8916 -0.2837 -0.0726
19411TIP3    H179724   2.493   3.516  16.819 -0.6475 -1.1750  0.1317
19411TIP3    H279725   2.566   3.623  16.898 -1.5556 -0.8006  0.4687
19412TIP3   OH279726   0.597   2.135  12.912 -0.5230  0.2509 -0.1882
19412TIP3    H179727   0.661   2.112  12.844  0.2059  0.7246  0.3212
19412TIP3    H279728   0.593   2.231  12.909  0.4157  0.3648  1.2168
19413TIP3   OH279729   5.224   6.786  10.918  0.1594  0.1296 -0.1359
19413TIP3    H179730   5.194   6.767  10.829  1.5563 -1.9052 -0.2326
19413TIP3    H279731   5.315   6.813  10.907  0.2469  0.1769  0.6537
19414TIP3   OH279732   0.257   0.244  14.008 -0.2185  0.2388 -0.1361
19414TIP3    H179733   0.265   0.154  13.976  1.4761 -0.1333  1.1736
19414TIP3    H279734   0.324   0.293  13.959 -0.4486  0.5617 -0.1326
19415TIP3   OH279735   6.738   5.641  14.128  0.4806  0.2201 -0.3386
19415TIP3    H179736   6.659   5.587  14.125 -0.7394  1.7807  1.1482
19415TIP3    H279737   6.708   5.724  14.167  2.1930  2.0583 -2.6296
19416TIP3   OH279738   2.504   3.377  10.589 -0.9837  0.0941 -0.0297
19416TIP3    H179739   2.576   3.336  10.541 -1.1364 -0.0407 -0.1463
19416TIP3    H279740   2.455   3.303  10.625 -1.3551  0.1676 -0.3768
19417TIP3   OH279741   6.212   1.447  12.098 -0.2863  0.3449  0.1121
19417TIP3    H179742   6.238   1.401  12.019 -1.1194  0.4007 -0.1994
19417TIP3    H279743   6.291   1.448  12.153  0.0289 -0.5096 -0.3230
19418TIP3   OH279744   6.334   5.008  15.251 -0.2872 -0.2415 -0.2412
19418TIP3    H179745   6.327   5.068  15.325 -0.3486  0.4349 -0.7809
19418TIP3    H279746   6.366   4.926  15.289 -2.9080 -0.8062  0.9656
19419TIP3   OH279747   3.488   1.240   4.986  0.3044 -0.4129 -0.5418
19419TIP3    H179748   3.471   1.242   5.080  1.6354 -1.4398 -0.2374
19419TIP3    H279749   3.420   1.183   4.950  1.3684 -2.2906  0.2453
19420TIP3   OH279750   4.761   4.706  11.383 -0.5626  0.5259 -0.1135
19420TIP3    H179751   4.687   4.661  11.423  1.2922 -0.3518  2.6473
19420TIP3    H279752   4.806   4.747  11.457  1.3014  1.6690 -1.7866
19421TIP3   OH279753   3.543   0.673  12.025 -0.2111  0.0693  0.1008
19421TIP3    H179754   3.610   0.740  12.039 -0.2723 -0.0829  1.1811
19421TIP3    H279755   3.460   0.719  12.039 -0.3184  0.1102 -0.6256
19422TIP3   OH279756   5.176   5.594  16.015 -0.0986 -0.3558 -0.7218
19422TIP3    H179757   5.146   5.519  16.066 -0.2334 -0.3735 -0.8251
19422TIP3    H279758   5.173   5.668  16.075 -1.6895 -0.0823 -1.1120
19423TIP3   OH279759   2.085   3.456   1.332 -0.8967 -0.0496  0.6943
19423TIP3    H179760   2.098   3.547   1.357 -1.7808 -0.0895  1.3584
19423TIP3    H279761   2.007   3.429   1.381 -1.0470 -0.9565 -0.0264
19424TIP3   OH279762   1.697   5.340   5.082  0.0394  0.0005  0.3480
19424TIP3    H179763   1.761   5.358   5.014  0.9592  0.5893  1.3480
19424TIP3    H279764   1.735   5.268   5.132 -1.2749 -1.3999 -0.5509
19425TIP3   OH279765   5.096   5.040   6.452  0.0014 -0.1667  0.0882
19425TIP3    H179766   5.074   4.972   6.516 -0.7977  0.4018  0.4349
19425TIP3    H279767   5.055   5.011   6.371 -0.4131 -0.0532  0.2570
19426TIP3   OH279768   5.660   0.842  15.323  0.2957 -0.7429  0.0670
19426TIP3    H179769   5.616   0.809  15.402  1.7634 -1.6406  0.5512
19426TIP3    H279770   5.614   0.799  15.251 -0.0169 -1.1859  0.5189
19427TIP3   OH279771   4.514   2.069  16.554  0.2955 -0.0967 -0.0961
19427TIP3    H179772   4.572   2.020  16.496 -1.7046 -3.1373  0.2574
19427TIP3    H279773   4.430   2.024  16.548 -1.1092  1.9943  2.0455
19428TIP3   OH279774   0.844   4.234  11.768 -0.1532 -0.7119  0.2121
19428TIP3    H179775   0.780   4.209  11.834  0.9180 -1.2913  1.0730
19428TIP3    H279776   0.915   4.171  11.778  0.1080 -0.7221 -1.4052
19429TIP3   OH279777   1.215   1.598   3.533 -0.6703  0.0617 -0.2283
19429TIP3    H179778   1.274   1.525   3.555  0.0458  0.4200 -0.9292
19429TIP3    H279779   1.250   1.672   3.583 -0.6112  0.2385 -0.5318
19430TIP3   OH279780   6.170   2.932   1.215  0.3426  0.1499  0.0213
19430TIP3    H179781   6.086   2.922   1.260  0.5897 -2.1349  0.0867
19430TIP3    H279782   6.232   2.954   1.284 -0.2043  2.1645 -0.0706
19431TIP3   OH279783   6.464   2.076   2.749  0.5103  0.0761 -0.5257
19431TIP3    H179784   6.425   2.026   2.677 -1.6063  0.7717  0.0781
19431TIP3    H279785   6.520   2.012   2.794  0.7794 -0.7379 -1.9417
19432TIP3   OH279786   0.327   0.618   5.698  0.0989  0.0130 -0.3777
19432TIP3    H179787   0.420   0.634   5.709 -0.0463  0.1570  0.7870
19432TIP3    H279788   0.288   0.642   5.782 -1.0109  0.1068 -0.8948
19433TIP3   OH279789   0.225   4.515  14.323  0.1927  0.0386 -0.0733
19433TIP3    H179790   0.233   4.420  14.315 -0.7487 -0.1969  1.4547
19433TIP3    H279791   0.276   4.549  14.249  1.6101 -1.6109  0.0736
19434TIP3   OH279792   1.753   0.015  15.790 -0.5646 -0.1362 -0.4096
19434TIP3    H179793   1.712   0.073  15.726  1.4616  0.4188 -1.3079
19434TIP3    H279794   1.846   0.040  15.788 -0.3530 -0.3847  2.4722
19435TIP3   OH279795   3.725   2.698  14.798 -0.3260 -0.2448  0.4020
19435TIP3    H179796   3.797   2.675  14.857 -0.3582  0.6551  0.8112
19435TIP3    H279797   3.749   2.660  14.714 -0.9088 -2.7004  1.2804
19436TIP3   OH279798   5.083   3.207   5.134 -0.0176  0.0676  0.0722
19436TIP3    H179799   4.988   3.205   5.145 -0.1399  1.5113 -0.4146
19436TIP3    H279800   5.118   3.185   5.221 -0.7609 -1.3061  0.0534
19437TIP3   OH279801   0.432   6.708  13.103  0.1334  0.0723 -0.3843
19437TIP3    H179802   0.468   6.795  13.117 -0.8217  0.4308 -0.0765
19437TIP3    H279803   0.472   6.677  13.022 -0.0428  1.0779 -0.8682
19438TIP3   OH279804   3.306   4.120   0.422  0.2013  0.4778 -0.1128
19438TIP3    H179805   3.239   4.187   0.435 -1.2865 -0.9279 -0.2763
19438TIP3    H279806   3.263   4.053   0.369  2.0214 -0.0727 -0.9756
19439TIP3   OH279807   3.256   3.897  13.386  0.0179  0.5400 -0.2396
19439TIP3    H179808   3.266   3.886  13.481 -2.1831 -1.2415 -0.1117
19439TIP3    H279809   3.210   3.818  13.358 -1.5597  2.1020 -2.4003
19440TIP3   OH279810   2.498   3.163   2.840 -0.2852 -0.3868  0.1889
19440TIP3    H179811   2.471   3.198   2.755 -1.5501  0.3076  0.8442
19440TIP3    H279812   2.448   3.082   2.850 -1.7605  0.5793  1.1285
19441TIP3   OH279813   3.263   4.721   4.852 -0.0542 -0.7355 -0.1176
19441TIP3    H179814   3.209   4.730   4.773  0.5042  1.3803 -0.3117
19441TIP3    H279815   3.218   4.774   4.918  0.5421 -0.8656  0.4047
19442TIP3   OH279816   5.698   3.622  15.231 -0.1594  0.2297 -0.3949
19442TIP3    H179817   5.603   3.624  15.216 -0.2418  0.0903  0.0817
19442TIP3    H279818   5.730   3.704  15.194 -0.7448  1.2096  1.1719
19443TIP3   OH279819   3.678   0.753  13.797  0.4316  0.7429  0.0476
19443TIP3    H179820   3.766   0.720  13.779  0.1401  0.0909 -0.2046
19443TIP3    H279821   3.692   0.827  13.855  1.0622 -0.4056  1.4244
19444TIP3   OH279822   0.771   0.283  12.321  0.0271  0.0917  0.3989
19444TIP3    H179823   0.676   0.292  12.327  0.1108  0.7375  0.7357
19444TIP3    H279824   0.788   0.193  12.348 -0.4929 -0.0592  0.2420
19445TIP3   OH279825   3.639   4.900   5.962  0.0159  0.0122 -0.1140
19445TIP3    H179826   3.689   4.917   6.042 -1.8067 -2.9674  1.8629
19445TIP3    H279827   3.693   4.839   5.912  0.0626 -0.1133  0.0878
19446TIP3   OH279828   2.109   4.893   3.942  0.0292 -0.2930 -0.6622
19446TIP3    H179829   2.030   4.943   3.962  0.6031  1.0233 -1.5468
19446TIP3    H279830   2.169   4.912   4.015  0.7398  1.4661 -1.6396
19447TIP3   OH279831   2.874   1.835  14.749  0.7957  0.4989  0.2271
19447TIP3    H179832   2.816   1.845  14.673 -0.8272 -0.3316  1.3018
19447TIP3    H279833   2.949   1.892  14.729  0.6095  0.0383 -2.1459
19448TIP3   OH279834   3.817   4.214   4.397  0.2870  0.0791  0.3385
19448TIP3    H179835   3.794   4.283   4.460 -1.3475  2.1159 -2.3108
19448TIP3    H279836   3.912   4.220   4.389  0.2506  1.5430  0.6951
19449TIP3   OH279837   4.740   4.336   1.362  0.3539  0.7616 -0.1380
19449TIP3    H179838   4.816   4.362   1.414  0.8858 -0.9386  0.0070
19449TIP3    H279839   4.674   4.311   1.427  0.0910  1.1000 -0.2731
19450TIP3   OH279840   6.053   4.416  13.191  0.4436  0.5964 -0.6428
19450TIP3    H179841   6.085   4.347  13.248 -0.7770 -0.4188 -1.1316
19450TIP3    H279842   5.967   4.385  13.161  0.3778  1.7886 -1.8082
19451TIP3   OH279843   5.815   0.153   3.509 -0.3807  0.2111  0.1087
19451TIP3    H179844   5.828   0.243   3.478  0.5143 -0.3803 -1.3272
19451TIP3    H279845   5.769   0.163   3.592 -0.9786  1.9681 -0.3840
19452TIP3   OH279846   5.106   6.217   5.246 -0.0542 -0.0378 -0.3043
19452TIP3    H179847   5.147   6.171   5.318  0.1074 -0.8232 -0.8906
19452TIP3    H279848   5.015   6.230   5.275  0.4497  1.2811  0.7895
19453TIP3   OH279849   1.525   2.153   1.025 -0.0794  0.4944  0.1712
19453TIP3    H179850   1.610   2.115   1.003 -0.8135 -0.6827 -0.7657
19453TIP3    H279851   1.516   2.137   1.119 -0.4441 -1.9707 -0.2139
19454TIP3   OH279852   4.501   1.646  16.502 -0.4602 -0.2680 -0.4358
19454TIP3    H179853   4.495   1.610  16.414  0.5707  1.2154 -1.1553
19454TIP3    H279854   4.431   1.603  16.551 -1.2676 -0.8669 -2.0608
19455TIP3   OH279855   1.580   6.276   6.653 -0.1975  0.2852 -0.2980
19455TIP3    H179856   1.515   6.265   6.583 -1.3326 -0.5018  0.8320
19455TIP3    H279857   1.584   6.371   6.666 -0.1765  0.4253 -1.2314
19456TIP3   OH279858   4.488   3.083  14.823  0.1294  0.1086  0.0395
19456TIP3    H179859   4.435   3.147  14.774  1.1549  2.1521  1.4864
19456TIP3    H279860   4.548   3.136  14.875  2.8731 -2.0944 -0.6513
19457TIP3   OH279861   4.434   4.802  13.278  0.4216 -0.2799 -0.0293
19457TIP3    H179862   4.363   4.763  13.329 -1.0308 -1.2503 -2.5992
19457TIP3    H279863   4.417   4.896  13.282 -1.2982 -0.5131 -0.9000
19458TIP3   OH279864   5.762   2.133  16.136  0.4357  0.0743  0.1820
19458TIP3    H179865   5.805   2.054  16.168 -0.4333  0.4910  2.6325
19458TIP3    H279866   5.708   2.104  16.063 -0.2863 -1.7514  1.3728
19459TIP3   OH279867   6.524   0.557  12.303  0.2551 -1.0555 -0.1008
19459TIP3    H179868   6.482   0.638  12.273  0.2852 -0.8367  0.4311
19459TIP3    H279869   6.463   0.520  12.367  0.5191 -1.1302  0.1115
19460TIP3   OH279870   3.120   5.552   2.425 -0.1789  0.5075  0.6427
19460TIP3    H179871   3.083   5.612   2.490  3.0994  0.7760  2.4660
19460TIP3    H279872   3.185   5.604   2.379 -0.2220 -0.5725 -0.7173
19461TIP3   OH279873   5.950   4.365  12.748  0.0364  0.0014  0.1688
19461TIP3    H179874   5.887   4.375  12.820 -0.7872 -1.0514 -0.3774
19461TIP3    H279875   5.984   4.454  12.734 -1.0678  0.5373  0.7183
19462TIP3   OH279876   2.141   5.329   4.038 -0.3936  0.3696  0.4057
19462TIP3    H179877   2.051   5.351   4.014  0.4312  1.1780 -2.3023
19462TIP3    H279878   2.176   5.284   3.961  1.6986  0.6072  1.1453
19463TIP3   OH279879   3.829   3.305   1.076  0.3193 -0.1313  0.0542
19463TIP3    H179880   3.826   3.301   0.980 -1.2231  0.2082  0.0614
19463TIP3    H279881   3.748   3.262   1.104  0.5116  0.2117  1.1798
19464TIP3   OH279882   0.193   4.353   5.318  0.2480 -0.2416 -0.8618
19464TIP3    H179883   0.245   4.433   5.323  1.3742 -0.8687 -2.0765
19464TIP3    H279884   0.103   4.384   5.310 -0.0907  0.9144  3.9983
19465TIP3   OH279885   1.776   3.366   1.115 -0.2807  0.2399 -0.6726
19465TIP3    H179886   1.826   3.414   1.049  0.2125  1.1571  0.3400
19465TIP3    H279887   1.839   3.305   1.153 -0.4766 -0.0523 -0.8129
19466TIP3   OH279888   2.424   1.001  12.599  0.5230  0.2345  0.1050
19466TIP3    H179889   2.337   1.024  12.566  1.0171  1.1024 -0.6713
19466TIP3    H279890   2.409   0.932  12.663 -0.7790  0.6918  0.3219
19467TIP3   OH279891   3.209   3.714   2.735  0.0682 -0.1291 -0.2717
19467TIP3    H179892   3.259   3.792   2.713 -0.1631 -0.0390 -0.4868
19467TIP3    H279893   3.160   3.694   2.655  0.4705 -0.7569 -0.3637
19468TIP3   OH279894   6.265   5.586  14.112  0.2674 -0.4495  0.0551
19468TIP3    H179895   6.187   5.640  14.122  0.7341  0.1859  0.3595
19468TIP3    H279896   6.265   5.558  14.020  1.1324  1.8382 -0.7045
19469TIP3   OH279897   4.344   4.147   0.935  0.3912 -0.2040  0.1099
19469TIP3    H179898   4.381   4.062   0.910  1.6618  0.2804  0.2589
19469TIP3    H279899   4.276   4.126   0.999 -0.1702 -1.1839 -0.7731
19470TIP3   OH279900   4.712   1.209   6.319  0.0622  0.1777  0.0582
19470TIP3    H179901   4.638   1.269   6.326  0.1338  0.1974  0.7689
19470TIP3    H279902   4.677   1.124   6.346  0.3414  0.2314  0.6167
19471TIP3   OH279903   2.389   6.404  11.689  0.3384 -0.2539  0.4398
19471TIP3    H179904   2.304   6.397  11.647  0.3822 -0.3861  0.3716
19471TIP3    H279905   2.451   6.422  11.618  0.3195  0.1741  0.5346
19472TIP3   OH279906   0.025   1.844  15.418  0.2873  0.1390 -0.3539
19472TIP3    H179907   0.070   1.870  15.498  0.1720 -0.7705  0.0172
19472TIP3    H279908   0.091   1.855  15.349  0.4092  0.8553 -0.1288
19473TIP3   OH279909   3.982   1.616  16.264 -0.1801  0.0140  0.0076
19473TIP3    H179910   3.905   1.562  16.246 -0.6566  0.5778  0.3197
19473TIP3    H279911   4.026   1.625  16.179 -1.3465  1.0478 -0.5039
19474TIP3   OH279912   1.188   2.281  16.815  0.1191 -0.3413  0.0145
19474TIP3    H179913   1.191   2.215  16.746 -0.2711 -0.1522 -0.1844
19474TIP3    H279914   1.258   2.342  16.792 -1.7001  1.2366 -1.7723
19475TIP3   OH279915   5.774   2.353  12.775 -0.1629  0.3194  0.0626
19475TIP3    H179916   5.804   2.324  12.689  2.4461  1.2331  0.5904
19475TIP3    H279917   5.770   2.273  12.827  3.5017  0.2868  0.5118
19476TIP3   OH279918   3.987   5.193   4.373  0.2821  0.2062 -0.0082
19476TIP3    H179919   4.064   5.248   4.357  0.2474  0.9287  2.0405
19476TIP3    H279920   3.922   5.225   4.310  1.1631  0.5968 -0.7473
19477TIP3   OH279921   2.493   5.078  15.506 -0.0499 -0.0399 -0.0117
19477TIP3    H179922   2.403   5.047  15.501 -0.4196  0.9140  0.5426
19477TIP3    H279923   2.494   5.141  15.578  1.2659 -0.6907  0.5707
19478TIP3   OH279924   2.026   1.080   3.283 -0.4005  0.6461 -0.2039
19478TIP3    H179925   1.997   1.127   3.205  0.2450 -0.2707 -1.0163
19478TIP3    H279926   2.084   1.011   3.250 -1.4130 -0.8090  0.9233
19479TIP3   OH279927   4.681   0.190  11.638 -0.5418 -0.0551 -0.7475
19479TIP3    H179928   4.662   0.284  11.638 -1.5113 -0.1606  1.7236
19479TIP3    H279929   4.713   0.171  11.550  2.1989  3.0665 -0.6208
19480TIP3   OH279930   3.206   2.942  10.378  0.0797 -0.0323  0.3227
19480TIP3    H179931   3.260   2.905  10.448  0.5315 -0.7386 -0.3719
19480TIP3    H279932   3.227   2.887  10.301  1.3660  2.1240 -0.9690
19481TIP3   OH279933   0.877   6.452  13.461 -0.0195  0.3811  0.1649
19481TIP3    H179934   0.971   6.449  13.477  0.4305  1.9393 -1.7756
19481TIP3    H279935   0.851   6.542  13.485 -0.8159  0.2533 -0.1797
19482TIP3   OH279936   5.927   1.361   6.446 -0.1594  0.3651  0.2013
19482TIP3    H179937   5.939   1.456   6.444 -0.8519  0.4477 -0.3861
19482TIP3    H279938   6.016   1.326   6.434  0.3620  0.8984  2.1578
19483TIP3   OH279939   0.168   0.642   1.279  0.0487 -0.3945 -0.1388
19483TIP3    H179940   0.119   0.645   1.361 -1.1859  0.3492 -0.8790
19483TIP3    H279941   0.250   0.688   1.298  0.5663 -1.7678  1.1426
19484TIP3   OH279942   0.138   3.045   4.382 -0.6476  0.4362  0.1508
19484TIP3    H179943   0.064   3.044   4.321 -1.4928 -0.3510  1.1620
19484TIP3    H279944   0.098   3.038   4.469  0.6582 -1.1519  0.6731
19485TIP3   OH279945   0.698   1.033  14.625 -0.6875  0.0020  0.0051
19485TIP3    H179946   0.699   1.085  14.544  0.0906  0.0114  0.0122
19485TIP3    H279947   0.639   0.960  14.605 -1.2564  0.5137 -0.2359
19486TIP3   OH279948   2.002   6.616   0.075  0.6721  0.1141 -0.1602
19486TIP3    H179949   2.045   6.678   0.017 -0.8557 -0.1289 -1.6487
19486TIP3    H279950   2.060   6.608   0.150  1.1562  2.9284 -0.1430
19487TIP3   OH279951   5.598   3.561  11.103  0.2444 -0.4140  0.2743
19487TIP3    H179952   5.607   3.518  11.188 -2.0280 -0.4973  0.5291
19487TIP3    H279953   5.505   3.554  11.082  0.8084 -0.8267 -2.4750
19488TIP3   OH279954   0.266   1.004   1.453  0.9343  0.4146 -0.2068
19488TIP3    H179955   0.227   1.067   1.393  0.2559 -0.4034 -0.6370
19488TIP3    H279956   0.283   0.926   1.400  1.9427  0.2851  0.2741
19489TIP3   OH279957   4.891   6.111   0.678 -0.4011  0.7138 -0.1817
19489TIP3    H179958   4.931   6.178   0.623 -0.0164 -1.0300 -2.1840
19489TIP3    H279959   4.960   6.087   0.741  0.0597  0.9890 -0.5736
19490TIP3   OH279960   1.933   3.482   3.585 -0.0980  0.3135  0.1849
19490TIP3    H179961   1.964   3.445   3.502  0.7633  0.5792  0.3695
19490TIP3    H279962   1.838   3.486   3.576  0.0535  1.3987 -1.2387
19491TIP3   OH279963   5.546   0.646  12.620  0.3672  0.2369  0.3379
19491TIP3    H179964   5.620   0.703  12.599 -0.9470  1.7929 -0.3783
19491TIP3    H279965   5.502   0.690  12.693 -0.6801  0.1660 -0.2355
19492TIP3   OH279966   3.568   4.210   6.341  0.2545  0.5457  0.1065
19492TIP3    H179967   3.660   4.188   6.325  0.6130  3.3950 -2.5230
19492TIP3    H279968   3.571   4.294   6.386 -1.0608  1.2077 -0.9918
19493TIP3   OH279969   2.514   4.275   2.904 -0.3043 -0.8368  0.3299
19493TIP3    H179970   2.537   4.348   2.961  1.1105 -0.6727 -0.4102
19493TIP3    H279971   2.543   4.197   2.952  0.0724 -0.7662  0.2140
19494TIP3   OH279972   4.105   5.198  13.228  0.2274  0.1063  0.0610
19494TIP3    H179973   4.030   5.170  13.175  0.1383  2.4404 -1.1761
19494TIP3    H279974   4.073   5.195  13.318 -0.7495 -0.6296 -0.2847
19495TIP3   OH279975   3.507   6.054  16.441 -0.3653  0.3368  0.2238
19495TIP3    H179976   3.453   6.015  16.373  1.4432 -0.1294 -1.0051
19495TIP3    H279977   3.534   5.981  16.496  0.1136  0.3692  0.0322
19496TIP3   OH279978   3.105   4.397  17.121  0.1619 -0.2978  0.0246
19496TIP3    H179979   3.052   4.386  17.043 -0.9898  1.5268  0.4885
19496TIP3    H279980   3.073   4.330  17.182 -0.0355 -0.6695 -0.4818
19497TIP3   OH279981   5.057   3.289  14.930 -0.6601  0.2774  0.0365
19497TIP3    H179982   5.008   3.269  15.010  1.4148 -0.7198  1.1420
19497TIP3    H279983   5.087   3.204  14.899  1.8922  0.9406  0.4813
19498TIP3   OH279984   6.457   5.604   3.354 -0.0327  0.0229 -0.5114
19498TIP3    H179985   6.406   5.550   3.293 -1.4041  0.4838  0.1857
19498TIP3    H279986   6.396   5.672   3.383  0.5054 -0.2836  1.5054
19499TIP3   OH279987   3.082   0.178  13.644 -0.4160 -0.4089 -0.6841
19499TIP3    H179988   3.008   0.223  13.604 -0.1544 -0.6289 -1.4256
19499TIP3    H279989   3.141   0.248  13.672  0.5850 -0.2565 -2.9498
19500TIP3   OH279990   3.377   1.252   0.464  0.1610 -0.1831  0.3051
19500TIP3    H179991   3.454   1.247   0.521  0.2501 -0.2318  0.1824
19500TIP3    H279992   3.413   1.245   0.376  0.1276  0.8967  0.1889
19501TIP3   OH279993   6.567   0.857   4.561 -0.0682  0.1088 -0.1921
19501TIP3    H179994   6.512   0.935   4.563  0.1042  0.2448 -0.6774
19501TIP3    H279995   6.504   0.784   4.562 -0.2234  0.2519  0.3540
19502TIP3   OH279996   5.800   5.612   3.022  0.2493  0.4803 -0.0536
19502TIP3    H179997   5.747   5.583   2.948  0.0553 -1.2561  0.7202
19502TIP3    H279998   5.890   5.594   2.995  0.1776 -0.1679  0.1267
19503TIP3   OH279999   1.525   1.946   0.745 -0.0822  0.2191  0.5096
19503TIP3    H180000   1.522   2.020   0.684 -1.6130 -0.7929 -0.7309
19503TIP3    H280001   1.610   1.906   0.730  0.0194  0.6567 -0.1379
19504TIP3   OH280002   3.810   5.754   5.192  0.8204 -0.4957 -0.0971
19504TIP3    H180003   3.888   5.763   5.246  0.7514  0.4516 -0.1336
19504TIP3    H280004   3.840   5.766   5.103  0.5844  0.2924 -0.0814
19505TIP3   OH280005   5.138   5.930  14.572  0.8410 -0.2462 -0.5080
19505TIP3    H180006   5.116   6.022  14.557 -0.2359 -0.7543 -2.3521
19505TIP3    H280007   5.151   5.923  14.666 -0.6777  1.4610 -0.1233
19506TIP3   OH280008   0.205   2.645  12.345 -0.9298  0.0403  0.4183
19506TIP3    H180009   0.213   2.549  12.343 -2.1980 -0.1265  1.8780
19506TIP3    H280010   0.295   2.676  12.336 -0.3679 -1.3228  1.0192
19507TIP3   OH280011   3.384   4.225   2.500 -0.2022 -0.2911  0.3433
19507TIP3    H180012   3.379   4.218   2.595  1.3913  0.6691  0.5353
19507TIP3    H280013   3.478   4.223   2.481 -0.3989  1.3641 -1.0424
19508TIP3   OH280014   1.136   6.076   5.859 -0.2135 -0.0118  0.3704
19508TIP3    H180015   1.126   5.981   5.870  0.1251 -0.1331 -0.2998
19508TIP3    H280016   1.188   6.085   5.779 -0.8385  0.7540  0.0409
19509TIP3   OH280017   4.542   3.190  15.430  0.6747 -0.3892 -0.1135
19509TIP3    H180018   4.539   3.134  15.508 -0.2606 -0.0878  0.0871
19509TIP3    H280019   4.525   3.278  15.463 -2.5816 -0.5941 -0.9113
19510TIP3   OH280020   2.470   5.294  15.737  0.7255  0.3542 -0.1738
19510TIP3    H180021   2.540   5.259  15.793 -0.4968 -0.9424  0.5867
19510TIP3    H280022   2.450   5.379  15.774  1.8305  0.7188 -0.3624
19511TIP3   OH280023   4.187   5.582   1.393  0.0373  0.2573  0.3000
19511TIP3    H180024   4.130   5.505   1.392 -0.6767  0.7758 -1.1284
19511TIP3    H280025   4.128   5.656   1.395  0.6981  0.7974  0.2234
19512TIP3   OH280026   4.223   6.030  16.489 -0.1649  0.3596  0.0847
19512TIP3    H180027   4.157   5.980  16.537  0.2464 -1.5931 -1.2783
19512TIP3    H280028   4.175   6.106  16.455 -1.5073 -0.5387 -0.1016
19513TIP3   OH280029   2.460   0.061   6.588  0.5442 -0.0226 -0.3431
19513TIP3    H180030   2.415   0.143   6.566 -0.0946  0.0645  1.1861
19513TIP3    H280031   2.552   0.079   6.568  0.3099  0.8268 -0.7035
19514TIP3   OH280032   3.535   5.606  17.023  0.5107 -0.4239 -0.2160
19514TIP3    H180033   3.462   5.580  17.080 -0.6418  0.7321 -1.1106
19514TIP3    H280034   3.520   5.698  17.005  0.8502 -0.7245 -2.3411
19515TIP3   OH280035   0.997   4.104   5.645  0.2183  0.1744  0.5264
19515TIP3    H180036   0.962   4.015   5.649  1.5014 -0.3572  0.6689
19515TIP3    H280037   0.984   4.139   5.733  0.3523 -0.1402  0.6745
19516TIP3   OH280038   3.264   2.866  15.539 -0.0628  0.1167  0.3103
19516TIP3    H180039   3.179   2.869  15.495 -0.6525 -2.1112  1.1427
19516TIP3    H280040   3.258   2.791  15.599  2.1650  0.4591  1.0839
19517TIP3   OH280041   2.654   4.095   3.039 -0.1405 -0.1120 -0.0875
19517TIP3    H180042   2.634   4.011   2.996 -0.6146 -0.5383  0.9123
19517TIP3    H280043   2.743   4.116   3.012  0.5371 -1.6881  0.7605
19518TIP3   OH280044   1.941   6.241   1.955  0.4354  0.3636  0.2814
19518TIP3    H180045   1.879   6.168   1.965 -0.6237  0.8318 -2.0944
19518TIP3    H280046   1.890   6.319   1.977 -0.2128  0.8431 -2.5920
19519TIP3   OH280047   6.679   2.662   5.805 -0.1456  0.2505 -0.6130
19519TIP3    H180048   6.584   2.662   5.795 -0.1238  1.1423 -0.9018
19519TIP3    H280049   6.695   2.626   5.892 -0.8250  1.4682  0.0379
19520TIP3   OH280050   3.305   0.191   3.831  0.3348  0.0486  0.0786
19520TIP3    H180051   3.369   0.136   3.877  2.2275  3.2365  1.6082
19520TIP3    H280052   3.243   0.218   3.899  0.2639  0.8869 -0.3065
19521TIP3   OH280053   3.556   2.902  14.052  0.5958  0.3223  0.0414
19521TIP3    H180054   3.603   2.962  14.110  0.3329  0.0475  0.5394
19521TIP3    H280055   3.589   2.815  14.076  0.6607  0.2275 -0.3870
19522TIP3   OH280056   5.563   2.066   6.537 -0.2123  0.3506 -0.1470
19522TIP3    H180057   5.564   2.032   6.626 -0.9114 -0.2344 -0.3478
19522TIP3    H280058   5.492   2.130   6.536  0.1031  0.7029 -0.1646
19523TIP3   OH280059   1.656   5.875   4.864 -0.1056  0.2970 -0.1273
19523TIP3    H180060   1.689   5.910   4.947  0.9009  2.1911 -1.2578
19523TIP3    H280061   1.733   5.838   4.821 -0.7909 -1.5105  0.1338
19524TIP3   OH280062   3.276   2.122   0.875  0.0146 -0.4175 -0.2014
19524TIP3    H180063   3.240   2.146   0.790 -0.1560 -1.8966 -0.5751
19524TIP3    H280064   3.324   2.040   0.859 -0.6341 -1.1278  1.2462
19525TIP3   OH280065   1.069   2.838   1.546 -0.6205  0.3199 -0.2543
19525TIP3    H180066   1.035   2.844   1.457 -1.4930 -3.6720 -0.3768
19525TIP3    H280067   1.157   2.877   1.541 -0.6646  0.2566 -2.8460
19526TIP3   OH280068   0.027   1.728   2.776 -0.1118  0.2460 -0.1453
19526TIP3    H180069   0.071   1.778   2.845  1.0781 -0.3559 -0.4311
19526TIP3    H280070   0.078   1.646   2.770 -0.7066 -0.0634 -1.1570
19527TIP3   OH280071   1.633   3.525  12.870 -0.2757  0.0622 -0.5212
19527TIP3    H180072   1.575   3.465  12.916 -2.2080  0.5486 -2.1846
19527TIP3    H280073   1.661   3.587  12.937 -0.9716 -0.6920  0.5007
19528TIP3   OH280074   1.836   1.107   5.391 -0.1199 -0.0312 -0.5048
19528TIP3    H180075   1.764   1.084   5.332 -0.1274  0.7849 -0.8297
19528TIP3    H280076   1.896   1.033   5.387 -0.3114 -0.1539 -1.2410
19529TIP3   OH280077   3.730   1.497   4.276  0.7551  0.7315  0.4477
19529TIP3    H180078   3.710   1.529   4.364  0.6481  2.4519 -0.1686
19529TIP3    H280079   3.671   1.546   4.219  0.5086 -0.6742 -0.5639
19530TIP3   OH280080   6.821   2.715   2.756 -0.1001 -0.3296  0.0134
19530TIP3    H180081   6.830   2.808   2.775 -3.5793  0.3426 -0.8737
19530TIP3    H280082   6.870   2.702   2.675  0.3432  0.7218  0.0950
19531TIP3   OH280083   6.676   1.315   1.123  0.4908  0.1727  0.2181
19531TIP3    H180084   6.694   1.266   1.043 -0.4083 -0.0253  0.1204
19531TIP3    H280085   6.757   1.310   1.173  0.4876 -1.2733  0.1320
19532TIP3   OH280086   4.202   5.207   4.037 -0.1926  0.0803 -0.2655
19532TIP3    H180087   4.114   5.238   4.014 -0.5189 -1.3454 -1.0516
19532TIP3    H280088   4.259   5.244   3.970 -0.6140 -1.1529 -1.3439
19533TIP3   OH280089   0.285   1.723  12.668 -0.4375  0.1608 -0.4457
19533TIP3    H180090   0.293   1.649  12.608 -2.5575 -1.1089  0.7062
19533TIP3    H280091   0.191   1.739  12.674 -0.2146  1.0163  1.6091
19534TIP3   OH280092   4.209   1.885   0.553  0.7623 -0.0533 -0.0118
19534TIP3    H180093   4.222   1.791   0.541  0.3258 -0.1140 -0.0239
19534TIP3    H280094   4.298   1.920   0.565  0.8061 -0.7357  1.9647
19535TIP3   OH280095   4.489   1.242   5.016  0.0598 -0.1874  0.4258
19535TIP3    H180096   4.500   1.308   5.085 -1.6416  2.8840 -1.9611
19535TIP3    H280097   4.571   1.246   4.966 -0.8532  1.9818 -1.0459
19536TIP3   OH280098   5.052   1.510  11.642  0.1674 -0.2235  0.1467
19536TIP3    H180099   5.074   1.507  11.549 -2.0355 -2.3807 -0.4188
19536TIP3    H280100   5.025   1.600  11.658 -2.8621 -0.5441 -2.2918
19537TIP3   OH280101   2.862   2.558   4.354 -0.2126  0.2669 -0.7504
19537TIP3    H180102   2.820   2.534   4.437  4.2016  1.7906  2.2867
19537TIP3    H280103   2.908   2.478   4.327 -0.6402  0.1204 -1.0492
19538TIP3   OH280104   5.434   6.312   2.915 -0.2884  0.2221  0.2787
19538TIP3    H180105   5.448   6.275   2.827 -2.2843 -1.2619  0.4988
19538TIP3    H280106   5.346   6.348   2.911 -0.5067 -0.1024  1.7320
19539TIP3   OH280107   2.483   3.412  14.182 -0.1323  0.1323 -0.4047
19539TIP3    H180108   2.440   3.333  14.150  0.2337 -0.1893 -0.1150
19539TIP3    H280109   2.497   3.396  14.275  0.4959  0.2790 -0.4670
19540TIP3   OH280110   4.825   2.222  12.343 -0.8238 -0.6217  0.7177
19540TIP3    H180111   4.770   2.191  12.272  0.5135 -1.4180 -0.0134
19540TIP3    H280112   4.841   2.145  12.397 -1.1508 -0.1997  1.4305
19541TIP3   OH280113   2.713   1.685  11.011 -0.7543 -0.7159 -0.2103
19541TIP3    H180114   2.713   1.746  11.085  1.2057  0.3765 -1.0105
19541TIP3    H280115   2.805   1.682  10.983 -1.2336 -2.0884 -1.7963
19542TIP3   OH280116   3.986   6.603  14.099 -0.2575  0.0307 -0.4563
19542TIP3    H180117   3.982   6.508  14.087 -1.3106  0.0385 -0.2420
19542TIP3    H280118   3.926   6.638  14.032  0.4325  0.5738 -0.8040
19543TIP3   OH280119   6.808   4.863   2.923 -0.1468 -0.3398  0.2015
19543TIP3    H180120   6.835   4.781   2.964 -1.1042 -1.4365 -1.2879
19543TIP3    H280121   6.862   4.870   2.844 -0.9400 -0.1681 -0.3295
19544TIP3   OH280122   1.233   6.703  14.076 -0.1917 -0.8232 -0.3051
19544TIP3    H180123   1.322   6.704  14.113 -0.6679 -2.1242  0.9571
19544TIP3    H280124   1.196   6.788  14.099  0.3134 -0.7419  0.2189
19545TIP3   OH280125   6.561   4.713  16.026 -0.3756  0.1236  0.4323
19545TIP3    H180126   6.548   4.735  15.934  2.1631 -2.4470 -0.6764
19545TIP3    H280127   6.487   4.656  16.048 -1.4154  1.3697  0.2753
19546TIP3   OH280128   6.232   3.157   3.113  0.2061 -0.4614  0.4494
19546TIP3    H180129   6.283   3.121   3.041 -2.5377  0.3086 -2.0415
19546TIP3    H280130   6.163   3.092   3.129 -0.2241  0.1588  1.2004
19547TIP3   OH280131   0.055   2.345  10.001 -0.2305  0.1266  0.2400
19547TIP3    H180132   0.008   2.265  10.027 -0.1604  0.4844  1.5208
19547TIP3    H280133   0.031   2.409  10.067  0.2369  0.9935 -0.4188
19548TIP3   OH280134   6.316   6.789   5.138 -0.0394 -0.4646 -0.0074
19548TIP3    H180135   6.339   6.882   5.143 -0.9693 -0.2201 -0.0519
19548TIP3    H280136   6.389   6.744   5.181  0.3655  0.2943  0.1188
19549TIP3   OH280137   4.812   2.547  11.415  0.2656  0.1228 -0.1066
19549TIP3    H180138   4.754   2.599  11.470  0.1724 -0.9547  0.8403
19549TIP3    H280139   4.820   2.463  11.460  1.5453 -0.1971 -0.8723
19550TIP3   OH280140   3.775   0.096  16.423  0.0146  0.1045 -0.4469
19550TIP3    H180141   3.841   0.155  16.458 -0.0200  0.3572 -0.8081
19550TIP3    H280142   3.800   0.010  16.457  1.1678  0.0106 -1.4568
19551TIP3   OH280143   0.096   4.911  12.173 -0.4407  0.4342  0.3155
19551TIP3    H180144   0.188   4.909  12.199 -0.4669  1.2196  0.4921
19551TIP3    H280145   0.076   5.004  12.161 -0.4723  0.1766 -2.4058
19552TIP3   OH280146   5.189   5.784   3.105  0.1135  0.1771  0.2304
19552TIP3    H180147   5.099   5.803   3.130 -0.1744 -1.0849  0.2476
19552TIP3    H280148   5.242   5.847   3.153 -0.6093 -0.5758  2.0809
19553TIP3   OH280149   2.806   4.118  15.673  1.1026  0.2435 -0.3402
19553TIP3    H180150   2.821   4.123  15.579  0.5400 -0.1875 -0.4518
19553TIP3    H280151   2.804   4.025  15.693 -0.6418  0.2754 -0.2085
19554TIP3   OH280152   2.853   3.582  16.776 -0.0339 -0.5975 -0.7364
19554TIP3    H180153   2.763   3.553  16.787 -1.1060  2.2148 -1.1174
19554TIP3    H280154   2.870   3.638  16.852  1.3176 -0.9270 -0.7678
19555TIP3   OH280155   3.108   2.977   5.691 -0.3831 -0.0088 -0.0323
19555TIP3    H180156   3.062   2.978   5.775 -0.8606 -0.3958 -0.2851
19555TIP3    H280157   3.113   3.069   5.666  0.2717  0.1568  0.6924
19556TIP3   OH280158   1.310   6.393  12.917 -0.5191  0.3885  0.5968
19556TIP3    H180159   1.252   6.356  12.850 -0.9044  3.3609 -0.9034
19556TIP3    H280160   1.383   6.332  12.922 -1.8098 -1.3385 -0.5062
19557TIP3   OH280161   3.401   4.243  13.394 -0.0657 -0.2470  0.0135
19557TIP3    H180162   3.369   4.244  13.303  0.8643  1.5354 -0.3300
19557TIP3    H280163   3.364   4.322  13.433  0.4359 -0.4352  0.8887
19558TIP3   OH280164   4.510   1.790   6.313  0.4070  0.1883  0.8537
19558TIP3    H180165   4.426   1.836   6.306  0.1385 -0.3744  0.3505
19558TIP3    H280166   4.496   1.724   6.381 -0.8766 -2.6495 -1.9650
19559TIP3   OH280167   4.003   4.415  13.386  0.1263 -0.0784 -0.6625
19559TIP3    H180168   4.080   4.389  13.437  0.6060 -0.6237 -1.6421
19559TIP3    H280169   4.034   4.417  13.295 -1.1561 -0.8111 -1.1344
19560TIP3   OH280170   3.417   6.113   5.474  0.3039  0.1181  0.4262
19560TIP3    H180171   3.443   6.154   5.556  2.7051  0.5995 -0.4813
19560TIP3    H280172   3.479   6.148   5.409  0.0703 -2.1028 -1.1046
19561TIP3   OH280173   4.125   5.150   3.672  0.0172 -0.1733 -0.2815
19561TIP3    H180174   4.194   5.144   3.738 -0.5462 -1.3172  0.2365
19561TIP3    H280175   4.061   5.210   3.710 -0.0204 -0.3567 -0.0519
19562TIP3   OH280176   6.260   2.997   3.627  0.3160 -0.1691 -0.2959
19562TIP3    H180177   6.296   2.953   3.550  0.3221  0.0195 -0.4042
19562TIP3    H280178   6.184   2.945   3.652  0.9092 -0.8121  0.1913
19563TIP3   OH280179   4.153   0.041   6.542  0.0786 -0.0655 -0.1807
19563TIP3    H180180   4.086  -0.009   6.494  0.0197  1.0700 -1.3345
19563TIP3    H280181   4.235   0.018   6.499  0.6708 -2.3699  1.9792
19564TIP3   OH280182   0.910   3.969  16.444  0.5707 -1.0659 -0.0400
19564TIP3    H180183   0.925   3.909  16.517  1.1462 -2.2527 -1.0980
19564TIP3    H280184   0.996   4.008  16.427  0.2240  0.0072  0.5633
19565TIP3   OH280185   1.893   4.854   5.919  0.8246 -0.4147 -0.6945
19565TIP3    H180186   1.972   4.864   5.972  0.0009 -0.0853  0.5179
19565TIP3    H280187   1.873   4.761   5.922  0.9827 -0.4485 -0.7250
19566TIP3   OH280188   5.675   1.642  15.661 -0.3334  0.1530 -0.4797
19566TIP3    H180189   5.719   1.660  15.744 -0.9394 -0.7144  0.0494
19566TIP3    H280190   5.720   1.697  15.598 -0.9487  2.1285  0.7111
19567TIP3   OH280191   2.842   1.207   4.690 -0.1403 -0.2278  0.3968
19567TIP3    H180192   2.789   1.220   4.612 -2.2285 -0.0438  1.7624
19567TIP3    H280193   2.779   1.179   4.757  1.7687 -1.7669  1.6714
19568TIP3   OH280194   1.532   3.259   3.295  0.4907 -0.0649 -0.3750
19568TIP3    H180195   1.442   3.228   3.302 -0.1621  1.3786 -1.9004
19568TIP3    H280196   1.528   3.351   3.321  1.4115  0.1846 -1.0752
19569TIP3   OH280197   6.005   0.550   5.554  0.3366  0.4642 -0.2852
19569TIP3    H180198   6.089   0.540   5.509  0.4530 -2.6276  0.4156
19569TIP3    H280199   6.011   0.492   5.629 -1.8346  1.4898  0.7645
19570TIP3   OH280200   2.540   4.280   0.818  0.6144  0.4175 -0.0688
19570TIP3    H180201   2.537   4.185   0.823  0.9683  0.4491  1.3773
19570TIP3    H280202   2.470   4.310   0.876  0.2746  1.0425 -0.7864
19571TIP3   OH280203   1.363   5.022  15.729 -0.1065 -0.3618  0.3516
19571TIP3    H180204   1.335   5.015  15.637  0.4612 -1.7596  0.2558
19571TIP3    H280205   1.307   4.959  15.776 -0.8700  0.8434  1.1058
19572TIP3   OH280206   1.897   0.623   1.046 -0.7131  0.9317  0.1867
19572TIP3    H180207   1.888   0.677   0.968  0.4575  0.2635 -0.4305
19572TIP3    H280208   1.934   0.682   1.112 -0.2689  1.1167 -0.2220
19573TIP3   OH280209   4.942   5.584   3.596 -0.1872 -0.6313 -0.3334
19573TIP3    H180210   5.001   5.634   3.539  0.6474  0.2938  1.2484
19573TIP3    H280211   4.987   5.499   3.608  0.2435 -0.3808 -0.1192
19574TIP3   OH280212   5.226   4.164  12.856 -0.2800  0.6068 -0.0737
19574TIP3    H180213   5.319   4.143  12.861 -0.0328  1.9176  3.2269
19574TIP3    H280214   5.221   4.257  12.880 -2.5613 -0.0103  2.2287
19575TIP3   OH280215   4.158   6.459   4.679 -0.3513 -0.0552 -0.2805
19575TIP3    H180216   4.247   6.474   4.712 -1.0698 -0.2798  1.8997
19575TIP3    H280217   4.137   6.370   4.706 -0.7658 -0.5483 -2.0586
19576TIP3   OH280218   0.373   3.858  13.704  0.7997  0.2528  0.2311
19576TIP3    H180219   0.303   3.923  13.703  1.9590  1.5855  1.5356
19576TIP3    H280220   0.439   3.893  13.644  0.1039 -1.3678 -1.5894
19577TIP3   OH280221   6.296   1.006  14.903  0.0569  0.0645  0.4381
19577TIP3    H180222   6.261   1.092  14.926 -0.7066 -0.6162  1.9309
19577TIP3    H280223   6.253   0.946  14.963  1.5145 -1.2130  0.2437
19578TIP3   OH280224   5.809   3.255   4.240 -0.6270 -0.2642  0.4447
19578TIP3    H180225   5.899   3.286   4.229 -0.8342  0.4257  0.6541
19578TIP3    H280226   5.804   3.229   4.331 -0.8102  0.2710  0.5905
19579TIP3   OH280227   3.030   3.884  13.137  0.3995 -0.3973  0.5491
19579TIP3    H180228   3.111   3.834  13.146  0.2595 -0.4958  1.2976
19579TIP3    H280229   3.055   3.973  13.164  0.3594 -0.3343  0.3764
19580TIP3   OH280230   4.750   4.254  16.996 -0.1167  0.7127 -0.5831
19580TIP3    H180231   4.767   4.160  17.000  0.7677  0.8510 -0.7885
19580TIP3    H280232   4.666   4.265  17.040 -0.0975 -0.1392 -0.3079
19581TIP3   OH280233   2.541   0.828   5.119 -0.2926 -0.1387 -0.2058
19581TIP3    H180234   2.463   0.876   5.092 -0.1701 -0.4101 -1.0852
19581TIP3    H280235   2.511   0.769   5.188 -0.6430  0.5011  0.1936
19582TIP3   OH280236   5.282   6.590  16.713 -0.4611  0.2146 -0.2664
19582TIP3    H180237   5.265   6.684  16.708 -1.5614  0.0504  0.1702
19582TIP3    H280238   5.210   6.555  16.765  0.6477 -0.6928  0.7223
19583TIP3   OH280239   0.881   3.516   2.261  0.7134  0.4346 -0.3492
19583TIP3    H180240   0.863   3.556   2.176  0.9491  2.1101  0.3458
19583TIP3    H280241   0.819   3.557   2.321  0.2504 -1.0472  0.2322
19584TIP3   OH280242   5.926   1.606  16.286 -0.3251  0.4525 -0.7319
19584TIP3    H180243   5.836   1.596  16.318  0.3612 -2.6051  0.6104
19584TIP3    H280244   5.975   1.637  16.363  0.2702 -0.9495 -0.5208
19585TIP3   OH280245   2.017   6.656  12.260 -0.6792  0.1669 -0.3863
19585TIP3    H180246   2.104   6.676  12.226 -0.5075 -2.5066 -1.7505
19585TIP3    H280247   2.033   6.601  12.336 -1.2018  2.1014  1.2164
19586TIP3   OH280248   5.436   3.570  14.245  0.1454 -0.0603 -0.0748
19586TIP3    H180249   5.528   3.596  14.252  0.4261 -1.3682  2.8982
19586TIP3    H280250   5.388   3.639  14.290 -0.1787 -0.1059 -0.3465
19587TIP3   OH280251   3.647   4.867   5.297 -0.3503  0.2072  0.0408
19587TIP3    H180252   3.620   4.885   5.387 -1.7735 -2.0558  0.1463
19587TIP3    H280253   3.686   4.779   5.301  0.2882  0.3954 -1.4350
19588TIP3   OH280254   1.864   1.157  16.554 -0.1382  0.0011 -0.6486
19588TIP3    H180255   1.808   1.082  16.572 -1.6491  0.8483 -1.5405
19588TIP3    H280256   1.824   1.229  16.603 -0.8126  0.9720 -2.5282
19589TIP3   OH280257   1.412   1.188  12.099  0.7139  0.7907 -0.0495
19589TIP3    H180258   1.431   1.134  12.023  1.2066  1.0194 -0.0914
19589TIP3    H280259   1.317   1.192  12.102  0.6457 -0.4192  0.1892
19590TIP3   OH280260   4.850   6.804   1.674 -0.1139 -0.0904  0.0164
19590TIP3    H180261   4.872   6.867   1.742  1.0062  0.7153 -1.0412
19590TIP3    H280262   4.909   6.826   1.601 -1.0609 -1.1036 -1.0993
19591TIP3   OH280263   3.914   5.758   0.585 -1.1045 -0.0081  0.1656
19591TIP3    H180264   3.944   5.698   0.517 -0.5176 -0.0190  0.4319
19591TIP3    H280265   3.935   5.714   0.668 -0.2455  0.7510  0.3693
19592TIP3   OH280266   6.093   3.252  13.170  0.4423 -0.2009 -0.2665
19592TIP3    H180267   6.121   3.270  13.080  1.0161  1.9518  0.2954
19592TIP3    H280268   6.000   3.230  13.162  0.5860 -0.4703 -1.4150
19593TIP3   OH280269   3.994   1.847  15.460  0.3003 -0.1676 -0.0751
19593TIP3    H180270   3.994   1.871  15.367 -0.1085  1.4613  0.3310
19593TIP3    H280271   3.902   1.852  15.486  0.4058 -0.6784  0.4280
19594TIP3   OH280272   3.620   5.627   1.700 -0.2215  0.4636  0.3969
19594TIP3    H180273   3.530   5.624   1.733 -0.8290  0.0721 -1.2253
19594TIP3    H280274   3.653   5.538   1.714 -0.1547  0.5480  0.7893
19595TIP3   OH280275   2.723   0.981   7.069 -0.4632  0.0351  0.3076
19595TIP3    H180276   2.719   0.892   7.105 -2.8273  0.1805  0.6120
19595TIP3    H280277   2.809   0.987   7.027 -0.5887 -2.7127 -0.5392
19596TIP3   OH280278   3.390   5.194  13.919  0.1864 -0.4560 -0.6815
19596TIP3    H180279   3.326   5.194  13.991 -0.9165  1.4191 -1.5935
19596TIP3    H280280   3.339   5.221  13.843  2.0935  1.2310 -1.4310
19597TIP3   OH280281   3.732   3.873  12.842  0.4675  0.1252 -0.3022
19597TIP3    H180282   3.735   3.883  12.937  0.9202  1.0177 -0.3927
19597TIP3    H280283   3.765   3.785  12.825  0.6616  0.0712  0.3538
19598TIP3   OH280284   0.611   3.311  16.457  0.1217  0.1197  0.3687
19598TIP3    H180285   0.695   3.275  16.486  0.2707 -0.0497 -0.2517
19598TIP3    H280286   0.545   3.250  16.491  0.3451 -0.5209 -0.3273
19599TIP3   OH280287   5.659   1.698   4.019 -0.3822  0.4496 -0.4874
19599TIP3    H180288   5.576   1.747   4.020  0.4226  1.8950 -0.8775
19599TIP3    H280289   5.666   1.666   3.929 -0.5012  0.3425 -0.4595
19600TIP3   OH280290   4.412   4.456  14.880  0.0508 -0.0224  0.3306
19600TIP3    H180291   4.317   4.456  14.888 -0.1818  0.4127 -1.7668
19600TIP3    H280292   4.439   4.541  14.915 -0.4053  0.0950  0.4003
19601TIP3   OH280293   5.649   1.343  12.814 -0.1012  0.3270 -0.0346
19601TIP3    H180294   5.661   1.307  12.726 -2.3045  0.4855 -0.4570
19601TIP3    H280295   5.556   1.365  12.818 -0.2270 -0.3726  2.5973
19602TIP3   OH280296   0.266   1.360  10.825  0.2414 -0.0068 -0.0228
19602TIP3    H180297   0.243   1.320  10.909  1.7962 -0.3262  0.2816
19602TIP3    H280298   0.247   1.292  10.760  2.8322 -1.3287  0.4886
19603TIP3   OH280299   6.490   4.656  13.070 -0.0429  0.2171  0.4286
19603TIP3    H180300   6.530   4.667  13.156  0.6549 -1.8873  0.4370
19603TIP3    H280301   6.409   4.607  13.088  1.0362 -1.9285 -0.2071
19604TIP3   OH280302   4.218   1.077  16.802  0.1051 -0.8934  0.6242
19604TIP3    H180303   4.232   1.149  16.864  0.4607  1.1426 -1.6637
19604TIP3    H280304   4.123   1.074  16.790  0.0745 -0.9401  0.8729
19605TIP3   OH280305   4.907   1.834   2.095 -0.1527  0.2100  0.1873
19605TIP3    H180306   4.989   1.813   2.051 -1.4836 -1.3498 -1.6947
19605TIP3    H280307   4.918   1.925   2.123  2.3990 -0.1209  0.5045
19606TIP3   OH280308   5.214   4.194  10.638  0.1214 -0.1095  0.8305
19606TIP3    H180309   5.126   4.229  10.655 -1.7992 -3.0070 -1.8970
19606TIP3    H280310   5.228   4.130  10.709 -0.2881 -0.0995  0.9230
19607TIP3   OH280311   6.048   0.195  17.206 -0.1355  0.5066  0.8985
19607TIP3    H180312   6.120   0.257  17.197  2.8209 -2.7452 -0.4259
19607TIP3    H280313   6.048   0.171  17.299  0.5327  0.5736  0.9247
19608TIP3   OH280314   5.319   0.081  11.712 -0.5231  0.1362  0.4599
19608TIP3    H180315   5.284   0.134  11.640  0.1095 -0.9367 -0.6658
19608TIP3    H280316   5.250   0.084  11.779 -0.9260  1.5293  0.0258
19609TIP3   OH280317   4.757   5.969  12.698 -0.1245 -0.2850  0.1972
19609TIP3    H180318   4.665   5.994  12.710  0.1038 -0.3644  2.4906
19609TIP3    H280319   4.759   5.927  12.612 -2.0909  0.3164 -0.2007
19610TIP3   OH280320   5.510   0.236   1.668 -0.2234  0.1800  0.6196
19610TIP3    H180321   5.431   0.242   1.616 -0.4910  2.8283  1.2145
19610TIP3    H280322   5.480   0.239   1.759  0.4355 -1.3923  0.9307
19611TIP3   OH280323   0.897   3.087  15.887  0.2274 -0.2106 -0.6121
19611TIP3    H180324   0.899   2.991  15.887  0.6439 -0.2647  1.3612
19611TIP3    H280325   0.806   3.109  15.872  0.0358 -0.9511 -0.5990
19612TIP3   OH280326   3.439   2.912   3.049 -0.3738  0.5755 -0.3942
19612TIP3    H180327   3.438   2.939   2.957  0.2700  2.0145 -0.0081
19612TIP3    H280328   3.512   2.850   3.055  0.4978  1.5489 -0.5981
19613TIP3   OH280329   5.418   3.431   1.635  0.0444 -0.1360  0.1004
19613TIP3    H180330   5.369   3.351   1.652 -0.8026 -0.0122 -1.5463
19613TIP3    H280331   5.408   3.446   1.541 -0.0725  2.0671  0.3994
19614TIP3   OH280332   1.187   1.540  14.189  0.2184  0.1869  0.0957
19614TIP3    H180333   1.093   1.532  14.204 -0.0965  1.7194 -0.7886
19614TIP3    H280334   1.197   1.525  14.095  0.8873 -0.1665  0.2192
19615TIP3   OH280335   2.502   1.906  12.764 -0.0150 -0.3621  0.3843
19615TIP3    H180336   2.409   1.906  12.786  0.1454 -1.5602  1.1541
19615TIP3    H280337   2.521   1.815  12.739  0.5911  0.2233 -1.4110
19616TIP3   OH280338   2.027   0.748   1.586 -0.5722  0.1273  0.6664
19616TIP3    H180339   1.942   0.707   1.573 -0.9108  0.2306  2.2869
19616TIP3    H280340   2.063   0.705   1.664  0.7263  0.3127  0.2033
19617TIP3   OH280341   2.724   2.542  11.110 -0.6761  0.0674  0.8676
19617TIP3    H180342   2.636   2.503  11.104 -0.8580  0.6428 -1.3123
19617TIP3    H280343   2.711   2.633  11.081  0.7171 -0.0166 -0.1143
19618TIP3   OH280344   4.710   3.118  11.786  0.9316  0.6870  0.2271
19618TIP3    H180345   4.786   3.137  11.731  0.8413  1.0095  0.2105
19618TIP3    H280346   4.635   3.133  11.728  0.8780 -0.6111 -0.0560
19619TIP3   OH280347   5.212   2.529   4.736 -0.6860 -0.3290 -0.2211
19619TIP3    H180348   5.120   2.527   4.712 -0.6181 -1.5578 -0.4820
19619TIP3    H280349   5.257   2.554   4.655 -0.7032 -1.1148 -0.4847
19620TIP3   OH280350   4.127   1.317  15.171  0.3184 -0.2730 -0.1713
19620TIP3    H180351   4.137   1.411  15.154  1.0784 -0.2940  0.1233
19620TIP3    H280352   4.082   1.313  15.255  1.1676 -0.1684  0.2948
19621TIP3   OH280353   6.184   2.759  14.025 -0.4316  0.1213  0.0424
19621TIP3    H180354   6.121   2.688  14.038  0.7385 -0.9866 -0.1360
19621TIP3    H280355   6.150   2.831  14.078 -3.6188  0.7881 -2.6055
19622TIP3   OH280356   6.439   3.326  15.290 -0.1175  0.0911 -0.4970
19622TIP3    H180357   6.364   3.367  15.333  0.5948  1.7292 -0.7413
19622TIP3    H280358   6.481   3.274  15.358  0.3090  1.6871  0.5090
19623TIP3   OH280359   2.230   1.912  12.566  0.4687  0.5042  0.6637
19623TIP3    H180360   2.226   1.994  12.615  0.4587  1.1006 -0.3009
19623TIP3    H280361   2.173   1.927  12.490 -1.6085 -1.3050  1.7394
19624TIP3   OH280362   2.286   2.458   0.681 -0.7562  0.1358 -1.0884
19624TIP3    H180363   2.305   2.551   0.688  0.7151 -0.1430 -0.9000
19624TIP3    H280364   2.249   2.434   0.766  1.9757 -0.0560  0.1593
19625TIP3   OH280365   1.773   4.949   5.685 -0.3026  0.2862  0.0045
19625TIP3    H180366   1.829   5.006   5.632  1.6190  0.4449  2.0611
19625TIP3    H280367   1.827   4.925   5.760 -2.1465 -1.7154  0.8040
19626TIP3   OH280368   0.355   6.735  12.317  0.3561 -0.6532 -0.0611
19626TIP3    H180369   0.289   6.803  12.330 -1.0178 -2.1451  1.1078
19626TIP3    H280370   0.421   6.753  12.383  0.0657 -0.3932  0.1607
19627TIP3   OH280371   3.387   4.064  16.285 -0.4503  0.2259  0.3999
19627TIP3    H180372   3.392   4.153  16.320 -2.9024  1.1239 -1.3486
19627TIP3    H280373   3.479   4.036  16.279  0.5039  3.1960 -0.4059
19628TIP3   OH280374   0.837   5.719   0.329 -0.2813  0.3356 -0.2965
19628TIP3    H180375   0.893   5.724   0.406  1.2303  0.0180 -1.3386
19628TIP3    H280376   0.896   5.695   0.258 -1.9605 -1.3842 -1.1969
19629TIP3   OH280377   3.227   4.969   2.287 -0.6884 -0.0131 -0.1019
19629TIP3    H180378   3.134   4.976   2.267 -0.3370  0.5999 -1.6238
19629TIP3    H280379   3.261   5.058   2.276  0.2061 -0.3599 -0.2218
19630TIP3   OH280380   0.216   5.130   4.801 -0.3380  0.1655 -0.2371
19630TIP3    H180381   0.152   5.156   4.867  0.7644  0.5403  0.7362
19630TIP3    H280382   0.223   5.206   4.743  0.3378  0.7383  0.5676
19631TIP3   OH280383   5.866   1.802  12.201  0.0280  0.5299 -0.1095
19631TIP3    H180384   5.773   1.791  12.186 -0.0313  3.4057 -2.7751
19631TIP3    H280385   5.908   1.745  12.137  0.1610 -0.6307  0.9721
19632TIP3   OH280386   2.091   2.038   1.762  0.6944  0.2907 -1.0125
19632TIP3    H180387   2.048   2.107   1.813  0.7030 -0.1654 -0.3779
19632TIP3    H280388   2.019   1.987   1.725  0.6854  0.9283 -1.8885
19633TIP3   OH280389   1.218   0.872   2.559 -0.0067  0.5999 -0.0849
19633TIP3    H180390   1.181   0.853   2.473  2.6780 -1.5110 -0.9221
19633TIP3    H280391   1.303   0.912   2.540  0.9427 -0.5347  1.5369
19634TIP3   OH280392   0.485   6.504  13.579 -0.6993 -0.3526  0.3657
19634TIP3    H180393   0.482   6.583  13.634  1.0280  0.4346 -0.5826
19634TIP3    H280394   0.567   6.462  13.602 -0.3671 -0.4704 -0.9638
19635TIP3   OH280395   2.906   2.080   1.225 -0.9155  0.1263 -0.2150
19635TIP3    H180396   3.000   2.098   1.226 -0.2847 -2.7188 -0.5870
19635TIP3    H280397   2.895   2.009   1.287 -3.0231  1.0061  0.5074
19636TIP3   OH280398   0.633   1.961  13.947 -0.1981 -0.3854  0.2837
19636TIP3    H180399   0.682   2.000  13.874 -1.3826  1.1896  0.2601
19636TIP3    H280400   0.684   1.884  13.972  0.1822 -1.0906 -2.3059
19637TIP3   OH280401   4.083   5.404   2.300  0.3365 -0.0165 -0.2228
19637TIP3    H180402   4.069   5.352   2.380  0.2097 -0.5393 -0.5781
19637TIP3    H280403   4.096   5.493   2.332  1.8414 -0.4576  0.4956
19638TIP3   OH280404   0.195   2.558   2.941  0.5418 -0.1929  0.1975
19638TIP3    H180405   0.158   2.569   2.853  2.1566 -0.1413 -0.5276
19638TIP3    H280406   0.147   2.620   2.996 -0.3795 -0.0984 -0.6866
19639TIP3   OH280407   1.588   3.922  16.740  0.1433  0.8080  0.5210
19639TIP3    H180408   1.635   4.005  16.744  0.6260  0.7247 -1.9081
19639TIP3    H280409   1.496   3.946  16.726  0.1137  0.9412  0.9515
19640TIP3   OH280410   5.751   4.081  14.430 -0.5302 -0.4286 -0.3889
19640TIP3    H180411   5.714   4.169  14.436  1.3763  0.4374 -0.3982
19640TIP3    H280412   5.846   4.095  14.433 -0.1813 -2.5233  0.0361
19641TIP3   OH280413   5.176   3.042  10.765 -0.0067 -0.0738  0.3556
19641TIP3    H180414   5.241   2.975  10.744 -0.4843  0.2921 -2.8529
19641TIP3    H280415   5.113   3.037  10.693 -3.6030 -0.3721  3.2381
19642TIP3   OH280416   0.059   5.613  11.280  0.1655 -0.5313 -1.1540
19642TIP3    H180417   0.042   5.546  11.347 -1.4904  1.0272  0.0963
19642TIP3    H280418   0.034   5.572  11.198 -0.3035 -1.6276 -0.4873
19643TIP3   OH280419   1.237   1.719  11.083  0.0271  0.1203  0.3868
19643TIP3    H180420   1.313   1.709  11.140 -0.9628  0.9153  1.9173
19643TIP3    H280421   1.259   1.668  11.005  1.5612 -0.7517  1.3322
19644TIP3   OH280422   5.812   0.552  11.016 -0.3408  0.1358  0.1033
19644TIP3    H180423   5.862   0.588  11.089  1.2597  0.4456 -1.0701
19644TIP3    H280424   5.728   0.596  11.020  0.1264  0.9808  1.0918
19645TIP3   OH280425   5.837   6.266  12.813  0.0515  0.0016 -0.8183
19645TIP3    H180426   5.852   6.201  12.882 -0.8560 -0.4442 -1.0206
19645TIP3    H280427   5.889   6.235  12.739 -1.9831 -1.7196 -1.6354
19646TIP3   OH280428   3.497   1.374  14.911  0.5289 -0.7705 -0.0985
19646TIP3    H180429   3.408   1.362  14.943  0.1930 -0.6692 -0.9738
19646TIP3    H280430   3.496   1.459  14.868  0.0587 -2.2454 -3.2740
19647TIP3   OH280431   1.766   4.033  11.579 -0.3014  0.8587 -0.0434
19647TIP3    H180432   1.782   4.002  11.668  2.9448  4.0197  0.6721
19647TIP3    H280433   1.682   4.078  11.584 -0.4031  0.5525  1.2835
19648TIP3   OH280434   1.453   2.862   3.970  0.3151 -0.0391 -0.4768
19648TIP3    H180435   1.453   2.884   4.063 -2.1376 -0.5871 -0.2701
19648TIP3    H280436   1.415   2.774   3.966 -1.2444  0.6289 -2.0590
19649TIP3   OH280437   3.477   1.133  12.793  0.1215  0.1235  0.2352
19649TIP3    H180438   3.443   1.221  12.776 -4.7995 -1.5906 -0.4176
19649TIP3    H280439   3.491   1.095  12.707  3.2563  0.4464  0.5025
19650TIP3   OH280440   1.391   6.028  14.222 -0.2263 -0.4724 -0.4019
19650TIP3    H180441   1.368   6.046  14.313 -0.6712  0.1428 -0.6338
19650TIP3    H280442   1.459   6.091  14.202  0.2765 -0.9824 -0.3297
19651TIP3   OH280443   0.844   1.724  12.027  0.3881 -0.1825  0.0568
19651TIP3    H180444   0.931   1.684  12.031  0.9046  0.8571 -0.3419
19651TIP3    H280445   0.804   1.687  11.948  0.8227 -0.0033 -0.2540
19652TIP3   OH280446   0.141   2.077  12.451  0.2010 -0.2674  0.0413
19652TIP3    H180447   0.171   2.064  12.541 -1.0447 -0.6738  0.4191
19652TIP3    H280448   0.204   2.029  12.397  0.2344 -1.1175  0.8167
19653TIP3   OH280449   5.840   6.647  13.554  0.3665 -0.1589  0.0553
19653TIP3    H180450   5.759   6.695  13.567  0.3599 -0.1433 -0.0429
19653TIP3    H280451   5.828   6.602  13.470  0.7718  0.4728 -0.3430
19654TIP3   OH280452   5.431   3.086  12.053 -0.1351 -0.2434  0.2810
19654TIP3    H180453   5.374   3.057  11.982  1.1522 -1.9041 -0.1278
19654TIP3    H280454   5.443   3.180  12.038 -0.7344 -0.3658 -1.0748
19655TIP3   OH280455   0.828   6.010  14.682 -1.0658  0.5141 -0.6760
19655TIP3    H180456   0.916   6.018  14.719 -0.9100 -2.3085 -0.2311
19655TIP3    H280457   0.770   6.018  14.758 -0.9665 -1.0447 -0.4046
19656TIP3   OH280458   1.383   3.474  12.671  0.0656  0.7564  0.2100
19656TIP3    H180459   1.304   3.512  12.710  0.1510  0.1719  0.9652
19656TIP3    H280460   1.441   3.457  12.745  0.3330 -0.1212 -0.1934
19657TIP3   OH280461   5.033   3.926  13.730  0.2482 -0.2984 -0.0207
19657TIP3    H180462   5.066   3.847  13.772  0.4962  1.3595  3.2529
19657TIP3    H280463   4.954   3.948  13.778 -1.1077  0.2874 -2.3485
19658TIP3   OH280464   5.036   6.634   1.948 -0.0168  0.8793 -0.2299
19658TIP3    H180465   4.965   6.690   1.981 -0.9548  0.3731 -1.2876
19658TIP3    H280466   5.015   6.547   1.982  0.7477  0.9305  0.3904
19659TIP3   OH280467   1.444   0.772   0.850 -0.2231  0.0893  0.4587
19659TIP3    H180468   1.537   0.770   0.824 -0.5173 -2.1724 -0.7657
19659TIP3    H280469   1.410   0.853   0.811  0.6322 -0.4820 -1.6472
19660TIP3   OH280470   5.638   1.619  16.246  0.5451 -0.7599 -0.2458
19660TIP3    H180471   5.555   1.582  16.218  0.0179 -1.7314  2.3501
19660TIP3    H280472   5.656   1.688  16.183 -2.0605 -0.7396 -1.0689
19661TIP3   OH280473   1.315   3.615   4.386  0.0363  0.0369 -0.2862
19661TIP3    H180474   1.378   3.687   4.399  0.2825 -0.2294  0.0030
19661TIP3    H280475   1.244   3.634   4.447  0.4726 -0.3867  0.3622
19662TIP3   OH280476   3.087   2.239   1.953  0.2603 -0.0725  0.1645
19662TIP3    H180477   3.167   2.188   1.963  0.2823  0.2772  2.4194
19662TIP3    H280478   3.019   2.184   1.993 -0.1976  0.5692  0.2900
19663TIP3   OH280479   4.541   2.175  12.467 -0.1530 -0.4354 -0.5666
19663TIP3    H180480   4.542   2.120  12.389  0.1324  0.0028 -0.8790
19663TIP3    H280481   4.470   2.140  12.520  0.3879 -1.4644 -0.4933
19664TIP3   OH280482   0.553   1.637   2.845 -0.1179 -0.3170 -0.4254
19664TIP3    H180483   0.648   1.649   2.856  0.1423 -0.8491 -1.9110
19664TIP3    H280484   0.540   1.543   2.850 -0.3845 -0.3458 -1.5071
19665TIP3   OH280485   3.222   2.503   1.992 -0.3359 -0.1483 -0.8124
19665TIP3    H180486   3.307   2.476   1.958 -0.4742 -1.5187 -0.1445
19665TIP3    H280487   3.167   2.425   1.985 -0.5563 -0.3354  1.9021
19666TIP3   OH280488   3.025   5.412  12.020 -0.4040  0.8352  0.1078
19666TIP3    H180489   3.080   5.335  12.036  0.7168  1.7888  1.0359
19666TIP3    H280490   2.941   5.389  12.060 -0.7795 -0.6809 -1.4138
19667TIP3   OH280491   1.036   1.888   2.877  0.0955  0.3219 -0.3228
19667TIP3    H180492   0.964   1.879   2.815 -0.1119 -1.9231  0.1353
19667TIP3    H280493   1.021   1.971   2.921 -1.8184  0.2328 -0.7350
19668TIP3   OH280494   4.209   0.572  16.517  0.3493 -0.2540  0.2363
19668TIP3    H180495   4.124   0.573  16.561  0.5003 -1.5610  0.6068
19668TIP3    H280496   4.196   0.514  16.442  0.1214  1.8500 -1.4749
19669TIP3   OH280497   6.357   2.274   3.620 -0.2070  0.2652  0.2360
19669TIP3    H180498   6.343   2.356   3.668  0.8871  0.5665  0.0602
19669TIP3    H280499   6.406   2.300   3.542 -0.7564 -0.4175 -0.3516
19670TIP3   OH280500   1.301   1.708  16.763  0.3614  0.2922 -0.3243
19670TIP3    H180501   1.296   1.677  16.672  0.2646  1.6920 -0.8141
19670TIP3    H280502   1.220   1.675  16.803 -0.0857  0.5272 -1.0221
19671TIP3   OH280503   6.287   3.437  15.475 -0.7445  0.0005 -0.1734
19671TIP3    H180504   6.246   3.521  15.456 -0.5642  0.2645  0.5576
19671TIP3    H280505   6.240   3.405  15.552 -0.0725 -0.0409  0.2225
19672TIP3   OH280506   3.116   0.815   6.497 -1.0461 -0.1938 -0.0733
19672TIP3    H180507   3.210   0.832   6.491 -1.1638  0.3109 -0.5663
19672TIP3    H280508   3.109   0.719   6.504 -0.5218 -0.2664 -0.5106
19673TIP3   OH280509   4.616   3.910  17.239 -0.2061  0.6403  0.1762
19673TIP3    H180510   4.564   3.988  17.258 -0.6080  0.6273 -0.8176
19673TIP3    H280511   4.591   3.885  17.150 -1.1146 -1.4289  0.9543
19674TIP3   OH280512   1.069   4.255   2.679  0.1865 -0.0828 -0.3899
19674TIP3    H180513   1.013   4.271   2.755  0.5696  0.1484 -0.1500
19674TIP3    H280514   1.136   4.323   2.684  0.3165 -0.1725 -0.8392
19675TIP3   OH280515   2.369   0.325  10.536  0.0545  0.2097  0.4815
19675TIP3    H180516   2.464   0.315  10.544  0.1544  1.1665  0.6140
19675TIP3    H280517   2.333   0.242  10.567  0.6637  1.4248  5.0578
19676TIP3   OH280518   5.655   4.801   1.284  0.2895  0.5969  0.4905
19676TIP3    H180519   5.562   4.818   1.270  0.6450  1.5706 -0.9257
19676TIP3    H280520   5.682   4.865   1.349  0.3262  1.4678 -0.3671
19677TIP3   OH280521   4.082   6.567  17.059 -0.7144 -0.3310 -0.1785
19677TIP3    H180522   4.159   6.543  17.008 -1.0326  1.4301 -1.5589
19677TIP3    H280523   4.078   6.662  17.054 -3.7918 -0.4093 -1.4169
19678TIP3   OH280524   4.781   0.967   3.460  0.0754 -0.6650 -0.1186
19678TIP3    H180525   4.861   1.009   3.428 -0.2379 -0.5588 -0.7967
19678TIP3    H280526   4.725   0.961   3.382 -0.8182 -0.1767  0.4625
19679TIP3   OH280527   3.893   6.037   3.573 -0.7152 -0.0820  0.5732
19679TIP3    H180528   3.876   5.978   3.646 -1.5403  0.0604  0.5027
19679TIP3    H280529   3.823   6.102   3.577  0.0830  0.8124  0.5522
19680TIP3   OH280530   0.951   5.152   1.497 -0.3714  0.1777  0.0508
19680TIP3    H180531   0.890   5.213   1.538 -0.1975 -1.3368  2.8075
19680TIP3    H280532   0.938   5.164   1.403 -3.5217  1.2353  0.5112
19681TIP3   OH280533   2.600   1.545  13.735 -0.1587 -0.1142 -0.1512
19681TIP3    H180534   2.686   1.546  13.692  0.1892 -0.0646  0.5268
19681TIP3    H280535   2.583   1.452  13.750  0.2934 -0.0736  0.6974
19682TIP3   OH280536   2.513   4.204  13.653  0.3957  0.0800 -0.3383
19682TIP3    H180537   2.438   4.204  13.713 -0.0090 -1.9834 -0.7444
19682TIP3    H280538   2.480   4.243  13.573 -0.2934 -0.8234 -0.5153
19683TIP3   OH280539   3.847   4.348  11.145 -0.5082  0.2496  0.4244
19683TIP3    H180540   3.755   4.369  11.163 -0.9240 -1.8871  0.9974
19683TIP3    H280541   3.844   4.278  11.081  0.7583  0.4783  0.0812
19684TIP3   OH280542   3.738   6.126  15.294  0.9564 -0.1845 -0.0285
19684TIP3    H180543   3.689   6.203  15.323 -1.6232 -0.9331 -2.0578
19684TIP3    H280544   3.768   6.085  15.375  1.5132  2.3241  1.1445
19685TIP3   OH280545   6.815   0.904   4.389 -0.0153 -0.0889  0.3701
19685TIP3    H180546   6.766   0.950   4.321 -0.9048 -0.8752  0.4667
19685TIP3    H280547   6.749   0.855   4.437  0.8207 -0.8319  0.7818
19686TIP3   OH280548   1.327   1.274  15.410 -0.4421 -0.3151  0.0327
19686TIP3    H180549   1.273   1.349  15.437 -2.4922 -1.2878 -1.0924
19686TIP3    H280550   1.350   1.293  15.319  1.0941  0.0330  0.4692
19687TIP3   OH280551   4.540   4.153   2.724  0.0733  0.1301  0.1480
19687TIP3    H180552   4.574   4.066   2.704 -1.7492 -0.4974 -0.4566
19687TIP3    H280553   4.541   4.159   2.820 -0.2900 -0.7653  0.2079
19688TIP3   OH280554   4.905   4.988  11.799  0.3296 -0.0541 -0.6853
19688TIP3    H180555   4.991   5.030  11.795 -0.5721  2.1104  0.7519
19688TIP3    H280556   4.904   4.943  11.883  0.0463 -0.0819 -0.7024
19689TIP3   OH280557   3.223   4.040  16.067 -0.3392  0.6609  0.0643
19689TIP3    H180558   3.289   4.028  16.136  0.1651  1.1664 -0.3214
19689TIP3    H280559   3.167   3.963  16.074  1.6344 -0.9979 -1.0418
19690TIP3   OH280560   5.476   6.643   1.783 -0.0934 -0.1476 -0.4562
19690TIP3    H180561   5.431   6.600   1.856 -0.2106 -0.3467 -0.6457
19690TIP3    H280562   5.445   6.733   1.785 -0.5995 -0.3165 -0.6677
19691TIP3   OH280563   4.510   4.516   1.393  0.1922 -0.1435  0.7500
19691TIP3    H180564   4.477   4.566   1.318  0.6808 -0.4600  0.3163
19691TIP3    H280565   4.598   4.487   1.366 -0.4390 -2.0674  0.5709
19692TIP3   OH280566   4.044   2.294   4.231  0.1007 -0.2256  0.1792
19692TIP3    H180567   4.064   2.255   4.145  2.0857  1.0699 -0.0162
19692TIP3    H280568   4.014   2.383   4.211 -0.6323 -0.3248  0.7889
19693TIP3   OH280569   2.455   6.801   2.448  0.1945 -0.4434 -0.2656
19693TIP3    H180570   2.427   6.723   2.496 -1.3831  0.7486  0.8858
19693TIP3    H280571   2.448   6.872   2.512 -0.9740  1.0717 -1.9769
19694TIP3   OH280572   0.299   1.790  11.340  0.2602 -0.3098  0.1834
19694TIP3    H180573   0.207   1.815  11.331 -0.0302 -0.6756  1.7955
19694TIP3    H280574   0.316   1.734  11.265 -1.7023 -2.6208  1.2890
19695TIP3   OH280575   2.135   3.328  16.966 -0.3218 -0.5035  0.2108
19695TIP3    H180576   2.146   3.248  17.017 -2.3558 -1.1907 -0.3293
19695TIP3    H280577   2.116   3.297  16.877  1.9216  0.6498 -0.7341
19696TIP3   OH280578   3.175   1.630  12.347  0.2371 -0.5576 -0.3653
19696TIP3    H180579   3.177   1.661  12.437 -1.8465  1.5059 -0.9200
19696TIP3    H280580   3.247   1.677  12.304  0.9354 -1.1867  0.0963
19697TIP3   OH280581   2.950   2.268   1.557 -0.6497  0.5969  0.3573
19697TIP3    H180582   2.985   2.322   1.486  0.7536 -0.9158 -0.1727
19697TIP3    H280583   2.859   2.295   1.566 -0.6210  1.4154 -1.4568
19698TIP3   OH280584   1.123   2.024   5.294  0.2207  0.0324  0.5702
19698TIP3    H180585   1.171   1.995   5.216 -0.0153 -0.8924  0.7625
19698TIP3    H280586   1.031   2.022   5.267  0.1392 -0.2711  0.8573
19699TIP3   OH280587   5.301   3.780  11.383  0.7007  0.0696  0.0038
19699TIP3    H180588   5.215   3.774  11.424  0.3944 -1.0462 -0.7735
19699TIP3    H280589   5.285   3.820  11.298  0.7660 -1.2489 -0.6409
19700TIP3   OH280590   3.406   2.969   5.045  0.0247 -1.2349  0.4224
19700TIP3    H180591   3.353   2.890   5.056 -1.8409  0.1758  2.3720
19700TIP3    H280592   3.418   3.003   5.134 -1.0512  1.7848 -0.4584
19701TIP3   OH280593   3.042   1.416   2.328 -0.8175  0.2170  0.1806
19701TIP3    H180594   2.974   1.358   2.363  0.6271 -1.6548  0.0055
19701TIP3    H280595   3.009   1.505   2.346 -2.1491 -0.6309  2.3131
19702TIP3   OH280596   4.338   5.785   4.245 -0.3736 -0.2968  0.2612
19702TIP3    H180597   4.401   5.856   4.253  0.3915 -0.8705 -0.4740
19702TIP3    H280598   4.270   5.805   4.310  0.0065  0.9028  0.3039
19703TIP3   OH280599   5.338   1.793  15.647 -0.0546 -0.2572  0.1248
19703TIP3    H180600   5.253   1.796  15.603  0.1576 -1.1850 -0.3968
19703TIP3    H280601   5.401   1.780  15.576  0.6286  1.3040  0.4126
19704TIP3   OH280602   1.823   5.677  11.917  0.7083  0.0306  0.2966
19704TIP3    H180603   1.805   5.636  12.001  2.0423 -2.0567 -0.3583
19704TIP3    H280604   1.881   5.616  11.872 -1.9996 -0.2764 -3.2355
19705TIP3   OH280605   1.915   0.963  15.913 -0.3808 -0.0658  0.1765
19705TIP3    H180606   1.854   0.899  15.948 -0.0626 -0.8309 -0.6332
19705TIP3    H280607   1.862   1.021  15.859 -0.4768 -0.4248 -0.1175
19706TIP3   OH280608   6.157   3.746  16.171 -0.4412 -0.5276 -0.1749
19706TIP3    H180609   6.226   3.749  16.238 -0.8446 -1.8346  0.3306
19706TIP3    H280610   6.094   3.682  16.205 -2.5758  1.5309 -0.0024
19707TIP3   OH280611   0.308   3.970   1.679 -0.1617 -0.4533 -0.3730
19707TIP3    H180612   0.224   3.924   1.683 -1.2338  1.2528 -1.7192
19707TIP3    H280613   0.334   3.980   1.770 -2.1739  0.2576  0.1784
19708TIP3   OH280614   4.501   3.575   1.504 -0.3426  0.4403  0.6040
19708TIP3    H180615   4.579   3.630   1.514 -1.0523  1.9742 -1.3744
19708TIP3    H280616   4.526   3.512   1.437 -1.2876  2.1864 -1.5375
19709TIP3   OH280617   4.904   4.765  11.605  0.4682 -0.2281 -0.0126
19709TIP3    H180618   4.889   4.851  11.646 -1.3965 -0.1040 -0.8933
19709TIP3    H280619   4.940   4.711  11.676 -0.1082  0.7408  1.0525
19710TIP3   OH280620   0.486   1.788   2.319 -0.0467 -0.1079  0.7233
19710TIP3    H180621   0.416   1.740   2.364  1.4440 -0.7124  2.5449
19710TIP3    H280622   0.558   1.790   2.382  0.3303  3.7826  0.4660
19711TIP3   OH280623   1.033   0.547   0.263  0.0514  0.0634 -0.2054
19711TIP3    H180624   1.016   0.473   0.321  0.5060 -2.0018 -2.5116
19711TIP3    H280625   0.948   0.566   0.223 -0.2580  1.4661  1.0187
19712TIP3   OH280626   4.993   3.458  12.709  0.1245  0.1218 -0.1860
19712TIP3    H180627   4.970   3.404  12.785 -0.6562 -0.5963 -0.9164
19712TIP3    H280628   5.087   3.470  12.716  0.0672  0.0623  0.8961
19713TIP3   OH280629   5.000   2.756   5.239 -0.2122 -0.8055 -0.3142
19713TIP3    H180630   5.006   2.738   5.146 -0.9183 -0.0024 -0.5301
19713TIP3    H280631   5.085   2.794   5.261 -0.4326  0.0704 -0.8979
19714TIP3   OH280632   3.553   4.701   2.029  0.4171 -0.5117 -0.2888
19714TIP3    H180633   3.586   4.724   1.942  0.3423  0.1410 -0.1449
19714TIP3    H280634   3.550   4.784   2.077 -1.0114 -0.5996 -0.1610
19715TIP3   OH280635   4.758   4.043   3.056  0.7987 -0.3993  0.3138
19715TIP3    H180636   4.752   4.031   3.151  1.9908 -0.8265  0.3480
19715TIP3    H280637   4.703   4.119   3.038 -0.5458 -1.1293  1.1587
19716TIP3   OH280638   5.602   2.874  15.011 -0.4023  0.9394  0.4542
19716TIP3    H180639   5.524   2.871  15.066 -0.0301 -0.7124  0.9467
19716TIP3    H280640   5.674   2.890  15.072  0.0149 -0.9343  0.5285
19717TIP3   OH280641   3.319   6.338  13.578  0.8056  0.3697 -0.3428
19717TIP3    H180642   3.281   6.252  13.595  0.4950  0.9938  2.6816
19717TIP3    H280643   3.324   6.344  13.483  0.6035 -2.8657 -0.6553
19718TIP3   OH280644   0.307   5.287  14.821  0.2310 -0.3550 -0.2033
19718TIP3    H180645   0.376   5.346  14.848 -0.8296  0.1907  1.4681
19718TIP3    H280646   0.336   5.200  14.850  0.2382 -0.1340  0.4606
19719TIP3   OH280647   1.041   0.015   1.905  0.7613 -0.4404  0.1828
19719TIP3    H180648   1.102   0.088   1.910  0.8593 -0.4499 -0.7256
19719TIP3    H280649   0.970   0.038   1.965 -0.5267  1.6583 -1.9942
19720TIP3   OH280650   6.127   6.352  11.096 -0.2581  0.4906 -0.0629
19720TIP3    H180651   6.180   6.392  11.027 -0.8320  0.4313 -0.5408
19720TIP3    H280652   6.185   6.288  11.137 -0.1290  0.0357 -0.9421
19721TIP3   OH280653   5.212   3.551   4.095 -0.6328 -0.1416 -0.3717
19721TIP3    H180654   5.202   3.637   4.136 -1.3689 -0.7884  0.8704
19721TIP3    H280655   5.305   3.532   4.101 -0.6988 -0.1623  0.9372
19722TIP3   OH280656   2.543   4.152  16.724  0.0500  1.0772  0.6668
19722TIP3    H180657   2.526   4.230  16.777 -0.1489  1.0796  0.6034
19722TIP3    H280658   2.479   4.158  16.652  0.4975  1.2154  0.2755
19723TIP3   OH280659   5.589   1.040   2.969  0.0392 -0.3845 -0.3764
19723TIP3    H180660   5.626   1.125   2.946  0.7756 -0.8102 -0.7946
19723TIP3    H280661   5.665   0.982   2.979 -0.1030 -0.1842  3.5797
19724TIP3   OH280662   4.239   4.522   5.469  0.1334 -0.2597  0.0950
19724TIP3    H180663   4.279   4.564   5.545 -2.0711 -0.3400  1.3950
19724TIP3    H280664   4.264   4.430   5.477  1.9277  0.1199 -0.6987
19725TIP3   OH280665   5.024   3.696   3.906  0.1625 -0.2549 -0.8715
19725TIP3    H180666   4.967   3.624   3.877 -0.0573 -0.3479 -0.2077
19725TIP3    H280667   5.058   3.667   3.990  1.2686 -0.2399 -1.2928
19726TIP3   OH280668   2.657   5.783   1.969  0.5440  0.1392 -0.2233
19726TIP3    H180669   2.590   5.729   1.928  0.7270 -1.4730  1.4265
19726TIP3    H280670   2.628   5.873   1.955  0.8232 -0.2168 -4.1031
19727TIP3   OH280671   0.446   2.030   0.224  0.3833  0.0279  0.0043
19727TIP3    H180672   0.455   2.051   0.317  1.4899  0.2448 -0.1379
19727TIP3    H280673   0.500   1.952   0.211  0.2794  0.0298 -0.4608
19728TIP3   OH280674   3.004   0.141  15.705  0.4490  0.4204  0.3372
19728TIP3    H180675   3.040   0.079  15.642 -0.6114 -0.6043  0.7057
19728TIP3    H280676   2.992   0.222  15.655 -0.6639 -0.4604 -0.8805
19729TIP3   OH280677   6.703   4.362  13.391 -0.1133 -0.0432 -0.0565
19729TIP3    H180678   6.642   4.355  13.318  1.7095  1.6251 -1.8592
19729TIP3    H280679   6.665   4.428  13.448 -1.0341 -0.5883 -0.0247
19730TIP3   OH280680   4.710   2.035  11.708 -0.2733  0.1723  0.1961
19730TIP3    H180681   4.791   2.052  11.660  0.5487  0.0623  1.5174
19730TIP3    H280682   4.642   2.032  11.639  1.1261 -1.9081 -1.1974
19731TIP3   OH280683   6.777   5.235  14.248  0.3789  0.4032  0.5146
19731TIP3    H180684   6.683   5.218  14.255  0.2578  1.5562  2.2477
19731TIP3    H280685   6.817   5.149  14.260 -0.4229  0.1828  1.8352
19732TIP3   OH280686   4.659   2.462   0.165  0.1401  0.1804 -0.5903
19732TIP3    H180687   4.722   2.523   0.203 -0.1841  0.1443  0.0200
19732TIP3    H280688   4.687   2.376   0.195 -1.0658  0.2887  0.9992
19733TIP3   OH280689   6.600   2.254  15.833 -0.1149 -0.2835 -0.2332
19733TIP3    H180690   6.674   2.305  15.866 -0.7063 -0.0157  0.7412
19733TIP3    H280691   6.583   2.290  15.746 -0.0512  0.7067  0.1461
19734TIP3   OH280692   0.417   2.761   5.216 -0.0996 -0.0849 -0.2192
19734TIP3    H180693   0.506   2.749   5.185  0.2242  0.4948  0.4460
19734TIP3    H280694   0.426   2.820   5.291 -0.8646 -1.3141  0.8858
19735TIP3   OH280695   5.079   4.059  14.738  0.4936 -0.6474 -0.1419
19735TIP3    H180696   4.988   4.088  14.750  0.6877  1.0447 -2.1176
19735TIP3    H280697   5.130   4.109  14.801  0.1182 -1.3549  0.7423
19736TIP3   OH280698   3.959   0.852  15.903 -0.4252  0.2545  0.5447
19736TIP3    H180699   4.003   0.897  15.975  0.5296 -2.2488  1.6587
19736TIP3    H280700   3.988   0.761  15.911 -1.8519 -0.4946 -1.8386
19737TIP3   OH280701   3.289   1.969   4.114 -0.0332 -0.5112  0.0793
19737TIP3    H180702   3.287   1.877   4.141 -0.3978 -1.2636 -2.2940
19737TIP3    H280703   3.380   1.984   4.086 -0.2053 -0.4578 -0.4633
19738TIP3   OH280704   6.527   4.280  11.882 -0.2166  0.1514 -0.0088
19738TIP3    H180705   6.591   4.350  11.868 -0.6287  0.6520  0.5372
19738TIP3    H280706   6.462   4.319  11.941 -1.3841 -0.1218 -1.0861
19739TIP3   OH280707   1.043   1.469  10.517 -0.2394 -0.0628  0.2749
19739TIP3    H180708   0.951   1.472  10.491 -0.3081 -1.0174  0.3742
19739TIP3    H280709   1.075   1.558  10.501 -0.7334 -0.1415 -1.3659
19740TIP3   OH280710   4.867   1.081  17.083 -0.1283  0.5516 -0.2641
19740TIP3    H180711   4.852   1.136  17.006  1.6860  1.5223  0.0236
19740TIP3    H280712   4.833   1.131  17.156 -1.2638 -0.0960 -0.3132
19741TIP3   OH280713   4.203   4.558   6.582 -0.3477  0.2475  0.5490
19741TIP3    H180714   4.228   4.485   6.525  2.5295 -0.6920  2.7858
19741TIP3    H280715   4.109   4.545   6.596 -0.3887 -1.6731 -0.9305
19742TIP3   OH280716   2.039   3.669   3.748 -0.6134  0.0999  0.0679
19742TIP3    H180717   2.013   3.620   3.669  0.3114 -0.6574  0.2084
19742TIP3    H280718   1.991   3.626   3.819  0.1389 -0.5837  0.1808
19743TIP3   OH280719   0.132   2.129  13.925  0.4349 -0.2985  0.2355
19743TIP3    H180720   0.083   2.090  13.997 -1.0828  2.1386  0.6551
19743TIP3    H280721   0.202   2.179  13.967 -0.9971  1.8750  0.2014
19744TIP3   OH280722   2.022   2.891  12.196  0.3406 -0.2461 -0.3872
19744TIP3    H180723   2.021   2.953  12.269  1.6805  0.3365 -0.8378
19744TIP3    H280724   2.035   2.945  12.119  0.0162 -0.9626 -0.9535
19745TIP3   OH280725   2.924   1.619  10.713  0.2303 -0.3966 -0.1782
19745TIP3    H180726   2.898   1.529  10.732 -0.9768  0.0616  0.4435
19745TIP3    H280727   2.933   1.660  10.799 -0.4253  0.3937 -0.4767
19746TIP3   OH280728   2.722   5.444   6.330 -0.7921  0.0318 -0.4610
19746TIP3    H180729   2.799   5.464   6.384 -2.7530  1.6075  2.0102
19746TIP3    H280730   2.694   5.529   6.296 -0.3192 -0.7921 -3.0708
19747TIP3   OH280731   1.957   4.373  10.941 -0.3020 -0.5427 -0.1917
19747TIP3    H180732   2.017   4.389  11.014 -0.9032  0.1908  0.1565
19747TIP3    H280733   1.965   4.450  10.886 -1.4310 -0.1198  0.2206
19748TIP3   OH280734   3.359   2.122   0.379  0.2673 -0.3616 -0.0266
19748TIP3    H180735   3.432   2.156   0.328 -1.4403 -0.7653 -3.0120
19748TIP3    H280736   3.376   2.028   0.386 -0.0701 -0.5074 -0.9953
19749TIP3   OH280737   0.027   5.729   3.560  0.6334 -0.1418 -0.0442
19749TIP3    H180738   0.013   5.796   3.627  1.2888 -0.7054  0.6762
19749TIP3    H280739   0.047   5.649   3.609  1.0950 -0.5773 -0.9072
19750TIP3   OH280740   3.120   3.829   3.875  1.1429 -0.3081  0.0863
19750TIP3    H180741   3.035   3.790   3.896  0.5692  1.0035  0.3342
19750TIP3    H280742   3.177   3.805   3.948  1.2603 -1.9497 -0.5151
19751TIP3   OH280743   2.826   2.489  14.350  0.5305  0.2689 -0.2973
19751TIP3    H180744   2.798   2.406  14.311  1.3377 -0.2901  0.2858
19751TIP3    H280745   2.895   2.465  14.412  0.5392  1.3394  0.1363
19752TIP3   OH280746   0.228   4.456   4.640  0.5343  0.0700 -0.0532
19752TIP3    H180747   0.307   4.461   4.586  1.1244 -0.8829  0.6861
19752TIP3    H280748   0.239   4.524   4.706  0.5406  0.2207 -0.2102
19753TIP3   OH280749   5.339   5.410  16.659 -0.0145 -0.7225 -0.6681
19753TIP3    H180750   5.426   5.446  16.643 -0.6769  1.0773 -0.4142
19753TIP3    H280751   5.293   5.419  16.576 -0.3780 -0.4321 -0.4385
19754TIP3   OH280752   4.473   5.851  15.778 -0.8061  0.0793 -0.0053
19754TIP3    H180753   4.547   5.799  15.811 -0.2400  0.5065 -0.5757
19754TIP3    H280754   4.513   5.933  15.749 -1.6508  0.7272  0.6193
19755TIP3   OH280755   2.377   0.043  11.261 -0.2965  0.0834  0.3026
19755TIP3    H180756   2.411   0.126  11.296 -0.4965  0.2181  0.1823
19755TIP3    H280757   2.412   0.039  11.172  3.4308 -2.1015  1.6618
19756TIP3   OH280758   2.573   2.163   2.506  0.2291 -0.1654 -0.1367
19756TIP3    H180759   2.516   2.141   2.432  1.1023 -2.2556 -0.2525
19756TIP3    H280760   2.518   2.151   2.583 -0.3139  0.7367 -0.3730
19757TIP3   OH280761   3.304   3.118   4.832 -0.0393  0.2756  0.0531
19757TIP3    H180762   3.336   3.075   4.912  1.1331  0.5771 -0.2269
19757TIP3    H280763   3.338   3.064   4.761  0.5648  1.0721 -0.2749
19758TIP3   OH280764   2.754   1.190   3.196 -0.0494 -0.6422 -0.1075
19758TIP3    H180765   2.762   1.101   3.160  1.0616 -0.4453 -0.3810
19758TIP3    H280766   2.844   1.217   3.212 -0.3428  0.6439 -0.5341
19759TIP3   OH280767   0.013   0.129   2.563  0.3510  0.3927 -0.0316
19759TIP3    H180768  -0.011   0.144   2.654  1.1296 -1.4849  0.5259
19759TIP3    H280769   0.063   0.207   2.538  0.0965  0.9512  1.1177
19760TIP3   OH280770   6.461   0.192  14.604 -0.0057  0.7558  0.3407
19760TIP3    H180771   6.494   0.179  14.516 -0.0873 -1.6780  0.6090
19760TIP3    H280772   6.376   0.235  14.592  0.3059  1.0970 -0.7060
19761TIP3   OH280773   3.300   4.532   6.343  0.1706 -0.1721 -0.4190
19761TIP3    H180774   3.275   4.478   6.268 -1.2709 -0.1782  0.0273
19761TIP3    H280775   3.223   4.587   6.359  1.4763  1.8447 -0.6862
19762TIP3   OH280776   4.298   1.466  15.519 -0.4570  0.1095  0.3858
19762TIP3    H180777   4.343   1.483  15.601 -0.9020  1.6695  0.3330
19762TIP3    H280778   4.286   1.552  15.480  0.1640 -0.6305 -1.5603
19763TIP3   OH280779   6.379   5.653  12.569  0.0366  0.6760  0.2949
19763TIP3    H180780   6.363   5.682  12.479  0.4007 -0.5438 -0.1867
19763TIP3    H280781   6.293   5.624  12.600 -0.1382  1.3332  0.4366
19764TIP3   OH280782   1.537   5.127  16.525  0.4338 -0.4685 -0.1879
19764TIP3    H180783   1.495   5.189  16.465  2.2942  1.4108  0.3301
19764TIP3    H280784   1.490   5.138  16.607  1.2021  0.8973  0.1118
19765TIP3   OH280785   5.839   5.953   3.981  0.5058 -0.1165 -0.3768
19765TIP3    H180786   5.804   5.901   4.054 -2.3492  1.2960 -0.6047
19765TIP3    H280787   5.928   5.974   4.007  0.3589 -1.6512  1.6009
19766TIP3   OH280788   4.228   2.945  12.920 -0.4359  0.3731  0.0763
19766TIP3    H180789   4.212   2.851  12.920 -1.5942  0.5550  1.0277
19766TIP3    H280790   4.311   2.955  12.873  0.0529 -1.1699  0.5708
19767TIP3   OH280791   3.365   5.747   5.147 -0.1116 -0.6434  0.3957
19767TIP3    H180792   3.399   5.763   5.235 -0.1940 -1.9574  0.6829
19767TIP3    H280793   3.378   5.653   5.133 -1.3832 -0.7133 -0.4487
19768TIP3   OH280794   3.862   3.544  11.806  0.1862  0.1323  0.0774
19768TIP3    H180795   3.859   3.481  11.879 -0.2165 -0.5125 -0.4826
19768TIP3    H280796   3.943   3.592  11.819  0.7459 -0.8293  0.2600
19769TIP3   OH280797   4.037   2.139   0.814  0.3799  0.1949  0.4671
19769TIP3    H180798   3.960   2.148   0.870  0.7474 -0.3444  1.0730
19769TIP3    H280799   4.028   2.052   0.774  1.1020 -0.2448  1.2235
19770TIP3   OH280800   1.343   2.022  12.138 -0.2527  0.2211 -0.4612
19770TIP3    H180801   1.306   2.049  12.054  2.7898 -0.7463 -2.3023
19770TIP3    H280802   1.319   1.929  12.146  0.6665 -0.0890 -1.0702
19771TIP3   OH280803   0.364   3.545  15.660  1.1146 -0.3790  0.4271
19771TIP3    H180804   0.352   3.626  15.611  0.9859  0.0849  1.2132
19771TIP3    H280805   0.334   3.476  15.601  0.6127  0.2030 -0.0038
19772TIP3   OH280806   5.631   1.788  13.930  0.4499  0.3500 -0.1652
19772TIP3    H180807   5.576   1.771  14.007  0.4437  0.3068 -0.1789
19772TIP3    H280808   5.644   1.701  13.891  0.0880  0.4214 -0.4603
19773TIP3   OH280809   0.992   3.085   5.488 -0.0387 -0.2661  0.5646
19773TIP3    H180810   1.028   3.157   5.437 -0.2659 -1.5087 -1.4392
19773TIP3    H280811   0.899   3.083   5.467 -0.2839 -0.3868  1.5748
19774TIP3   OH280812   4.892   3.916  14.560  0.1529 -0.6086  0.1958
19774TIP3    H180813   4.945   3.857  14.507 -1.1571 -1.4828 -0.1917
19774TIP3    H280814   4.921   4.004  14.536  0.1515 -1.0155 -1.3780
19775TIP3   OH280815   1.396   4.017  12.144  0.5781 -0.1429  0.2835
19775TIP3    H180816   1.301   4.027  12.141  0.7154  1.4336  0.6752
19775TIP3    H280817   1.430   4.106  12.152  2.0923 -0.6862  0.2404
19776TIP3   OH280818   3.857   3.107   1.927  0.2219  0.2030 -0.1949
19776TIP3    H180819   3.868   3.090   2.020 -0.3142  0.0374 -0.1564
19776TIP3    H280820   3.875   3.023   1.885 -1.4884 -0.2678 -0.0770
19777TIP3   OH280821   0.574   2.940   0.685  0.0860 -0.0396  0.0170
19777TIP3    H180822   0.488   2.978   0.701  0.7557  0.4512  2.9871
19777TIP3    H280823   0.575   2.860   0.738  0.4544 -1.7120 -2.3437
19778TIP3   OH280824   5.160   0.818  11.567 -0.1511 -0.5287  0.3018
19778TIP3    H180825   5.232   0.855  11.617 -0.2651 -0.3828  0.3600
19778TIP3    H280826   5.160   0.725  11.589  1.0672 -0.8615 -0.9714
19779TIP3   OH280827   4.161   1.948  14.270  0.3493 -0.1799  0.6017
19779TIP3    H180828   4.179   2.021  14.211 -0.4900 -0.9195 -0.6370
19779TIP3    H280829   4.185   1.980  14.357 -0.9135  1.9191  0.2453
19780TIP3   OH280830   4.589   5.500   5.233  0.3309  0.4970 -0.0559
19780TIP3    H180831   4.565   5.506   5.326  0.6174  0.1744  0.0420
19780TIP3    H280832   4.564   5.411   5.207  5.0606 -1.5075  1.1590
19781TIP3   OH280833   3.253   4.351  15.054  0.7649 -0.1265  0.5853
19781TIP3    H180834   3.159   4.368  15.059  1.0285  1.0504  2.7037
19781TIP3    H280835   3.284   4.402  14.980 -0.3507 -1.1158 -0.5994
19782TIP3   OH280836   5.573   0.172  10.995  0.3651 -0.1332 -0.2675
19782TIP3    H180837   5.491   0.206  11.029  0.0980 -1.3451  0.3521
19782TIP3    H280838   5.548   0.093  10.946  1.1899 -0.7556  0.2907
19783TIP3   OH280839   0.368   3.569   0.336 -0.5806 -0.1040 -0.0798
19783TIP3    H180840   0.396   3.631   0.268 -0.3147 -0.0335  0.0909
19783TIP3    H280841   0.425   3.493   0.323  1.5734  1.0332  1.9146
19784TIP3   OH280842   2.881   4.292  13.201 -0.2924  0.0944  0.2703
19784TIP3    H180843   2.930   4.264  13.277 -0.7218 -0.9382  0.1839
19784TIP3    H280844   2.947   4.329  13.142  0.2536 -0.4581  0.5239
19785TIP3   OH280845   5.546   0.068   0.448 -0.2759 -0.7544 -0.3472
19785TIP3    H180846   5.460   0.026   0.448  0.2792 -2.0537 -2.2957
19785TIP3    H280847   5.608  -0.004   0.447  0.7434  0.0721 -2.1574
19786TIP3   OH280848   1.059   1.216   5.502 -0.5730 -0.4294 -0.6579
19786TIP3    H180849   1.154   1.211   5.515 -0.6561 -0.2661  0.0449
19786TIP3    H280850   1.049   1.272   5.424 -0.0731 -1.1663 -1.2603
19787TIP3   OH280851   6.075   5.454  16.531 -0.1329 -0.6321 -0.5316
19787TIP3    H180852   6.045   5.478  16.619  0.4340 -0.4080 -0.3960
19787TIP3    H280853   6.169   5.472  16.532  0.2261 -2.2785 -0.6028
19788TIP3   OH280854   5.104   4.363  14.617 -0.0655  0.0005 -0.0366
19788TIP3    H180855   5.025   4.330  14.659 -0.3887 -1.8454 -1.8831
19788TIP3    H280856   5.175   4.335  14.675 -0.4492 -2.9883 -0.8313
19789TIP3   OH280857   2.429   2.791  15.704 -0.5794 -0.5207 -0.0214
19789TIP3    H180858   2.452   2.848  15.630 -2.0124 -1.3335 -1.1320
19789TIP3    H280859   2.382   2.848  15.765  1.4451  0.3878  0.7803
19790TIP3   OH280860   5.888   4.002   6.001 -0.2490  0.4922 -0.4127
19790TIP3    H180861   5.931   4.081   6.035  0.5279  0.2747 -0.8671
19790TIP3    H280862   5.878   4.019   5.907  1.0983 -0.4586 -0.7552
19791TIP3   OH280863   4.919   4.497   0.881 -0.0784 -0.2243  0.2488
19791TIP3    H180864   4.861   4.548   0.939 -2.6046 -1.0223 -1.4058
19791TIP3    H280865   4.946   4.422   0.934 -0.5841  0.1584  1.0659
19792TIP3   OH280866   6.191   2.263  14.792 -0.1454 -0.4583 -1.2626
19792TIP3    H180867   6.159   2.333  14.735  1.8259  2.0466  0.5087
19792TIP3    H280868   6.136   2.269  14.870  1.6195  0.9504 -0.0415
19793TIP3   OH280869   5.996   1.664  11.505 -0.1349 -0.2799  0.0501
19793TIP3    H180870   5.952   1.749  11.513  1.3898  0.4274  1.2670
19793TIP3    H280871   5.991   1.626  11.593  1.4726 -0.2711  0.1669
19794TIP3   OH280872   6.102   4.964   1.361  0.0069  0.3229  0.1130
19794TIP3    H180873   6.062   4.915   1.289 -0.2574 -0.0630  0.5179
19794TIP3    H280874   6.125   5.049   1.323  1.5437 -0.4959 -0.9357
19795TIP3   OH280875   1.434   3.795  15.939 -0.0284 -0.2937  0.3012
19795TIP3    H180876   1.399   3.712  15.971 -0.2286  0.6872  2.8260
19795TIP3    H280877   1.358   3.853  15.936  0.3378  0.1700 -0.1567
19796TIP3   OH280878   1.268   5.580  11.649 -0.1666  0.3824 -0.4855
19796TIP3    H180879   1.358   5.605  11.671  0.2352 -0.8427 -0.6165
19796TIP3    H280880   1.251   5.623  11.565  0.8586 -0.5631 -1.2053
19797TIP3   OH280881   4.545   4.592   3.755  0.0513 -0.0162  0.5380
19797TIP3    H180882   4.627   4.575   3.800  0.5517  0.6759 -0.0781
19797TIP3    H280883   4.553   4.682   3.724 -0.4643 -0.3122 -0.5082
19798TIP3   OH280884   0.681   1.801  11.520  0.1449  0.1122  0.2662
19798TIP3    H180885   0.699   1.846  11.437 -1.2243  0.6694  0.2580
19798TIP3    H280886   0.655   1.712  11.494 -0.3916  0.3202  0.0910
19799TIP3   OH280887   4.805   1.497   4.957 -0.2527  0.0832 -0.6404
19799TIP3    H180888   4.783   1.590   4.964  1.6442  0.6447 -1.7315
19799TIP3    H280889   4.739   1.462   4.897 -1.4302  0.5136  0.3311
19800TIP3   OH280890   4.686   3.559   0.021  0.4924 -0.6598 -0.6200
19800TIP3    H180891   4.727   3.579   0.105 -0.2864 -1.4000 -0.0373
19800TIP3    H280892   4.739   3.604  -0.044  2.6938 -2.2062 -0.0068
19801TIP3   OH280893   1.076   0.943  13.094 -0.2984  0.2064  0.1989
19801TIP3    H180894   1.054   1.007  13.162 -0.2882  0.6131 -0.1714
19801TIP3    H280895   1.048   0.985  13.013 -1.1482 -0.6590  0.0307
19802TIP3   OH280896   0.925   4.009   6.601  0.5612 -0.2680  0.0927
19802TIP3    H180897   0.963   4.015   6.514  1.4462 -1.1691  0.4016
19802TIP3    H280898   0.886   3.921   6.605 -2.2372  0.8315 -0.4571
19803TIP3   OH280899   2.007   6.777   5.004 -0.1459 -0.4587  0.1415
19803TIP3    H180900   2.046   6.704   4.955 -0.6718 -1.2687  0.8985
19803TIP3    H280901   1.940   6.736   5.058  0.2668  0.4429  1.3677
19804TIP3   OH280902   3.047   5.085  15.509  0.3907 -0.0467 -0.0737
19804TIP3    H180903   3.078   5.018  15.448  0.0181 -0.8122  0.5605
19804TIP3    H280904   3.036   5.039  15.592 -1.3095  0.4387  0.0117
19805TIP3   OH280905   3.422   6.765   3.310  0.1138  0.2400 -0.3092
19805TIP3    H180906   3.399   6.794   3.398 -1.0520 -1.4680  0.0179
19805TIP3    H280907   3.359   6.695   3.291  1.3933 -0.5654 -1.8340
19806TIP3   OH280908   1.128   1.234  16.178 -0.2313  0.1358  0.2544
19806TIP3    H180909   1.153   1.310  16.126  1.6923 -0.9434 -0.4789
19806TIP3    H280910   1.174   1.160  16.138  0.4124 -0.9488  2.7773
19807TIP3   OH280911   3.130   4.013   2.769 -0.2238 -0.0127 -0.2215
19807TIP3    H180912   3.194   4.084   2.765 -0.2909  0.2086  1.8972
19807TIP3    H280913   3.132   3.983   2.860 -0.2392 -2.7210 -1.0116
19808TIP3   OH280914   2.039   1.652  11.907 -0.7617  0.0652  0.0365
19808TIP3    H180915   1.955   1.698  11.904 -0.4459  0.7046  0.8161
19808TIP3    H280916   2.096   1.708  11.959  0.3778 -0.0214 -1.0581
19809TIP3   OH280917   4.262   6.099   3.721 -0.1641 -0.6324 -0.2210
19809TIP3    H180918   4.191   6.141   3.769 -0.9904 -2.1176 -0.0811
19809TIP3    H280919   4.340   6.114   3.775 -0.2524  1.4211 -0.6140
19810TIP3   OH280920   2.399   4.257   4.741  0.1197  0.3339 -0.0851
19810TIP3    H180921   2.370   4.277   4.651 -0.4942 -0.8965 -0.1812
19810TIP3    H280922   2.323   4.277   4.795 -0.1164 -0.5950 -0.0563
19811TIP3   OH280923   4.638   3.890  16.395  0.1314  0.4421  0.1474
19811TIP3    H180924   4.722   3.878  16.439  0.7198 -3.1999 -1.6146
19811TIP3    H280925   4.662   3.918  16.306 -0.4972 -0.3506 -0.2839
19812TIP3   OH280926   0.452   4.110   2.444 -0.3111  0.0638 -0.1179
19812TIP3    H180927   0.444   4.027   2.397 -0.8663 -0.4648  0.8954
19812TIP3    H280928   0.531   4.151   2.407 -1.0638 -0.0491 -1.9331
19813TIP3   OH280929   1.027   1.531   0.326 -0.3124  0.2880  0.2378
19813TIP3    H180930   1.074   1.458   0.366  0.0335  0.2901 -0.1490
19813TIP3    H280931   1.016   1.594   0.397  1.0128  0.6401  0.1661
19814TIP3   OH280932   6.452   1.455  12.252 -0.3190  0.6740 -0.0044
19814TIP3    H180933   6.501   1.536  12.265 -0.0415  0.5071  0.0007
19814TIP3    H280934   6.509   1.387  12.288 -0.0130  0.3334 -1.0852
19815TIP3   OH280935   5.232   6.317  13.908 -0.2935 -0.2873 -0.4575
19815TIP3    H180936   5.159   6.255  13.912 -1.4797  1.0846  0.5647
19815TIP3    H280937   5.235   6.356  13.995  3.7830 -2.5017  0.6689
19816TIP3   OH280938   4.679   0.487   2.943 -0.5319  0.3921 -0.0544
19816TIP3    H180939   4.709   0.553   3.006  2.1237  0.3295 -1.1163
19816TIP3    H280940   4.705   0.521   2.858 -1.0003 -1.0730 -0.8224
19817TIP3   OH280941   6.310   1.480  12.485  0.1352  0.0777  0.4392
19817TIP3    H180942   6.251   1.556  12.483 -0.2413 -0.2165  0.2563
19817TIP3    H280943   6.344   1.475  12.396  1.4795  1.0434  0.8577
19818TIP3   OH280944   1.961   3.862  16.849  0.3829  0.3818 -0.1426
19818TIP3    H180945   1.945   3.900  16.936  0.9692  0.4012 -0.0428
19818TIP3    H280946   2.014   3.784  16.866  0.5430  0.4151 -0.4852
19819TIP3   OH280947   6.620   5.745   5.334  0.1230 -0.5803  0.2570
19819TIP3    H180948   6.525   5.730   5.334  0.1683 -0.9267  1.1646
19819TIP3    H280949   6.633   5.815   5.269 -0.5572 -1.6231 -1.0453
19820TIP3   OH280950   3.995   1.472  16.799 -0.0063  0.2807 -0.1204
19820TIP3    H180951   4.042   1.396  16.832  1.7086  0.1051 -2.6539
19820TIP3    H280952   4.037   1.547  16.841  1.4537  0.0199 -1.0268
19821TIP3   OH280953   4.948   4.738   0.715  0.1032  0.3032 -0.2465
19821TIP3    H180954   4.974   4.781   0.634 -1.7421 -0.4087 -1.2750
19821TIP3    H280955   4.970   4.646   0.702 -0.5324  0.1254 -0.1046
19822TIP3   OH280956   4.361   2.004  13.464 -0.4200  0.4250  0.2512
19822TIP3    H180957   4.353   2.098  13.448 -1.9031  0.0016 -2.0577
19822TIP3    H280958   4.349   1.964  13.377  1.3148 -1.8595  0.9658
19823TIP3   OH280959   6.176   3.770  17.189  0.1996 -0.9543 -0.2636
19823TIP3    H180960   6.081   3.775  17.173  0.2006  0.6951  0.0305
19823TIP3    H280961   6.184   3.754  17.283  0.1957 -0.5397 -0.1890
19824TIP3   OH280962   6.068   5.783   2.363 -0.3115  0.1487 -0.0703
19824TIP3    H180963   6.055   5.753   2.273 -0.4269 -0.0733  0.0185
19824TIP3    H280964   6.120   5.714   2.404  1.0793  0.9678 -0.3874
19825TIP3   OH280965   3.754   1.497  16.163  0.0150  0.5304 -0.6605
19825TIP3    H180966   3.736   1.526  16.074  0.6474  1.6625 -0.4506
19825TIP3    H280967   3.691   1.544  16.217 -1.9562 -1.9233 -0.6705
19826TIP3   OH280968   1.080   4.035   3.560  0.0488  0.6832  0.1583
19826TIP3    H180969   1.052   4.055   3.471  1.4177 -1.4466 -0.8443
19826TIP3    H280970   1.030   3.956   3.583  2.1037 -0.7563 -0.0902
19827TIP3   OH280971   1.172   4.333  17.210 -0.6213 -0.6029 -0.3845
19827TIP3    H180972   1.218   4.399  17.261 -3.6088  1.0860  0.3238
19827TIP3    H280973   1.197   4.250  17.250  1.4565  0.2117  0.1467
19828TIP3   OH280974   3.508   4.746   4.661  0.2827  0.1515 -0.4219
19828TIP3    H180975   3.510   4.708   4.749 -0.5947  1.1333  0.0391
19828TIP3    H280976   3.475   4.675   4.606  0.9054 -0.4955  0.0217
19829TIP3   OH280977   5.077   5.762  13.025  0.0219 -0.0390 -1.2012
19829TIP3    H180978   5.091   5.777  12.932  0.3633  2.3852 -0.8271
19829TIP3    H280979   5.010   5.826  13.050  1.4427  0.8526  0.6076
19830TIP3   OH280980   3.526   5.313  12.520  0.4296 -0.2889 -0.5002
19830TIP3    H180981   3.597   5.305  12.583  1.1040  0.3172 -1.1629
19830TIP3    H280982   3.516   5.225  12.483  0.4590 -0.5014 -0.0026
19831TIP3   OH280983   6.670   4.212  16.350  0.0896 -0.5027  0.2642
19831TIP3    H180984   6.731   4.245  16.284 -0.5269 -0.2782 -0.2048
19831TIP3    H280985   6.678   4.273  16.423 -0.1317 -0.0297 -0.1019
19832TIP3   OH280986   5.139   1.569  15.286  0.2389 -0.0878 -0.2779
19832TIP3    H180987   5.148   1.542  15.377  3.1587  0.7034 -0.2080
19832TIP3    H280988   5.070   1.635  15.287  0.8439  0.5794  1.5569
19833TIP3   OH280989   4.542   2.878   1.622  0.2037 -0.1243 -0.2489
19833TIP3    H180990   4.552   2.933   1.544  0.7215  0.9148  0.5309
19833TIP3    H280991   4.605   2.913   1.685 -0.3781 -0.7908  0.7306
19834TIP3   OH280992   0.021   4.642   1.909 -0.0833 -0.0462  0.0146
19834TIP3    H180993   0.020   4.722   1.857  1.2254 -1.2304 -1.9653
19834TIP3    H280994   0.094   4.653   1.969 -2.4931  1.9677  2.8916
19835TIP3   OH280995   2.250   0.255  15.358 -0.1353  0.3618 -0.5131
19835TIP3    H180996   2.206   0.327  15.313  1.7301  1.5688 -0.5219
19835TIP3    H280997   2.342   0.282  15.362  0.0059 -0.1363  3.1123
19836TIP3   OH280998   0.755   4.343   3.988  0.2237 -0.0988 -0.6546
19836TIP3    H180999   0.839   4.303   3.967 -0.2063 -1.0490 -0.6121
19836TIP3    H281000   0.691   4.274   3.971 -0.5718  0.6899 -0.9181
19837TIP3   OH281001   0.431   3.300  15.813  0.1438  0.5399 -0.1723
19837TIP3    H181002   0.382   3.376  15.782 -1.1851 -0.6207 -1.0138
19837TIP3    H281003   0.507   3.338  15.858 -0.3540  2.3503 -0.7576
19838TIP3   OH281004   5.468   4.449   1.723  0.0916 -0.6979 -0.0712
19838TIP3    H181005   5.403   4.404   1.670  0.6178 -0.4942 -0.9073
19838TIP3    H281006   5.551   4.409   1.698  0.4192 -0.1386  0.1035
19839TIP3   OH281007   2.629   4.365  15.732  0.1758  0.3982 -0.4737
19839TIP3    H181008   2.567   4.430  15.700  0.3417  0.6108 -0.3681
19839TIP3    H281009   2.670   4.329  15.653 -0.2929  0.0411 -0.5596
19840TIP3   OH281010   0.523   0.385   5.490  0.0459 -0.5078  0.3073
19840TIP3    H181011   0.476   0.323   5.433  0.9332 -0.9519  0.0378
19840TIP3    H281012   0.512   0.470   5.448 -0.4260 -0.6228  0.1917
19841TIP3   OH281013   0.185   1.076  17.246 -0.3963 -0.5494 -0.4095
19841TIP3    H181014   0.106   1.034  17.214  0.0776 -0.9268 -1.1146
19841TIP3    H281015   0.176   1.168  17.220 -1.7837  0.0004  1.8046
19842TIP3   OH281016   1.792   2.155  12.578 -0.5794  0.3149 -0.1922
19842TIP3    H181017   1.821   2.246  12.578  0.4589 -0.0004 -0.8430
19842TIP3    H281018   1.806   2.125  12.488  3.2535 -1.7180  0.8823
19843TIP3   OH281019   5.174   0.841   5.505  0.1259 -0.3423 -0.1045
19843TIP3    H181020   5.143   0.753   5.529  0.9445 -0.7539 -0.5179
19843TIP3    H281021   5.255   0.825   5.457  0.8549  0.6919  0.7435
19844TIP3   OH281022   5.704   4.813  13.202 -0.5170  0.4170 -0.3673
19844TIP3    H181023   5.729   4.889  13.149  0.3679 -1.3962 -2.6767
19844TIP3    H281024   5.786   4.784  13.242 -0.5470 -0.2319 -0.7650
19845TIP3   OH281025   3.993   5.086   4.621 -0.2057 -0.2542  0.2737
19845TIP3    H181026   3.973   4.993   4.624  0.9161 -0.4827  0.8787
19845TIP3    H281027   3.965   5.114   4.534 -1.3888 -0.9462  0.4129
19846TIP3   OH281028   1.377   2.322   3.811  0.2515  0.2338 -0.1298
19846TIP3    H181029   1.438   2.262   3.855 -0.5029 -0.0741  0.5349
19846TIP3    H281030   1.420   2.344   3.729  1.2607  0.0309  0.3250
19847TIP3   OH281031   0.124   5.112   0.068  0.1005  0.0329 -1.0796
19847TIP3    H181032   0.170   5.080   0.146 -0.1581  1.1798 -0.4229
19847TIP3    H281033   0.034   5.126   0.098  0.0007  0.4860 -1.5874
19848TIP3   OH281034   0.853   1.919   5.235 -0.5872 -0.0026 -0.1889
19848TIP3    H181035   0.907   1.912   5.157 -1.4771  1.6757 -1.0191
19848TIP3    H281036   0.763   1.922   5.202 -1.0486 -0.2290  0.9779
19849TIP3   OH281037   2.896   1.442   0.275 -0.4474 -0.1205 -0.0383
19849TIP3    H181038   2.841   1.469   0.348 -0.5886  2.7351 -1.0728
19849TIP3    H281039   2.882   1.348   0.267 -1.7359 -0.2102  2.4894
19850TIP3   OH281040   4.949   1.278  13.759  0.2646 -0.0986  0.4259
19850TIP3    H181041   4.916   1.225  13.831 -0.5974 -1.0891 -0.6482
19850TIP3    H281042   4.968   1.363  13.798 -0.3118 -0.5649  1.7801
19851TIP3   OH281043   6.325   5.990  15.479  0.6079  0.1915  0.4968
19851TIP3    H181044   6.304   5.928  15.409  0.9537 -0.4641  0.9654
19851TIP3    H281045   6.240   6.017  15.514  0.4273  0.6645 -0.2894
19852TIP3   OH281046   3.960   5.773   1.389  0.0041  0.1140 -0.3827
19852TIP3    H181047   3.995   5.860   1.408  2.0952 -1.0143  1.2394
19852TIP3    H281048   3.868   5.789   1.365 -0.6264  2.5319  2.9112
19853TIP3   OH281049   5.296   3.822   4.973 -0.3475 -0.3162 -0.4631
19853TIP3    H181050   5.289   3.913   4.943  1.3657  0.4996  1.3871
19853TIP3    H281051   5.276   3.826   5.066 -0.6489 -1.9242 -0.4363
19854TIP3   OH281052   5.394   3.298  15.968  0.4063  0.4646 -0.2441
19854TIP3    H181053   5.355   3.369  15.915  0.8536  1.5311  0.8052
19854TIP3    H281054   5.329   3.228  15.964 -0.7728  1.4951 -0.0993
19855TIP3   OH281055   6.709   0.843   1.732  0.1998 -0.5381 -0.0351
19855TIP3    H181056   6.774   0.893   1.682 -0.0223 -1.1400 -0.9568
19855TIP3    H281057   6.689   0.898   1.808  1.6228 -0.2562  0.1562
19856TIP3   OH281058   0.643   5.067  14.680 -0.0945  0.3010  0.1759
19856TIP3    H181059   0.730   5.048  14.714 -1.1196  0.2330  3.0494
19856TIP3    H281060   0.627   5.158  14.704  0.2304  1.2736 -2.9466
19857TIP3   OH281061   3.707   1.469  16.834 -0.0474 -0.1781 -0.0960
19857TIP3    H181062   3.798   1.496  16.826 -0.5334  1.6148  0.0526
19857TIP3    H281063   3.711   1.375  16.851  1.8531  0.1239  1.4824
19858TIP3   OH281064   4.318   0.326  14.946  0.5485  0.0242  0.2086
19858TIP3    H181065   4.356   0.401  14.993 -1.2137  1.1311 -0.0128
19858TIP3    H281066   4.263   0.366  14.878  1.1947 -1.5236 -1.2905
19859TIP3   OH281067   2.496   1.849   2.645 -0.1977 -0.5882  0.1605
19859TIP3    H181068   2.523   1.767   2.605  0.6913 -0.6586  0.8551
19859TIP3    H281069   2.400   1.846   2.646 -0.1767 -1.9902  0.9037
19860TIP3   OH281070   6.735   3.214  14.618 -0.2120  0.1480 -0.2635
19860TIP3    H181071   6.690   3.150  14.673 -0.4652  0.6314  0.1080
19860TIP3    H281072   6.698   3.202  14.531  1.5376 -1.9358 -0.8220
19861TIP3   OH281073   0.918   6.091  11.348  0.3955  0.1691 -0.1849
19861TIP3    H181074   0.880   6.165  11.301 -0.0998 -0.8828 -1.5318
19861TIP3    H281075   0.902   6.016  11.290  2.4642 -0.7026  0.2664
19862TIP3   OH281076   6.796   6.762   5.902 -0.4046 -0.2283 -0.3599
19862TIP3    H181077   6.873   6.747   5.847 -1.7010  0.8591 -2.6264
19862TIP3    H281078   6.756   6.676   5.912 -0.2204 -0.4282 -1.2822
19863TIP3   OH281079   1.114   4.068  12.067  0.3817  0.0132  0.3540
19863TIP3    H181080   1.045   4.027  12.015 -0.1803  0.9866  0.2952
19863TIP3    H281081   1.067   4.125  12.128  1.1420  1.1677 -0.1010
19864TIP3   OH281082   4.952   3.252   1.282  0.0826  0.5087  0.4361
19864TIP3    H181083   4.860   3.231   1.300  0.0706  0.6432  0.5326
19864TIP3    H281084   4.948   3.318   1.212  0.1163  0.2863  0.2210
19865TIP3   OH281085   4.615   2.439  12.423  0.1916  0.6799 -0.2529
19865TIP3    H181086   4.563   2.472  12.496  0.9478  0.8019  0.2489
19865TIP3    H281087   4.594   2.345  12.419 -0.8280  0.9133 -0.7244
19866TIP3   OH281088   5.284   0.824   2.561 -0.1523  0.3665 -0.7798
19866TIP3    H181089   5.238   0.743   2.582  0.3078  0.3754  0.2975
19866TIP3    H281090   5.350   0.833   2.629  0.0523  1.4564 -1.1040
19867TIP3   OH281091   6.409   4.147   4.443  0.3492 -0.0308  0.0455
19867TIP3    H181092   6.478   4.170   4.380 -1.1339  0.8799 -1.3440
19867TIP3    H281093   6.435   4.192   4.523  0.9444  1.0325 -0.7050
19868TIP3   OH281094   3.010   0.119   6.658 -0.1504  0.0115  0.0030
19868TIP3    H181095   2.981   0.207   6.634  0.6168  0.5215  0.8707
19868TIP3    H281096   3.096   0.109   6.616  0.0071 -0.1033  0.3417
19869TIP3   OH281097   3.010   0.782  14.506  0.3409  0.1018 -0.6896
19869TIP3    H181098   3.018   0.874  14.532 -1.0605  0.4641 -1.4179
19869TIP3    H281099   3.099   0.755  14.485  0.9968  0.8288  0.9938
19870TIP3   OH281100   3.710   5.891   0.145 -0.3236 -0.0686  0.0633
19870TIP3    H181101   3.670   5.950   0.080 -0.9629 -1.3112 -0.7140
19870TIP3    H281102   3.787   5.939   0.176 -0.0772  0.6526 -1.5117
19871TIP3   OH281103   6.168   5.833   4.594 -0.3552  0.4066 -0.2225
19871TIP3    H181104   6.151   5.839   4.688 -1.0148 -0.0155 -0.3107
19871TIP3    H281105   6.208   5.917   4.571 -1.4420  1.0436  0.1785
19872TIP3   OH281106   5.078   5.111   3.693 -0.3213  0.1221 -0.1365
19872TIP3    H181107   5.008   5.051   3.717  1.6210 -1.8063  1.0581
19872TIP3    H281108   5.137   5.058   3.639  0.8004  1.3334 -0.1344
19873TIP3   OH281109   6.506   3.529   1.656  0.0441  0.1855 -0.9424
19873TIP3    H181110   6.514   3.614   1.698 -1.0870 -0.2457  0.1759
19873TIP3    H281111   6.508   3.549   1.562 -0.6169  1.4880 -0.7044
19874TIP3   OH281112   6.237   6.745   1.226  0.2348  0.4849 -0.2815
19874TIP3    H181113   6.276   6.830   1.207  1.3030  0.2375  0.6658
19874TIP3    H281114   6.256   6.691   1.149 -0.1252  0.9826 -0.7263
19875TIP3   OH281115   2.493   3.221  13.853  0.1838 -0.2787  0.0313
19875TIP3    H181116   2.562   3.280  13.822  0.4433 -0.4771  0.2261
19875TIP3    H281117   2.522   3.193  13.940 -0.1329 -0.3790  0.1072
19876TIP3   OH281118   2.394   5.383  13.417  0.0794 -0.0011  0.3593
19876TIP3    H181119   2.307   5.402  13.450  0.6681  2.4632  0.6741
19876TIP3    H281120   2.409   5.447  13.348  2.0941  0.4841  1.1583
19877TIP3   OH281121   6.714   4.972  13.721 -0.1951  0.2553  0.9609
19877TIP3    H181122   6.767   4.935  13.650 -1.2373 -0.2990  0.4462
19877TIP3    H281123   6.759   5.054  13.744 -0.0627  0.6830 -0.6481
19878TIP3   OH281124   4.526   5.373   6.221 -0.2723 -0.0062  0.2565
19878TIP3    H181125   4.579   5.309   6.174  0.1661 -0.0933  0.8718
19878TIP3    H281126   4.452   5.323   6.255 -1.0491  0.2071 -1.0378
19879TIP3   OH281127   5.475   1.916   2.592  0.1854  0.0600 -0.1901
19879TIP3    H181128   5.510   1.924   2.681 -2.2592  1.0660  0.7869
19879TIP3    H281129   5.491   2.001   2.552  2.8321 -0.9287 -1.4191
19880TIP3   OH281130   6.328   2.927   5.279 -0.6304  0.1792 -0.1042
19880TIP3    H181131   6.241   2.895   5.303 -0.9220  1.0173  0.0083
19880TIP3    H281132   6.342   2.895   5.190 -0.7605 -0.5279  0.1226
19881TIP3   OH281133   0.010   0.433  12.810  0.2174 -0.2308 -0.0742
19881TIP3    H181134   0.054   0.367  12.864  0.5465  0.6077  0.7101
19881TIP3    H281135  -0.055   0.473  12.869  0.1346  0.2546 -0.4839
19882TIP3   OH281136   1.896   4.795   1.068  0.1266  0.2062 -0.1385
19882TIP3    H181137   1.852   4.718   1.104 -0.4040  1.0490  1.0824
19882TIP3    H281138   1.979   4.799   1.116  0.3227  0.1823 -0.4734
19883TIP3   OH281139   4.531   6.220  13.169  0.4203  0.1237 -0.6511
19883TIP3    H181140   4.625   6.235  13.177  0.2653  1.1510 -0.5221
19883TIP3    H281141   4.518   6.194  13.078  1.0242 -1.8010 -0.2268
19884TIP3   OH281142   0.321   1.026  14.244  0.0285  0.3585  0.5589
19884TIP3    H181143   0.314   1.062  14.156  0.3195  0.0016  0.3879
19884TIP3    H281144   0.234   0.989  14.262  0.2045 -0.2943  0.0986
19885TIP3   OH281145   3.881   3.199  11.180  0.4989 -0.0963 -0.5167
19885TIP3    H181146   3.814   3.242  11.233  0.3750 -1.0513  0.1185
19885TIP3    H281147   3.884   3.250  11.099  2.8454  3.3913  1.4942
19886TIP3   OH281148   0.604   1.366   1.283  0.1616 -0.3915 -0.0692
19886TIP3    H181149   0.639   1.278   1.293  1.0377  0.0921  1.4440
19886TIP3    H281150   0.610   1.404   1.371 -1.7871  0.6062 -0.3157
19887TIP3   OH281151   4.920   0.414  11.932 -0.3032 -0.4358  0.6202
19887TIP3    H181152   4.922   0.328  11.891  0.2082 -0.6602  1.0964
19887TIP3    H281153   4.862   0.403  12.008 -1.1159 -0.0658  0.0788
19888TIP3   OH281154   2.157   1.101   0.154  0.1047  0.4975 -0.3438
19888TIP3    H181155   2.248   1.077   0.137  0.7708  3.1568 -0.9027
19888TIP3    H281156   2.113   1.090   0.070  0.0671 -0.0613 -0.2554
19889TIP3   OH281157   3.985   4.180   2.505 -0.2748  0.2421 -0.0235
19889TIP3    H181158   4.061   4.238   2.516  1.7658 -2.4033  1.1727
19889TIP3    H281159   4.006   4.128   2.427 -1.3026  0.0407 -0.1813
19890TIP3   OH281160   4.122   0.953   1.595 -0.0129 -0.1713  0.3618
19890TIP3    H181161   4.216   0.934   1.590 -0.1502 -1.1850  1.1088
19890TIP3    H281162   4.114   1.044   1.569  1.1199 -0.2260 -0.2274
19891TIP3   OH281163   0.004   1.327  14.449  0.6519 -0.0626 -0.2437
19891TIP3    H181164  -0.078   1.339  14.498  2.0094  1.5346  1.8431
19891TIP3    H281165   0.028   1.236  14.466 -0.0060 -0.1509  0.2924
19892TIP3   OH281166   5.379   3.210  15.098 -0.4490  0.1697  0.2815
19892TIP3    H181167   5.444   3.187  15.032  1.9042 -1.6286  3.0285
19892TIP3    H281168   5.325   3.131  15.107 -0.7168  0.3843  0.5849
19893TIP3   OH281169   4.832   1.218  10.772 -0.6560  0.5252 -0.7952
19893TIP3    H181170   4.770   1.234  10.843  0.3688  0.8083  0.0607
19893TIP3    H281171   4.837   1.302  10.726 -0.1250  0.8101 -0.2257
19894TIP3   OH281172   3.981   4.769   3.495  0.1663  0.4487  0.1751
19894TIP3    H181173   3.907   4.793   3.551  1.1966 -0.4774  2.0513
19894TIP3    H281174   3.941   4.726   3.419 -1.2034 -0.6599  1.4672
19895TIP3   OH281175   6.747   5.502  16.665 -0.3345  0.5805 -0.3882
19895TIP3    H181176   6.824   5.557  16.650  0.5939 -1.0610 -2.1542
19895TIP3    H281177   6.683   5.531  16.600  1.2037 -2.0806 -3.4098
19896TIP3   OH281178   6.540   5.984   2.981 -0.0603  0.0451 -0.2634
19896TIP3    H181179   6.493   5.928   3.042 -0.6142 -2.0670 -2.4757
19896TIP3    H281180   6.587   6.046   3.037  0.3635 -2.4182  2.3272
19897TIP3   OH281181   2.852   3.599   2.540 -0.4710  0.1549 -0.1843
19897TIP3    H181182   2.894   3.599   2.454 -0.5376 -1.4873 -0.2467
19897TIP3    H281183   2.864   3.510   2.572 -2.9068 -0.0672  0.3000
19898TIP3   OH281184   1.390   5.785  16.070 -0.0474 -0.2395 -0.4494
19898TIP3    H181185   1.459   5.741  16.022  1.4988 -0.6731  2.0037
19898TIP3    H281186   1.427   5.869  16.095 -0.8673  0.0549 -0.1637
19899TIP3   OH281187   3.183   6.776  13.500 -0.6157 -0.7437 -0.1749
19899TIP3    H181188   3.149   6.721  13.571 -1.0379  0.1078  0.3028
19899TIP3    H281189   3.167   6.865  13.530  0.6914 -0.3398 -0.6252
19900TIP3   OH281190   3.549   4.585   3.390  0.3279 -0.4537 -1.3565
19900TIP3    H181191   3.512   4.673   3.381  1.7241  0.2538 -0.6209
19900TIP3    H281192   3.473   4.528   3.404 -0.6248  0.5694 -2.1865
19901TIP3   OH281193   0.207   3.674  12.929  0.0963  0.2507  0.1517
19901TIP3    H181194   0.256   3.661  13.010  0.1489 -0.1494  0.0540
19901TIP3    H281195   0.245   3.613  12.867 -0.7676 -0.3309  0.1758
19902TIP3   OH281196   1.949   6.509  15.478 -0.5484  0.0612 -0.6818
19902TIP3    H181197   2.040   6.479  15.476 -0.4369  0.3584 -0.2492
19902TIP3    H281198   1.929   6.531  15.387 -0.4549 -0.7939 -0.9117
19903TIP3   OH281199   5.376   2.506   3.999  0.4084 -0.1633  0.1755
19903TIP3    H181200   5.321   2.428   3.996  0.8455 -0.4441 -0.7073
19903TIP3    H281201   5.375   2.540   3.910  0.9161  0.3565  0.3602
19904TIP3   OH281202   4.552   4.540   3.006 -0.0065 -0.0675 -0.1681
19904TIP3    H181203   4.645   4.552   2.988 -0.1150  2.5698  0.6751
19904TIP3    H281204   4.509   4.612   2.961 -1.4216 -0.0413  1.1460
19905TIP3   OH281205   6.702   0.096   0.408  0.0242  0.3540 -0.4401
19905TIP3    H181206   6.679   0.099   0.315 -1.5257  1.0304 -0.0633
19905TIP3    H281207   6.787   0.139   0.413  1.2714 -1.7468 -1.8189
19906TIP3   OH281208   1.863   2.517   3.311  0.3179 -0.0819  0.0212
19906TIP3    H181209   1.903   2.487   3.393  1.6843  1.7235  0.0832
19906TIP3    H281210   1.853   2.438   3.259 -0.1754 -1.2122  1.7608
19907TIP3   OH281211   4.011   3.993   2.313  0.0022  0.7670  0.3465
19907TIP3    H181212   3.964   3.953   2.240  0.7816  0.6272 -0.0905
19907TIP3    H281213   3.980   3.947   2.391  0.5861 -0.4115 -0.1033
19908TIP3   OH281214   1.221   2.688  12.790 -0.1053 -0.5204  0.2945
19908TIP3    H181215   1.153   2.684  12.857  0.6081 -1.0572  0.9955
19908TIP3    H281216   1.243   2.781  12.783 -0.6615 -0.3858  0.3033
19909TIP3   OH281217   2.632   5.261  10.569  0.3338  0.1388  0.1349
19909TIP3    H181218   2.656   5.352  10.548  2.1618 -0.4973 -0.7852
19909TIP3    H281219   2.706   5.209  10.536 -1.6314 -1.8804 -1.3714
19910TIP3   OH281220   4.852   5.933  13.524  0.0043  0.2920 -0.5948
19910TIP3    H181221   4.796   6.010  13.538 -0.1768 -0.0893  0.9618
19910TIP3    H281222   4.930   5.950  13.577 -0.7154 -1.2450  1.0936
19911TIP3   OH281223   6.645   0.186  13.796 -0.0261 -1.0703 -0.2325
19911TIP3    H181224   6.641   0.169  13.890 -2.1964  0.0639 -0.0497
19911TIP3    H281225   6.553   0.187  13.768  0.4080  1.3281 -1.8359
19912TIP3   OH281226   6.404   0.571   5.345 -0.0942  0.1866 -0.3837
19912TIP3    H181227   6.414   0.591   5.252  0.2259  0.3217 -0.3226
19912TIP3    H281228   6.340   0.635   5.376  0.3054  0.5836 -0.3680
19913TIP3   OH281229   1.437   0.990  10.555  0.1262  0.3036  0.0341
19913TIP3    H181230   1.369   1.052  10.530  0.7155  0.4236 -1.3437
19913TIP3    H281231   1.492   0.982  10.477  0.5771 -1.2643  0.4725
19914TIP3   OH281232   4.231   3.079   2.736 -0.6953 -0.6476  0.4048
19914TIP3    H181233   4.270   3.165   2.730 -1.7412  0.0518  2.4553
19914TIP3    H281234   4.284   3.024   2.679  0.0027  1.3221 -0.9415
19915TIP3   OH281235   5.193   0.279  13.878 -0.4003  0.4488  0.1758
19915TIP3    H181236   5.195   0.260  13.784  2.0785  1.9393 -0.1806
19915TIP3    H281237   5.103   0.263  13.904 -1.5141  1.2689 -2.7471
19916TIP3   OH281238   0.682   4.532  13.042  0.2626  0.2362 -0.4460
19916TIP3    H181239   0.595   4.494  13.034  0.0724  0.4737  0.3706
19916TIP3    H281240   0.666   4.626  13.052  0.5702  0.2047  0.4039
19917TIP3   OH281241   5.751   0.552   1.660  0.0128  0.6319 -0.1435
19917TIP3    H181242   5.779   0.555   1.752 -0.9528  1.5138  0.1358
19917TIP3    H281243   5.711   0.637   1.644 -1.3361 -0.1041 -0.8920
19918TIP3   OH281244   3.647   0.398   0.656 -0.0349 -0.3075  0.3413
19918TIP3    H181245   3.710   0.384   0.585  0.2022 -0.6750  0.6179
19918TIP3    H281246   3.563   0.412   0.612  0.0259 -0.9716 -0.0076
19919TIP3   OH281247   6.653   0.250   6.269 -0.2249  0.3497 -0.0422
19919TIP3    H181248   6.648   0.344   6.256  2.4880  0.4278 -1.1445
19919TIP3    H281249   6.646   0.239   6.364  0.8144  1.8301  0.2429
19920TIP3   OH281250   5.140   3.312  12.440 -0.0774  0.2836 -0.4900
19920TIP3    H181251   5.103   3.232  12.476 -0.9146  1.7447  2.2704
19920TIP3    H281252   5.226   3.320  12.482  0.1619  0.6345 -1.0359
19921TIP3   OH281253   6.732   1.414   0.460 -0.4957  0.3022 -0.9150
19921TIP3    H181254   6.705   1.323   0.471  0.1306 -0.0218 -1.9679
19921TIP3    H281255   6.676   1.463   0.520 -0.7376 -0.7894 -0.2197
19922TIP3   OH281256   4.375   6.197  12.414  0.3189 -0.3813  0.1622
19922TIP3    H181257   4.318   6.269  12.442  2.5435  2.4549 -2.0486
19922TIP3    H281258   4.341   6.173  12.328 -0.1757 -1.8305  0.7314
19923TIP3   OH281259   5.547   4.961   5.853 -0.2423  0.1349  0.0549
19923TIP3    H181260   5.597   5.033   5.893  1.2960 -0.0741 -1.3643
19923TIP3    H281261   5.607   4.887   5.856 -1.3782 -0.7783  0.4393
19924TIP3   OH281262   3.068   6.378  14.459  0.0553 -0.0487 -0.4410
19924TIP3    H181263   3.117   6.452  14.495  0.3940 -0.8037  0.7317
19924TIP3    H281264   2.978   6.408  14.455  0.3880  0.8892 -1.3044
19925TIP3   OH281265   3.350   3.288  14.084 -0.3646 -0.4006  0.5941
19925TIP3    H181266   3.315   3.351  14.147 -0.6647 -1.0289  1.0679
19925TIP3    H281267   3.412   3.236  14.134  0.5375  0.0683 -0.0068
19926TIP3   OH281268   6.068   4.076   4.892 -0.4710  0.0602 -0.2820
19926TIP3    H181269   6.146   4.096   4.841  1.1809  1.8159  2.6678
19926TIP3    H281270   5.995   4.092   4.831  1.3488  1.0510 -2.3491
19927TIP3   OH281271   0.708   2.856  14.709 -0.6038  0.0647  0.1717
19927TIP3    H181272   0.724   2.876  14.617  0.0542  0.1462  0.3023
19927TIP3    H281273   0.794   2.835  14.745 -1.1162 -2.3104  0.2074
19928TIP3   OH281274   0.884   0.860   2.670  0.1813 -0.0927 -0.1933
19928TIP3    H181275   0.955   0.825   2.725  0.2106  0.3539  0.0588
19928TIP3    H281276   0.831   0.783   2.648 -0.1711 -0.1991  0.9565
19929TIP3   OH281277   1.311   4.007  13.099 -0.3021 -0.2816 -0.3793
19929TIP3    H181278   1.298   4.055  13.017  0.2576 -2.3041 -1.7458
19929TIP3    H281279   1.396   3.965  13.088 -0.5551 -1.1963  0.9366
19930TIP3   OH281280   3.635   1.418  11.595  0.0798  0.1016  0.3480
19930TIP3    H181281   3.594   1.437  11.511  1.5227 -1.7356 -0.8582
19930TIP3    H281282   3.656   1.325  11.591  2.1113  0.4174  1.8616
19931TIP3   OH281283   6.502   2.134  14.717 -0.0533 -0.5896  0.1035
19931TIP3    H181284   6.552   2.147  14.798  1.2164  1.1207 -0.8846
19931TIP3    H281285   6.470   2.221  14.694  1.6972 -0.5073 -2.4697
19932TIP3   OH281286   1.571   0.479   2.242 -0.2117  0.3783  0.7711
19932TIP3    H181287   1.537   0.417   2.179 -0.4281  0.6850  0.5831
19932TIP3    H281288   1.562   0.564   2.200 -0.2546  0.5750  1.1681
19933TIP3   OH281289   3.264   2.436  13.758 -0.0196 -0.3148  0.4410
19933TIP3    H181290   3.306   2.522  13.748  1.1265 -0.7806  1.0766
19933TIP3    H281291   3.313   2.379  13.698  0.6736 -0.9950  1.6249
19934TIP3   OH281292   2.418   5.786  14.854 -0.0319 -0.7071  0.5380
19934TIP3    H181293   2.411   5.781  14.949  1.6914 -0.1107  0.7379
19934TIP3    H281294   2.343   5.737  14.821 -0.4825 -1.1881  2.1987
19935TIP3   OH281295   6.633   6.657   2.952 -0.4594  0.5187  0.4078
19935TIP3    H181296   6.635   6.698   3.038 -0.2737  1.7705 -0.1768
19935TIP3    H281297   6.541   6.659   2.927 -0.3886  1.0296  0.1768
19936TIP3   OH281298   3.930   6.700   1.319  0.2920 -0.3526 -0.1403
19936TIP3    H181299   4.010   6.752   1.308  0.6268 -0.7372  0.4334
19936TIP3    H281300   3.882   6.713   1.238  0.6148  0.4364 -0.2187
19937TIP3   OH281301   3.735   0.671  15.976 -0.0073  0.7808  0.3273
19937TIP3    H181302   3.784   0.732  16.031  1.5564 -0.7929  0.7395
19937TIP3    H281303   3.664   0.640  16.033 -1.3784  2.8145 -0.1694
19938TIP3   OH281304   2.189   5.641   5.941  0.3082  0.4018 -0.2405
19938TIP3    H181305   2.111   5.654   5.996 -1.0019  0.6894 -2.0792
19938TIP3    H281306   2.226   5.728   5.929  0.6068  0.3362  0.1715
19939TIP3   OH281307   3.638   2.585  12.210 -0.1441 -0.1240 -0.0692
19939TIP3    H181308   3.733   2.584  12.208 -0.0591 -1.6218  1.5939
19939TIP3    H281309   3.611   2.573  12.119  1.2509  0.1979 -0.5458
19940TIP3   OH281310   3.679   5.739   4.336  0.0517 -0.2426  0.2023
19940TIP3    H181311   3.689   5.752   4.242 -2.7482  0.1248 -0.1294
19940TIP3    H281312   3.650   5.648   4.345 -0.7624  0.0470  0.5922
19941TIP3   OH281313   1.375   0.427  11.282  0.1111  0.1931  0.1643
19941TIP3    H181314   1.299   0.425  11.340 -0.0463  0.6186 -0.0238
19941TIP3    H281315   1.389   0.335  11.259 -0.8817  0.1945 -0.4944
19942TIP3   OH281316   5.878   5.344   5.785  0.7900 -0.5180 -0.3440
19942TIP3    H181317   5.939   5.377   5.852 -0.2669  2.2329 -0.6341
19942TIP3    H281318   5.819   5.417   5.768 -1.2526 -2.3612 -1.6878
19943TIP3   OH281319   2.673   6.647  13.262 -0.1061 -0.1249 -0.1759
19943TIP3    H181320   2.670   6.693  13.346  1.4409 -1.3261  0.6036
19943TIP3    H281321   2.764   6.616  13.255 -0.0756  0.2963 -2.5124
19944TIP3   OH281322   3.910   4.786   0.237  0.1766 -0.5205 -0.1264
19944TIP3    H181323   3.940   4.729   0.166 -0.6543 -2.6620  1.1373
19944TIP3    H281324   3.974   4.773   0.307  1.1764  1.8214 -0.5074
19945TIP3   OH281325   5.459   4.371   1.347 -0.4155  0.0307 -1.1041
19945TIP3    H181326   5.500   4.295   1.306  0.2170  0.4466 -1.2524
19945TIP3    H281327   5.531   4.431   1.364 -0.6861 -0.0296  0.4099
19946TIP3   OH281328   4.650   1.920  16.753 -0.0817  0.0819 -0.4831
19946TIP3    H181329   4.665   2.002  16.706  0.5173 -0.1277 -0.6597
19946TIP3    H281330   4.555   1.916  16.764 -0.1349  0.6739 -0.6952
19947TIP3   OH281331   0.646   1.025  13.119 -0.5278 -0.4539 -0.3970
19947TIP3    H181332   0.732   1.030  13.162 -1.0819 -1.4268  0.8921
19947TIP3    H281333   0.659   1.068  13.034  0.9634  0.3314  0.1912
19948TIP3   OH281334   6.272   1.811   4.168  0.0781  0.0933  0.4803
19948TIP3    H181335   6.334   1.750   4.209  0.1254  0.3346  0.7708
19948TIP3    H281336   6.223   1.848   4.241 -1.1475 -0.8804  0.1922
19949TIP3   OH281337   1.620   6.032  13.378  0.1777  0.6803 -0.2227
19949TIP3    H181338   1.583   6.097  13.438  1.9739  1.3496  0.2348
19949TIP3    H281339   1.660   6.084  13.308  0.3021 -0.0008 -0.6648
19950TIP3   OH281340   1.260   0.348  13.997 -0.1709  0.1770  0.7399
19950TIP3    H181341   1.354   0.362  14.012  0.1087 -1.8221  1.1158
19950TIP3    H281342   1.243   0.392  13.914  0.6287  2.2881  1.6300
19951TIP3   OH281343   4.463   5.796  12.963 -0.0316  0.1629 -0.3814
19951TIP3    H181344   4.381   5.842  12.985  0.1508  0.4699 -0.3297
19951TIP3    H281345   4.526   5.830  13.026 -0.1027 -0.8396  0.2494
19952TIP3   OH281346   2.369   0.629   1.623  0.2198  0.8586 -0.2832
19952TIP3    H181347   2.348   0.611   1.531  2.7379 -0.1295 -0.7598
19952TIP3    H281348   2.323   0.560   1.672  0.7865 -0.0978 -1.0570
19953TIP3   OH281349   4.995   5.921   3.369  0.1808  0.0583 -0.8109
19953TIP3    H181350   4.903   5.912   3.394  0.6087  0.2900  1.0213
19953TIP3    H281351   5.008   6.015   3.356  0.3093  0.1007 -0.3920
19954TIP3   OH281352   2.319   6.649  17.177 -0.4050 -0.2405  0.0799
19954TIP3    H181353   2.321   6.725  17.235 -2.0395 -0.0038 -0.1125
19954TIP3    H281354   2.310   6.574  17.236  1.2144 -0.3037  0.2703
19955TIP3   OH281355   6.168   1.193  15.426  0.0664 -0.1665 -0.2196
19955TIP3    H181356   6.124   1.246  15.492 -0.5404 -0.9274 -0.0055
19955TIP3    H281357   6.100   1.173  15.362  0.1753 -1.0611 -0.0611
19956TIP3   OH281358   1.284   0.003   2.186  0.5238  0.0555  0.1800
19956TIP3    H181359   1.223  -0.062   2.151  1.3809 -0.5783 -0.1633
19956TIP3    H281360   1.356  -0.049   2.221  3.1773  0.8063 -3.6120
19957TIP3   OH281361   4.308   3.043  13.412 -0.2125 -0.1775  0.0783
19957TIP3    H181362   4.245   3.013  13.347  0.3539 -1.6564  0.1753
19957TIP3    H281363   4.318   2.969  13.472  0.2646  0.6874  1.1029
19958TIP3   OH281364   2.755   5.717   4.368 -0.5988 -0.5022  0.3317
19958TIP3    H181365   2.773   5.809   4.386 -1.9292 -0.2787  0.6769
19958TIP3    H281366   2.661   5.714   4.348 -0.3154 -1.5871 -1.0487
19959TIP3   OH281367   3.088   4.174   1.690 -0.0351 -0.2031  0.2552
19959TIP3    H181368   3.094   4.085   1.724  1.3734  0.1629  1.0655
19959TIP3    H281369   3.047   4.224   1.761  0.6641  0.0848  0.4718
19960TIP3   OH281370   0.881   2.571  12.634  0.0262  0.3308  0.2671
19960TIP3    H181371   0.881   2.643  12.570 -2.8802 -0.3052 -0.5946
19960TIP3    H281372   0.828   2.604  12.707 -0.4034 -0.5280  0.3556
19961TIP3   OH281373   3.677   1.026  13.546 -0.4539  0.4574 -0.5612
19961TIP3    H181374   3.670   1.120  13.537  0.4185  0.5020 -0.9437
19961TIP3    H281375   3.769   1.011  13.570 -0.5075 -0.3075 -0.7932
19962TIP3   OH281376   1.663   0.864  10.757 -0.0618 -0.1810  0.0094
19962TIP3    H181377   1.728   0.836  10.822  0.5169  0.2755 -0.3604
19962TIP3    H281378   1.697   0.831  10.674 -1.2434 -1.5347  0.0270
19963TIP3   OH281379   1.497   4.139  12.602 -0.3261  0.1067  0.3292
19963TIP3    H181380   1.569   4.192  12.569  2.3574 -1.7549  2.7229
19963TIP3    H281381   1.435   4.203  12.638  0.5650  1.7209 -0.8419
19964TIP3   OH281382   2.124   2.163   2.971  0.5047  0.0367  0.0293
19964TIP3    H181383   2.164   2.247   2.990  0.5455 -0.0126  0.1607
19964TIP3    H281384   2.112   2.122   3.056 -1.6682  0.8914  0.1938
19965TIP3   OH281385   4.802   4.709  10.493  0.3814 -0.2079  0.3907
19965TIP3    H181386   4.886   4.749  10.475  0.4413  0.1208  1.3144
19965TIP3    H281387   4.811   4.618  10.464  0.9434 -0.0921  0.2000
19966TIP3   OH281388   4.062   2.737  11.884 -0.2487 -0.4437  0.0736
19966TIP3    H181389   4.059   2.676  11.958 -1.2204  0.8289  1.1374
19966TIP3    H281390   4.024   2.818  11.918  0.5299  0.6142 -1.4403
19967TIP3   OH281391   1.243   4.403  13.277 -0.0514  0.5033  0.7402
19967TIP3    H181392   1.173   4.339  13.293  0.7683 -0.8899 -0.8256
19967TIP3    H281393   1.197   4.486  13.267 -1.5152 -0.3559 -0.1908
19968TIP3   OH281394   4.889   5.410   1.874 -0.2921 -0.0405  0.7138
19968TIP3    H181395   4.942   5.353   1.929 -2.6459 -3.0899  0.0844
19968TIP3    H281396   4.948   5.481   1.848  2.5237 -1.6153  2.4153
19969TIP3   OH281397   0.741   6.045  14.420  0.2906  0.1687 -0.0389
19969TIP3    H181398   0.690   5.972  14.386  1.4506 -0.3581 -0.6900
19969TIP3    H281399   0.764   6.020  14.509  1.1442 -0.5164 -0.4438
19970TIP3   OH281400   5.675   3.821   3.944  0.2921  0.6438 -0.3081
19970TIP3    H181401   5.754   3.851   3.900  1.0783 -1.5690 -0.5032
19970TIP3    H281402   5.616   3.793   3.874  0.1466  0.3688 -0.0799
19971TIP3   OH281403   4.603   0.466  14.688  0.1865 -0.3923  0.2601
19971TIP3    H181404   4.578   0.378  14.714 -3.0826  0.1753 -0.5449
19971TIP3    H281405   4.658   0.497  14.760  0.4081 -2.6302  1.1471
19972TIP3   OH281406   2.952   5.107   0.271  0.3100 -0.5086 -0.0833
19972TIP3    H181407   2.881   5.162   0.303  0.0749 -1.3788  0.9254
19972TIP3    H281408   2.919   5.070   0.188  0.0383 -0.0179 -0.1945
19973TIP3   OH281409   1.458   5.899   6.607  0.1303 -0.3842  0.1195
19973TIP3    H181410   1.475   5.821   6.554  1.7116 -0.6385  0.9342
19973TIP3    H281411   1.388   5.873   6.666 -0.3563 -0.7097 -0.5916
19974TIP3   OH281412   1.086   4.371  12.729  0.1551 -0.1979 -0.4749
19974TIP3    H181413   1.133   4.448  12.761  0.2011 -0.5028  0.2221
19974TIP3    H281414   1.037   4.402  12.653  0.5921  0.3912 -0.5198
19975TIP3   OH281415   0.017   3.067   0.295 -0.1993  0.1817 -0.2773
19975TIP3    H181416   0.062   3.114   0.225 -2.5262 -1.2301 -2.9044
19975TIP3    H281417   0.026   2.974   0.272 -1.0413 -0.3430  1.3099
19976TIP3   OH281418   6.328   3.263  13.525  0.4701  0.3681  0.1537
19976TIP3    H181419   6.328   3.344  13.578  0.7575  0.8707 -0.6059
19976TIP3    H281420   6.286   3.198  13.582 -1.5006  1.5082  0.1046
19977TIP3   OH281421   6.593   4.433   0.706  0.2462  0.4171 -0.4057
19977TIP3    H181422   6.501   4.431   0.733  0.2708  1.2350 -0.2382
19977TIP3    H281423   6.593   4.395   0.618 -0.5545  2.1483 -1.2178
19978TIP3   OH281424   4.917   4.651   1.937  0.6675 -0.5248 -0.5626
19978TIP3    H181425   4.934   4.621   2.026  0.9942 -0.2802 -0.5423
19978TIP3    H281426   4.821   4.652   1.930  0.6405 -1.9399 -0.6894
19979TIP3   OH281427   6.392   4.836  15.543  0.3576  0.1804  0.7761
19979TIP3    H181428   6.348   4.763  15.587 -1.3961 -0.3578 -1.6232
19979TIP3    H281429   6.333   4.911  15.555  0.2550  0.2203  0.0974
19980TIP3   OH281430   0.361   2.484  13.195  0.5245  0.4783  0.3853
19980TIP3    H181431   0.369   2.414  13.131  1.8806  0.9054  0.0597
19980TIP3    H281432   0.393   2.446  13.277  3.2621  1.2545 -0.2304
19981TIP3   OH281433   2.157   1.500   3.113  0.0619 -0.4477  0.6093
19981TIP3    H181434   2.125   1.411   3.129  4.1747 -1.9285  1.7011
19981TIP3    H281435   2.251   1.491   3.105  0.8048  3.9660  1.6997
19982TIP3   OH281436   0.721   0.320   4.265  0.1351  0.1561 -0.5235
19982TIP3    H181437   0.702   0.263   4.191  0.8011  0.9526 -1.3312
19982TIP3    H281438   0.650   0.385   4.266  0.0121  0.0192 -0.3322
19983TIP3   OH281439   4.379   1.700   3.350 -0.1099 -0.0042  0.4273
19983TIP3    H181440   4.385   1.606   3.368  1.3804  0.0337  0.2275
19983TIP3    H281441   4.460   1.737   3.385  0.1984  0.9283 -1.1764
19984TIP3   OH281442   0.564   4.143   0.340 -0.5831 -0.8826  0.3605
19984TIP3    H181443   0.579   4.237   0.346 -1.9124 -0.5989 -0.3688
19984TIP3    H281444   0.650   4.104   0.357 -0.5667  0.3210  3.7169
19985TIP3   OH281445   6.095   3.496   5.143 -0.3663 -0.3955 -0.1309
19985TIP3    H181446   6.060   3.526   5.059 -0.5775 -0.3176 -0.0165
19985TIP3    H281447   6.184   3.465   5.122 -0.3433 -0.1903 -0.3461
19986TIP3   OH281448   4.447   1.070  15.562  0.0204  0.2131 -0.4332
19986TIP3    H181449   4.526   1.079  15.615  0.8960 -0.0315 -1.6548
19986TIP3    H281450   4.453   1.140  15.498  1.3372 -2.1568 -3.0895
19987TIP3   OH281451   5.722   4.886   1.744  0.0949 -0.2240  0.2825
19987TIP3    H181452   5.780   4.843   1.807 -1.1735 -2.7962 -0.1633
19987TIP3    H281453   5.781   4.923   1.678  1.2968 -1.4488  0.6139
19988TIP3   OH281454   5.577   2.169  12.470  0.4734  0.1205  0.0458
19988TIP3    H181455   5.551   2.082  12.439  0.8832  0.7247 -2.2141
19988TIP3    H281456   5.506   2.226  12.442  0.5136  0.6155  0.9320
19989TIP3   OH281457   3.438   0.717   4.449 -0.0942 -0.3665  0.0861
19989TIP3    H181458   3.348   0.718   4.481  0.1589  0.2426  0.8083
19989TIP3    H281459   3.440   0.782   4.379 -0.5705 -1.4712 -0.9924
19990TIP3   OH281460   0.266   3.462  12.752 -0.0688  0.3611  0.2330
19990TIP3    H181461   0.179   3.466  12.712  0.0693  0.3824 -0.0693
19990TIP3    H281462   0.321   3.518  12.697  0.2037  0.1179  0.2503
19991TIP3   OH281463   5.722   6.123  15.841  0.0471  0.3656 -0.1719
19991TIP3    H181464   5.649   6.147  15.784 -0.3090  1.1983  0.6183
19991TIP3    H281465   5.684   6.061  15.904  0.5181 -0.8280 -1.0090
19992TIP3   OH281466   4.892   3.843  12.888  0.7275  0.4500  0.0563
19992TIP3    H181467   4.973   3.822  12.935  0.2963  1.2824  1.2312
19992TIP3    H281468   4.891   3.938  12.884 -0.8607  0.5310  1.3512
19993TIP3   OH281469   5.509   4.390   4.952 -0.1802 -0.1731  0.4320
19993TIP3    H181470   5.418   4.380   4.922 -0.3065 -0.9699  1.0736
19993TIP3    H281471   5.544   4.460   4.896 -0.5520 -1.2764 -1.2576
19994TIP3   OH281472   6.442   3.501  12.445 -0.0932  0.4001 -0.2894
19994TIP3    H181473   6.470   3.428  12.500  0.5072  0.9047  0.0850
19994TIP3    H281474   6.478   3.481  12.359 -1.6834 -0.7845 -0.7436
19995TIP3   OH281475   4.910   1.130  14.011 -0.4406 -0.0140  0.6406
19995TIP3    H181476   4.953   1.064  13.956  2.4861  2.3822 -0.2363
19995TIP3    H281477   4.944   1.114  14.099  0.0927  0.1717  0.4725
19996TIP3   OH281478   5.429   0.961  15.581  0.7849 -0.7162  0.2007
19996TIP3    H181479   5.338   0.932  15.592  0.4680 -0.3172 -1.1717
19996TIP3    H281480   5.422   1.046  15.538  1.8144 -1.6858 -2.0744
19997TIP3   OH281481   5.669   2.585   1.946 -0.7633 -0.7200 -0.1101
19997TIP3    H181482   5.622   2.538   1.877  0.9542 -1.8423 -0.5805
19997TIP3    H281483   5.684   2.519   2.014  0.0368 -0.3688  0.0641
19998TIP3   OH281484   5.385   0.107  16.492  0.2148  0.5191 -0.3137
19998TIP3    H181485   5.349   0.169  16.555 -0.7414  0.3608 -0.6855
19998TIP3    H281486   5.309   0.056  16.462  0.8675 -0.3356 -0.5569
19999TIP3   OH281487   4.312   1.702  11.403 -0.0107 -0.4582 -0.0469
19999TIP3    H181488   4.270   1.693  11.489  1.1989  2.4841  0.9720
19999TIP3    H281489   4.240   1.722  11.343 -0.6377 -0.5330  0.6697
20000TIP3   OH281490   6.346   6.777  10.857 -0.4834 -0.6254 -0.0348
20000TIP3    H181491   6.393   6.853  10.891 -0.4432 -1.5074  2.0437
20000TIP3    H281492   6.416   6.713  10.839 -0.6659 -0.9649  0.4374
20001TIP3   OH281493   4.068   0.399  16.729 -0.1351 -0.5328 -0.1635
20001TIP3    H181494   4.069   0.479  16.782 -1.7992 -0.0490 -0.7918
20001TIP3    H281495   4.078   0.328  16.792 -0.5044  0.1059  0.6264
20002TIP3   OH281496   3.173   5.587  12.779  0.3307 -0.4498  0.5413
20002TIP3    H181497   3.157   5.493  12.777 -1.1746 -0.2144  0.2291
20002TIP3    H281498   3.245   5.598  12.841  0.1488 -1.7508  1.0125
20003TIP3   OH281499   3.555   5.073  14.374 -0.0579  0.5375  0.5789
20003TIP3    H181500   3.517   5.146  14.325  1.2252  0.1893 -1.0190
20003TIP3    H281501   3.647   5.072  14.348  0.5330 -0.1300  2.5019
20004TIP3   OH281502   4.772   4.381   4.456  0.4377  0.5362 -0.2565
20004TIP3    H181503   4.710   4.308   4.448  2.1612 -1.0429 -0.0198
20004TIP3    H281504   4.722   4.450   4.500 -1.2995 -0.4469 -0.5771
20005TIP3   OH281505   2.638   1.747   1.444  0.0245  0.2462  0.0565
20005TIP3    H181506   2.663   1.708   1.527 -2.2271 -0.9744  0.2374
20005TIP3    H281507   2.704   1.716   1.382  1.8503  1.3343  1.3416
20006TIP3   OH281508   5.260   4.265   6.134  0.5380 -0.2165 -0.5824
20006TIP3    H181509   5.231   4.356   6.131 -0.8978 -0.5411  1.5242
20006TIP3    H281510   5.186   4.217   6.170  1.4325 -2.1806 -1.2038
20007TIP3   OH281511   2.436   1.290  10.653 -0.4306 -0.4881  0.0791
20007TIP3    H181512   2.418   1.382  10.633 -0.4798 -0.6787 -0.7873
20007TIP3    H281513   2.521   1.292  10.697 -1.9627  0.3182  3.2896
20008TIP3   OH281514   2.510   4.474   2.698 -0.6354 -0.2789 -0.3950
20008TIP3    H181515   2.540   4.384   2.711 -0.2661 -0.1679 -0.4670
20008TIP3    H281516   2.567   4.509   2.629 -1.0504 -0.1223 -0.6609
20009TIP3   OH281517   2.663   3.854  11.783  0.1782 -0.0059  0.0590
20009TIP3    H181518   2.723   3.871  11.855  0.2478  0.5846 -0.1299
20009TIP3    H281519   2.720   3.832  11.709  0.2316  1.3053 -0.3275
20010TIP3   OH281520   6.188   1.442  16.402 -0.3527 -0.6426  0.0369
20010TIP3    H181521   6.188   1.476  16.491  0.1374  0.1062 -0.2372
20010TIP3    H281522   6.137   1.361  16.407 -1.2939 -0.0342  0.7747
20011TIP3   OH281523   2.767   4.933  16.687 -0.2510  0.4834  0.2541
20011TIP3    H181524   2.692   4.992  16.698 -1.7954 -1.3314 -0.0361
20011TIP3    H281525   2.766   4.879  16.766 -0.8472 -1.2196 -0.8603
20012TIP3   OH281526   3.146   6.466  12.330 -0.1896 -0.2623 -0.2839
20012TIP3    H181527   3.070   6.502  12.283  1.0311  0.5034 -1.7459
20012TIP3    H281528   3.198   6.542  12.354  0.0474 -0.7704  0.8973
20013TIP3   OH281529   6.741   2.536  16.123 -0.7187  0.9882  0.0731
20013TIP3    H181530   6.724   2.507  16.213  0.8053  2.6787  0.9544
20013TIP3    H281531   6.820   2.488  16.097 -0.7962  0.9781 -0.1463
20014TIP3   OH281532   1.703   2.373   3.118 -0.1251 -0.2649 -0.3445
20014TIP3    H181533   1.628   2.413   3.075 -0.2065 -0.7729 -0.6673
20014TIP3    H281534   1.738   2.310   3.055 -0.1335 -0.8785  0.2512
20015TIP3   OH281535   0.159   1.353  13.870  0.3016 -0.3578 -0.0458
20015TIP3    H181536   0.126   1.442  13.855 -0.5578 -0.5443  0.6586
20015TIP3    H281537   0.100   1.316  13.936  0.2739 -1.6643 -0.7625
20016TIP3   OH281538   6.748   6.167  13.935  0.3158 -0.5890  0.4268
20016TIP3    H181539   6.807   6.203  13.869  1.3386 -1.2810  0.9374
20016TIP3    H281540   6.666   6.215  13.923  0.5640 -0.5115 -1.1505
20017TIP3   OH281541   6.508   4.321   3.354 -0.6228 -0.1597  0.5930
20017TIP3    H181542   6.546   4.393   3.404  1.0442 -0.1891 -0.5399
20017TIP3    H281543   6.428   4.357   3.315 -0.3638  0.7369  0.8831
20018TIP3   OH281544   3.414   2.524   0.833  0.1611  0.4203  0.1987
20018TIP3    H181545   3.474   2.456   0.801 -1.2270 -0.9283  0.3361
20018TIP3    H281546   3.328   2.497   0.799 -0.7202  1.0993  1.8192
20019TIP3   OH281547   0.506   0.157   4.416  0.5180 -0.5053  0.0372
20019TIP3    H181548   0.548   0.223   4.470  0.4379 -1.6713  1.5950
20019TIP3    H281549   0.555   0.159   4.333  2.4072 -0.4713  1.0969
20020TIP3   OH281550   1.964   3.662  14.365  0.2644  0.0107  0.6411
20020TIP3    H181551   1.889   3.706  14.405 -1.2229 -1.5702 -0.2868
20020TIP3    H281552   1.996   3.603  14.434 -1.1511 -1.3708  0.1648
20021TIP3   OH281553   5.950   5.237  10.708 -0.7564 -0.5592  0.3207
20021TIP3    H181554   5.952   5.332  10.704  1.1386 -0.5955 -0.9405
20021TIP3    H281555   5.859   5.215  10.729 -1.7626  1.4450 -1.6373
20022TIP3   OH281556   3.907   0.945   1.419 -0.6589 -0.1570  0.6922
20022TIP3    H181557   3.974   0.943   1.487  0.3041 -0.0527 -0.2371
20022TIP3    H281558   3.915   0.860   1.375  1.3461  1.1486 -1.7346
20023TIP3   OH281559   3.633   0.843   1.515  0.1211 -0.1718 -0.0776
20023TIP3    H181560   3.604   0.879   1.431  0.4129 -1.5835 -0.8095
20023TIP3    H281561   3.723   0.816   1.500  0.2903 -0.1270  0.8060
20024TIP3   OH281562   4.078   0.067   3.107  0.1582 -0.1392  0.8854
20024TIP3    H181563   4.051   0.038   3.195 -1.5637 -0.6313  0.2292
20024TIP3    H281564   4.155   0.013   3.088  1.1046  0.5922  2.4224
20025TIP3   OH281565   2.489   3.897   2.675  0.6758 -0.6290 -0.2212
20025TIP3    H181566   2.413   3.865   2.723  0.5480  0.2379  0.1686
20025TIP3    H281567   2.494   3.841   2.597 -1.2688  0.2759 -1.0478
20026TIP3   OH281568   6.528   1.100  12.596 -0.3626 -0.2904 -0.4913
20026TIP3    H181569   6.489   1.029  12.546  0.0971 -0.0263 -1.2614
20026TIP3    H281570   6.470   1.175  12.581 -0.6654 -0.4111  0.0461
20027TIP3   OH281571   6.008   1.936  12.721  0.3081  0.2522 -0.8005
20027TIP3    H181572   5.917   1.962  12.706  0.4368  0.8886 -0.5262
20027TIP3    H281573   6.003   1.843  12.741 -0.0585 -0.2433 -2.9548
20028TIP3   OH281574   6.219   3.389   4.490  0.4618 -0.7533  0.8633
20028TIP3    H181575   6.172   3.348   4.418  0.5312  2.6203 -1.3231
20028TIP3    H281576   6.307   3.407   4.455  0.6303  0.6155  1.8811
20029TIP3   OH281577   5.138   2.448  13.223 -0.3650  0.4664  0.1598
20029TIP3    H181578   5.215   2.448  13.279 -0.7191 -0.0849  0.6600
20029TIP3    H281579   5.168   2.411  13.140 -0.1371  0.0603  0.4221
20030TIP3   OH281580   3.063   4.827   1.714  0.3226 -0.0735  0.0498
20030TIP3    H181581   3.088   4.860   1.801 -1.7283  2.9575 -0.3337
20030TIP3    H281582   3.026   4.740   1.730  1.9351 -0.4717  1.8771
20031TIP3   OH281583   2.832   1.938   6.595  0.6687  0.9848  0.0317
20031TIP3    H181584   2.871   1.902   6.516  0.8453 -0.1996  0.6282
20031TIP3    H281585   2.876   1.891   6.666 -0.3083  1.1927  0.7862
20032TIP3   OH281586   3.399   3.354  15.524  0.6488  0.2973 -0.4243
20032TIP3    H181587   3.419   3.365  15.617 -2.7822  3.2934  0.1534
20032TIP3    H281588   3.409   3.442  15.487 -1.1314 -0.1604 -2.1454
20033TIP3   OH281589   3.714   5.305   0.267  0.9247 -0.1192 -0.0802
20033TIP3    H181590   3.773   5.236   0.238  2.1443  1.4985 -1.6800
20033TIP3    H281591   3.746   5.329   0.354  3.8625  1.8521 -1.5499
20034TIP3   OH281592   5.806   6.328  12.431 -0.5257  0.5502 -0.4557
20034TIP3    H181593   5.752   6.316  12.353 -1.9803  0.8879  0.4780
20034TIP3    H281594   5.780   6.412  12.467  2.4892  2.0382 -1.3663
20035TIP3   OH281595   3.745   6.291   4.341  0.2541  0.2151 -0.0569
20035TIP3    H181596   3.674   6.336   4.388 -0.0707 -1.3324  1.0122
20035TIP3    H281597   3.724   6.198   4.349  1.3511 -0.1881 -1.4764
20036TIP3   OH281598   3.063   3.920  15.779 -0.3761  1.1156 -0.0092
20036TIP3    H181599   3.130   3.878  15.833  0.4442  0.5202 -1.4287
20036TIP3    H281600   3.112   3.981  15.724 -1.1453  1.4983 -0.2865
20037TIP3   OH281601   0.620   5.971   4.906 -0.5511  0.3349  0.3942
20037TIP3    H181602   0.672   6.050   4.916 -1.9819  1.2956  0.4582
20037TIP3    H281603   0.657   5.928   4.829 -0.3980  1.5746 -0.2456
20038TIP3   OH281604   4.473   4.420  16.715 -0.6146 -0.0423  0.1191
20038TIP3    H181605   4.463   4.448  16.624 -0.5296  0.3809  0.2360
20038TIP3    H281606   4.398   4.458  16.761 -0.5628 -0.1056  0.2581
20039TIP3   OH281607   3.078   6.441  16.662  0.3164  0.1436  0.0015
20039TIP3    H181608   3.052   6.494  16.738  0.6504  1.7351 -0.9536
20039TIP3    H281609   3.037   6.485  16.587  1.2459 -0.5147 -0.9119
20040TIP3   OH281610   2.993   3.873  16.481 -0.1960  0.1930  0.4351
20040TIP3    H181611   2.940   3.939  16.436  0.2676 -0.2683 -0.8360
20040TIP3    H281612   3.079   3.914  16.489 -0.2695  0.2623  0.8895
20041TIP3   OH281613   2.543   2.914  11.659  0.4380 -0.1350  0.6822
20041TIP3    H181614   2.628   2.872  11.643  0.7090  0.9556 -1.0646
20041TIP3    H281615   2.565   3.004  11.683 -0.2198 -0.1208  1.2604
20042TIP3   OH281616   6.682   1.603  13.141  0.2848 -0.4366 -0.0096
20042TIP3    H181617   6.656   1.538  13.076  0.0329  0.4938 -0.8582
20042TIP3    H281618   6.660   1.687  13.101 -0.6920  0.1379  1.6224
20043TIP3   OH281619   1.572   6.300   3.292 -0.0762  0.2806  0.4284
20043TIP3    H181620   1.536   6.332   3.374 -3.4915 -1.7165 -0.0456
20043TIP3    H281621   1.506   6.324   3.226 -0.6159 -3.3297 -0.6164
20044TIP3   OH281622   0.748   2.559   3.113  0.4265 -0.5226  0.1794
20044TIP3    H181623   0.787   2.619   3.177  2.4154  0.6612 -1.9762
20044TIP3    H281624   0.667   2.602   3.086  0.3223 -0.3039  0.8266
20045TIP3   OH281625   2.143   5.613   4.793  0.3472 -0.1164 -0.2422
20045TIP3    H181626   2.177   5.659   4.871  0.4207  0.0126 -0.3488
20045TIP3    H281627   2.180   5.662   4.719 -0.7746  0.5775 -0.3778
20046TIP3   OH281628   0.370   0.144  13.530  0.3075 -0.0275 -0.0408
20046TIP3    H181629   0.412   0.230  13.542  0.2391  0.2691 -1.6212
20046TIP3    H281630   0.276   0.164  13.530  0.2491 -0.2835  0.7391
20047TIP3   OH281631   5.398   1.402  11.629  0.7725 -0.2316  0.2524
20047TIP3    H181632   5.463   1.353  11.679 -1.1194 -0.6587  2.4557
20047TIP3    H281633   5.349   1.335  11.581 -0.6081 -0.3932  1.8036
20048TIP3   OH281634   5.861   0.601  15.374  0.2787 -0.1449 -0.0714
20048TIP3    H181635   5.867   0.684  15.421  2.0905 -0.6228  0.5919
20048TIP3    H281636   5.902   0.618  15.289  1.2613 -0.5074  0.3144
20049TIP3   OH281637   2.031   3.633  12.691 -0.0723 -0.0799 -0.1898
20049TIP3    H181638   1.994   3.556  12.733  1.4821 -0.8484 -0.1559
20049TIP3    H281639   2.084   3.674  12.760 -1.8102  1.7573  0.1812
20050TIP3   OH281640   4.726   3.521  11.166  0.2379 -0.2647  0.3243
20050TIP3    H181641   4.761   3.598  11.121 -1.1847  0.2114 -0.0160
20050TIP3    H281642   4.696   3.464  11.095 -1.9891  0.4740  0.5850
20051TIP3   OH281643   2.227   4.693   5.591 -0.0463 -0.1148  0.3814
20051TIP3    H181644   2.172   4.633   5.640 -0.0684  0.8045  1.5249
20051TIP3    H281645   2.274   4.743   5.658  1.4039 -0.1632 -0.5567
20052TIP3   OH281646   3.295   4.570  11.614  0.0765  0.0837  0.3122
20052TIP3    H181647   3.359   4.525  11.557 -2.4449 -0.3520 -2.4254
20052TIP3    H281648   3.236   4.500  11.643 -1.8747  1.0374 -1.1622
20053TIP3   OH281649   3.138   2.752  13.711  0.8463 -0.6393 -0.4913
20053TIP3    H181650   3.108   2.841  13.730 -0.2264 -0.9346 -0.7010
20053TIP3    H281651   3.195   2.729  13.784 -2.4055 -1.3924  2.0627
20054TIP3   OH281652   2.515   0.330  12.824  0.2277  0.1490  0.0024
20054TIP3    H181653   2.487   0.239  12.829 -1.5729  0.7145  1.1616
20054TIP3    H281654   2.474   0.363  12.744 -0.1161  0.2420  0.2148
20055TIP3   OH281655   5.796   6.479  10.891 -0.5419 -0.1493 -0.5720
20055TIP3    H181656   5.839   6.420  10.830 -1.5249 -1.1762 -0.3212
20055TIP3    H281657   5.707   6.488  10.857 -1.1264 -0.7810  0.7069
20056TIP3   OH281658   1.108   0.208  13.722 -0.3510  0.4294 -0.5992
20056TIP3    H181659   1.179   0.164  13.768  0.1979  1.6528 -0.2594
20056TIP3    H281660   1.151   0.258  13.653 -1.1756 -1.6381 -2.7416
20057TIP3   OH281661   3.886   2.002  14.980 -0.1381  0.2037  0.3248
20057TIP3    H181662   3.832   1.955  14.916 -0.2594  0.9447 -0.1239
20057TIP3    H281663   3.838   2.083  14.998  1.1362  1.2034 -0.5971
20058TIP3   OH281664   6.394   1.570   1.738  0.0490  0.8083 -0.7319
20058TIP3    H181665   6.453   1.500   1.709  1.3606  2.0926 -1.2289
20058TIP3    H281666   6.367   1.542   1.826 -0.1450 -0.7423 -1.2475
20059TIP3   OH281667   0.105   4.608   6.442  0.3177 -0.7067  0.0463
20059TIP3    H181668   0.010   4.610   6.442  0.3167 -0.5612 -0.8773
20059TIP3    H281669   0.130   4.634   6.354  1.2033 -1.3017  0.1066
20060TIP3   OH281670   4.947   3.536  10.506  0.4839  0.3326  0.0856
20060TIP3    H181671   5.020   3.597  10.520  1.5302 -1.0281  0.8273
20060TIP3    H281672   4.876   3.591  10.473  1.3846  1.9386  0.7058
20061TIP3   OH281673   3.168   0.430   0.829 -0.0848 -0.3603 -0.1732
20061TIP3    H181674   3.218   0.358   0.868 -0.2855 -0.7153 -0.5611
20061TIP3    H281675   3.172   0.500   0.894  0.1760 -0.6964  0.1781
20062TIP3   OH281676   5.384   4.042  11.839 -0.0115 -0.8998  0.1377
20062TIP3    H181677   5.399   3.947  11.840 -1.6134 -1.1729  1.2694
20062TIP3    H281678   5.372   4.063  11.747  1.5096 -1.5811 -0.2512
20063TIP3   OH281679   0.715   1.356   1.911 -0.0459  0.1886  0.0272
20063TIP3    H181680   0.687   1.435   1.864  0.0613  0.0132 -0.3330
20063TIP3    H281681   0.654   1.288   1.882 -0.4605  0.2499  0.7253
20064TIP3   OH281682   2.846   1.225   0.603  0.1606 -0.0156 -0.1314
20064TIP3    H181683   2.928   1.221   0.555 -0.4483 -1.9356 -1.0900
20064TIP3    H281684   2.818   1.317   0.595  0.8842  0.0779 -2.0546
20065TIP3   OH281685   2.611   2.282   5.406 -0.1361 -0.0693  0.2879
20065TIP3    H181686   2.636   2.266   5.497  0.0137 -1.1396  0.0730
20065TIP3    H281687   2.619   2.376   5.395  1.1154 -0.0776  1.0164
20066TIP3   OH281688   2.148   2.332  15.654 -0.0137  0.2783 -0.0118
20066TIP3    H181689   2.159   2.420  15.689 -0.4151  0.5478 -0.5588
20066TIP3    H281690   2.177   2.338  15.562  0.0722 -0.1857 -0.0221
20067TIP3   OH281691   3.780   3.236  15.453 -0.0405  0.4833 -0.6290
20067TIP3    H181692   3.700   3.268  15.411 -0.2610  0.6505 -0.0868
20067TIP3    H281693   3.850   3.288  15.414 -0.3491  1.3409 -0.0716
20068TIP3   OH281694   6.562   6.695  13.636  0.3031  0.0998 -0.3363
20068TIP3    H181695   6.497   6.753  13.596  0.4601 -0.0614 -0.8215
20068TIP3    H281696   6.569   6.621  13.576  1.8285  0.6793 -0.9065
20069TIP3   OH281697   4.139   5.636   5.705  0.4976  0.5729  0.2148
20069TIP3    H181698   4.108   5.578   5.636 -0.4520  0.5950  0.6169
20069TIP3    H281699   4.060   5.669   5.747  0.8115  3.9146 -1.4065
20070TIP3   OH281700   5.231   1.227   1.258 -0.6018  0.1298  0.2163
20070TIP3    H181701   5.285   1.149   1.252 -1.6527 -0.9153  2.8541
20070TIP3    H281702   5.142   1.195   1.262 -1.2025  1.6046 -0.4442
20071TIP3   OH281703   4.880   5.727   4.053  0.0504 -0.2127 -1.1396
20071TIP3    H181704   4.898   5.725   3.959  0.9110  1.4029 -1.0383
20071TIP3    H281705   4.804   5.785   4.061  1.0496  1.0744 -0.7148
20072TIP3   OH281706   5.584   0.552   5.055  0.0275  0.3548  0.3403
20072TIP3    H181707   5.603   0.644   5.036  0.9053  0.4411  1.5172
20072TIP3    H281708   5.489   0.544   5.048 -0.1516  1.5827  1.1551
20073TIP3   OH281709   6.008   5.430  14.257 -0.6379  0.5364 -0.4340
20073TIP3    H181710   6.044   5.502  14.309  0.3098  0.4107 -0.9019
20073TIP3    H281711   6.010   5.462  14.166  0.0900 -0.1888 -0.6840
20074TIP3   OH281712   5.898   0.478  12.195 -1.0599  0.4916  0.0420
20074TIP3    H181713   5.867   0.387  12.188  0.7564 -0.3856  2.1592
20074TIP3    H281714   5.899   0.495  12.289  1.5409  1.6044 -0.1067
20075TIP3   OH281715   2.480   4.016   0.808  0.3836 -0.4512  0.3683
20075TIP3    H181716   2.388   4.016   0.834  0.5275  0.3014  0.8918
20075TIP3    H281717   2.506   3.924   0.811 -0.8123 -0.9226 -1.4739
20076TIP3   OH281718   4.602   4.607   4.237  0.3233  0.4318  0.3689
20076TIP3    H181719   4.611   4.699   4.261  2.3789 -0.1576  2.2186
20076TIP3    H281720   4.516   4.581   4.271 -0.1957  1.6073 -0.0191
20077TIP3   OH281721   2.918   6.703  17.184  0.0979  0.1463  0.0303
20077TIP3    H181722   2.889   6.793  17.171 -0.8372 -0.0233  0.7932
20077TIP3    H281723   2.838   6.654  17.200  0.4885 -1.0231 -1.3255
20078TIP3   OH281724   4.679   4.997  12.902 -0.1210  0.5526 -0.2352
20078TIP3    H181725   4.632   5.039  12.830  0.6707  0.7968 -0.6214
20078TIP3    H281726   4.705   5.068  12.959 -1.6512  0.2774  0.8835
20079TIP3   OH281727   1.278   6.079  12.324 -0.2103  0.1535  0.4056
20079TIP3    H181728   1.230   6.051  12.246  0.4867  1.9027 -0.7145
20079TIP3    H281729   1.247   6.020  12.393 -1.4083 -0.9698 -1.0030
20080TIP3   OH281730   1.413   5.895  15.517 -0.0393  0.2429 -0.1727
20080TIP3    H181731   1.394   5.988  15.501 -0.4790 -0.0237 -1.3410
20080TIP3    H281732   1.327   5.855  15.529  0.1928  0.1102  1.1513
20081TIP3   OH281733   2.701   6.069   2.234 -0.1340  0.0361 -0.7105
20081TIP3    H181734   2.771   6.116   2.188  0.5923 -1.4121 -1.1393
20081TIP3    H281735   2.630   6.064   2.171  0.5579 -1.2267 -1.4156
20082TIP3   OH281736   2.247   1.344  13.162  0.1117  0.3372  0.1825
20082TIP3    H181737   2.159   1.328  13.128 -1.8350 -0.3401  4.8490
20082TIP3    H281738   2.248   1.436  13.185  1.3882  0.7854 -1.4403
20083TIP3   OH281739   0.604   1.565  10.923  0.2490  0.0554 -0.4890
20083TIP3    H181740   0.663   1.599  10.856 -1.9162  1.8624 -1.6461
20083TIP3    H281741   0.516   1.586  10.890 -1.0322 -1.6092  1.5783
20084TIP3   OH281742   2.854   3.881   4.951 -0.1928 -0.1510 -0.3336
20084TIP3    H181743   2.786   3.835   4.902 -0.4039  2.6879 -2.9488
20084TIP3    H281744   2.813   3.963   4.977  1.5667  0.6584 -0.0251
20085TIP3   OH281745   1.382   1.436  15.819 -0.2784  0.0536 -0.6073
20085TIP3    H181746   1.454   1.395  15.867 -1.5511  0.6878  2.0475
20085TIP3    H281747   1.351   1.367  15.761  1.3728 -0.7722 -0.5803
20086TIP3   OH281748   5.518   1.440   1.391  0.2784 -0.8621  0.2691
20086TIP3    H181749   5.501   1.462   1.299  1.3243 -0.8130  0.0737
20086TIP3    H281750   5.519   1.345   1.394  1.4113 -0.8817 -0.0269
20087TIP3   OH281751   0.146   2.577   4.036 -0.6184 -0.3762  0.2454
20087TIP3    H181752   0.127   2.518   3.963 -1.2401  0.9693 -0.7165
20087TIP3    H281753   0.081   2.647   4.028  0.8651  1.1041  0.5822
20088TIP3   OH281754   2.860   2.760   4.569 -0.2150 -0.3928 -0.8758
20088TIP3    H181755   2.850   2.709   4.650  1.2563 -1.8205 -1.5447
20088TIP3    H281756   2.882   2.695   4.502 -1.2625  0.7726 -2.4298
20089TIP3   OH281757   5.935   1.891   1.531  0.0142 -0.5214  0.4107
20089TIP3    H181758   5.898   1.939   1.605 -1.8236 -0.6886 -0.3610
20089TIP3    H281759   5.861   1.844   1.492  0.4448  1.1262 -2.7563
20090TIP3   OH281760   2.945   6.380  12.830  0.4699  0.1198  0.3302
20090TIP3    H181761   2.875   6.321  12.856  1.1788 -0.7268  0.3934
20090TIP3    H281762   2.967   6.353  12.741  2.1671 -1.1267  1.0543
20091TIP3   OH281763   0.115   3.988   0.772  0.2987  0.0970 -0.2197
20091TIP3    H181764   0.128   3.895   0.755 -1.6500 -0.1088 -0.7925
20091TIP3    H281765   0.134   4.031   0.688  0.0671  0.1060 -0.2659
20092TIP3   OH281766   0.077   0.980  13.201 -0.0341  0.0094 -0.5278
20092TIP3    H181767   0.046   1.056  13.152 -0.8668  0.0976  0.1080
20092TIP3    H281768   0.132   1.016  13.270  1.4387 -0.1397 -1.5849
20093TIP3   OH281769   0.926   4.171  13.020  0.2838  0.5021  0.4968
20093TIP3    H181770   0.873   4.230  12.967 -0.7712  1.1515  2.2230
20093TIP3    H281771   0.949   4.221  13.098 -0.9504 -1.4037  2.2099
20094TIP3   OH281772   5.290   0.569  12.825  0.6784 -0.0204 -0.0949
20094TIP3    H181773   5.284   0.489  12.877  1.1648  0.1683  0.2558
20094TIP3    H281774   5.376   0.606  12.846  0.1870  0.9527  0.2710
20095TIP3   OH281775   2.215   3.987  11.475 -0.3334  0.4823  0.0683
20095TIP3    H181776   2.273   3.966  11.548 -0.0030 -0.3037 -0.4087
20095TIP3    H281777   2.153   4.051  11.511 -0.8417 -0.6579  1.3458
20096TIP3   OH281778   0.593   6.766   4.946  0.1934 -0.3151  0.2165
20096TIP3    H181779   0.594   6.800   4.856 -0.6345  0.0133  0.3225
20096TIP3    H281780   0.598   6.844   5.001 -2.5533 -0.2467  0.4734
20097TIP3   OH281781   0.979   4.718   4.242 -0.1708  0.3965 -0.4171
20097TIP3    H181782   1.030   4.770   4.305  0.1393 -0.3558 -0.0357
20097TIP3    H281783   1.021   4.632   4.242 -0.9098  0.0269 -0.7589
20098TIP3   OH281784   6.041   2.946  12.837  0.2296  0.2646 -0.3368
20098TIP3    H181785   6.083   2.987  12.762 -1.6359 -0.2771 -1.7511
20098TIP3    H281786   6.086   2.862  12.846  0.9532  0.6414 -0.3676
20099TIP3   OH281787   0.995   4.569  10.905 -0.6322  0.0131 -0.5009
20099TIP3    H181788   1.023   4.485  10.868 -1.6261 -1.0008  0.9076
20099TIP3    H281789   1.041   4.576  10.988 -1.4705  0.2495 -0.0364
20100TIP3   OH281790   3.613   0.538   2.428  0.0225 -0.2371  0.5136
20100TIP3    H181791   3.601   0.451   2.391 -1.3490  0.1160  0.0805
20100TIP3    H281792   3.656   0.523   2.512 -0.3075 -1.3262  0.4956
20101TIP3   OH281793   3.321   2.455   2.895  0.1083  0.0016  0.0874
20101TIP3    H181794   3.268   2.389   2.941  0.1363  0.0727  0.2241
20101TIP3    H281795   3.386   2.482   2.960  0.5023 -0.3012 -0.1721
20102TIP3   OH281796   5.609   3.424  12.730 -0.2494 -0.8234 -0.2652
20102TIP3    H181797   5.518   3.454  12.728  0.4232  1.4198  0.1242
20102TIP3    H281798   5.624   3.390  12.641 -0.6101  1.6943 -1.3775
20103TIP3   OH281799   2.189   0.128  11.548 -0.2190  0.5697 -0.0076
20103TIP3    H181800   2.249   0.193  11.585  0.5025 -0.2989  0.3759
20103TIP3    H281801   2.225   0.044  11.575  0.1079 -0.1029 -2.3518
20104TIP3   OH281802   4.821   1.693   6.331  0.9884 -1.1039  0.0853
20104TIP3    H181803   4.809   1.779   6.371 -0.1540 -2.3175  2.5488
20104TIP3    H281804   4.738   1.675   6.287  1.2946 -0.8864 -0.5905
20105TIP3   OH281805   5.833   5.530  12.053 -0.1673  0.3161  0.1939
20105TIP3    H181806   5.877   5.573  11.979  0.8225  0.5265  0.8964
20105TIP3    H281807   5.900   5.475  12.093 -1.3951 -1.8943 -0.6436
20106TIP3   OH281808   3.419   4.461   2.123  0.4210  0.5267 -0.2109
20106TIP3    H181809   3.400   4.550   2.096  1.9993  1.5314  1.6967
20106TIP3    H281810   3.514   4.457   2.130  0.2928 -0.4655  2.2106
20107TIP3   OH281811   4.187   2.600   4.430 -0.1093  0.4629  0.4305
20107TIP3    H181812   4.244   2.528   4.405  0.9770  1.3105  0.3804
20107TIP3    H281813   4.180   2.654   4.352 -0.2507  0.8457  0.7041
20108TIP3   OH281814   0.129   1.667   0.651 -0.7328  0.0255  0.3954
20108TIP3    H181815   0.075   1.739   0.617  2.4829  1.6932 -1.6051
20108TIP3    H281816   0.191   1.709   0.710  1.6951 -0.8798 -1.3668
20109TIP3   OH281817   3.832   2.000  12.515 -0.2329  0.3305 -0.3390
20109TIP3    H181818   3.786   1.988  12.598 -1.5536  1.3666 -0.8881
20109TIP3    H281819   3.902   1.935  12.517  0.6263  1.2121  2.1815
20110TIP3   OH281820   4.466   3.256   4.107  0.5890 -0.4573  0.9392
20110TIP3    H181821   4.464   3.248   4.202  0.5969 -1.0475  0.8936
20110TIP3    H281822   4.538   3.316   4.090  0.5243 -0.2711  1.3097
20111TIP3   OH281823   5.684   4.209   0.007  0.0661 -0.2258 -0.2717
20111TIP3    H181824   5.679   4.138  -0.058 -0.2855 -3.1938  2.7365
20111TIP3    H281825   5.777   4.224   0.019  0.1411  0.7911 -1.7755
20112TIP3   OH281826   0.135   3.363  14.323 -0.4240  0.1662 -0.4879
20112TIP3    H181827   0.123   3.444  14.273  1.2089  0.8459  0.1335
20112TIP3    H281828   0.138   3.294  14.256  2.9217  1.1792 -1.5949
20113TIP3   OH281829   6.083   5.695   3.234 -0.1292 -0.4823  0.5277
20113TIP3    H181830   6.142   5.714   3.307 -1.6863  0.2008  1.6528
20113TIP3    H281831   6.008   5.753   3.248 -1.3286 -1.7257 -0.5472
20114TIP3   OH281832   3.380   4.785   3.560  0.0163  0.1979  0.0239
20114TIP3    H181833   3.405   4.729   3.634  1.3108  0.0910 -0.4679
20114TIP3    H281834   3.402   4.873   3.589  0.0527  0.2068 -0.0304
20115TIP3   OH281835   6.487   6.590   0.291 -0.0553  0.2118  0.2815
20115TIP3    H181836   6.488   6.632   0.205  0.7421 -1.5383 -0.6053
20115TIP3    H281837   6.579   6.592   0.319 -0.2732  0.5616  1.0017
20116TIP3   OH281838   4.751   3.297  11.351 -0.5596  0.0815  0.2904
20116TIP3    H181839   4.843   3.317  11.366  0.0451 -1.6197 -0.8162
20116TIP3    H281840   4.723   3.361  11.284 -0.0466  0.2899  0.2704
20117TIP3   OH281841   2.083   4.797   5.344 -0.2065  0.1397  0.1434
20117TIP3    H181842   2.139   4.755   5.410 -0.7257 -1.7584 -0.5606
20117TIP3    H281843   2.106   4.754   5.262 -1.2570  0.7869 -0.5077
20118TIP3   OH281844   5.254   2.712  13.876  0.2713  0.2204  0.1468
20118TIP3    H181845   5.236   2.737  13.967  0.1914 -1.7864  0.7407
20118TIP3    H281846   5.256   2.616  13.878 -2.1013  0.0073 -2.4363
20119TIP3   OH281847   4.068   1.309  15.460  0.0274 -0.1379  0.6712
20119TIP3    H181848   4.020   1.392  15.461  0.5016  0.1485  0.3604
20119TIP3    H281849   4.154   1.332  15.496  1.1829  0.1600 -2.0277
20120TIP3   OH281850   4.099   1.688  13.405 -0.2471  0.2955 -0.1230
20120TIP3    H181851   4.176   1.632  13.390 -0.7484  0.0299 -2.0243
20120TIP3    H281852   4.026   1.639  13.367 -0.7865  1.9537 -1.3591
20121TIP3   OH281853   4.075   1.141   1.984 -0.3434  0.1214  0.1358
20121TIP3    H181854   4.035   1.072   1.929  1.3889 -2.3241  1.7324
20121TIP3    H281855   4.168   1.137   1.963 -0.2710  2.7483 -0.3959
20122TIP3   OH281856   4.425   6.687   5.782  0.2306 -0.1618  0.3713
20122TIP3    H181857   4.406   6.601   5.820 -0.1224  0.0121  0.5987
20122TIP3    H281858   4.364   6.695   5.708  0.9552 -0.5218 -0.2721
20123TIP3   OH281859   5.956   2.306   5.896 -0.2463 -0.0002 -0.1285
20123TIP3    H181860   5.874   2.261   5.875 -0.2180 -0.0328 -0.1698
20123TIP3    H281861   5.965   2.296   5.991  0.9793 -2.1888 -0.4122
20124TIP3   OH281862   4.122   4.474  13.137  0.7663 -0.4853  0.0167
20124TIP3    H181863   4.207   4.465  13.095  0.7912 -0.4097  0.0519
20124TIP3    H281864   4.089   4.558  13.107  0.3705 -0.8508 -0.6057
20125TIP3   OH281865   1.618   4.685   5.699  0.3158 -0.5311 -0.0470
20125TIP3    H181866   1.602   4.639   5.616 -0.3445 -0.6037  0.1155
20125TIP3    H281867   1.674   4.758   5.675 -0.4083 -0.1620 -0.6855
20126TIP3   OH281868   3.787   6.623   3.562 -0.6071 -0.1422 -0.2200
20126TIP3    H181869   3.835   6.567   3.502  1.7408  0.9623  0.4779
20126TIP3    H281870   3.750   6.692   3.507  1.6989  0.9774 -0.5000
20127TIP3   OH281871   3.212   5.501   3.607  0.7466 -0.6795  0.2724
20127TIP3    H181872   3.216   5.476   3.700 -0.0024  2.1724  1.1530
20127TIP3    H281873   3.136   5.559   3.601  1.6480  0.3785 -1.8386
20128TIP3   OH281874   1.249   6.299  15.479  0.0119  0.0713 -0.6467
20128TIP3    H181875   1.313   6.229  15.463 -0.4563 -0.9351  1.5428
20128TIP3    H281876   1.302   6.375  15.502  0.4984 -0.7001  0.9625
20129TIP3   OH281877   2.497   3.784  13.089  0.3766  0.0458 -0.4045
20129TIP3    H181878   2.442   3.862  13.092  0.2383 -0.0788  0.7485
20129TIP3    H281879   2.448   3.718  13.138  1.0391 -0.3924 -0.3233
20130TIP3   OH281880   1.201   4.114   2.282 -0.2389 -0.3063  1.0473
20130TIP3    H181881   1.239   4.096   2.196 -1.1760 -1.7635  0.8996
20130TIP3    H281882   1.248   4.055   2.342 -1.6027 -1.5032  1.0000
20131TIP3   OH281883   3.983   4.500  15.589  0.4372 -0.1452  0.2943
20131TIP3    H181884   4.061   4.541  15.625  0.6299 -1.2175  1.1409
20131TIP3    H281885   3.924   4.489  15.664 -0.3842  0.3116 -0.2658
20132TIP3   OH281886   1.330   2.591   2.379  0.1796  0.1041 -0.2532
20132TIP3    H181887   1.330   2.496   2.392  0.0353  0.0417 -0.7155
20132TIP3    H281888   1.416   2.619   2.411 -0.6228  0.1239  2.0763
20133TIP3   OH281889   4.961   5.471  12.684  0.3682 -0.0291 -0.2881
20133TIP3    H181890   5.054   5.492  12.671  0.0797  1.5455  0.0054
20133TIP3    H281891   4.916   5.520  12.616 -0.3073 -0.2645 -0.0144
20134TIP3   OH281892   4.143   0.291  12.077 -0.4698  0.5777 -0.0151
20134TIP3    H181893   4.111   0.215  12.126 -0.5690  1.0862  0.7191
20134TIP3    H281894   4.235   0.271  12.059 -1.1853 -1.0268 -2.3873
20135TIP3   OH281895   4.175   2.717  15.400  0.8967 -0.4106  0.4245
20135TIP3    H181896   4.158   2.683  15.312 -1.8074  1.3207  0.1741
20135TIP3    H281897   4.228   2.795  15.385  1.7763 -0.9685  0.5140
20136TIP3   OH281898   0.357   1.375  16.412  0.1167  0.4985 -0.1441
20136TIP3    H181899   0.452   1.376  16.429 -0.0454  1.1128  0.7840
20136TIP3    H281900   0.349   1.332  16.327  1.1845 -0.1342  0.0524
20137TIP3   OH281901   1.504   3.177   6.048 -0.2608  0.0496  0.3265
20137TIP3    H181902   1.551   3.260   6.054  0.1335  0.0866 -2.1932
20137TIP3    H281903   1.537   3.125   6.121  1.9153  0.9662  0.0719
20138TIP3   OH281904   5.140   6.392   0.758 -0.1395 -0.1642  0.6398
20138TIP3    H181905   5.100   6.400   0.671 -0.0637 -0.6512  0.5607
20138TIP3    H281906   5.184   6.476   0.771  0.6129 -0.4149 -0.1790
20139TIP3   OH281907   4.381   4.313  15.905  0.6062  0.4631 -0.1523
20139TIP3    H181908   4.450   4.359  15.858  1.6227 -0.1056  0.7168
20139TIP3    H281909   4.350   4.246  15.844 -0.1384  1.5773 -1.0317
20140TIP3   OH281910   0.801   4.133   3.611 -0.3793 -0.2082 -0.2291
20140TIP3    H181911   0.760   4.053   3.645  1.2273 -0.6857  0.6724
20140TIP3    H281912   0.892   4.127   3.640 -0.3255  2.1766  0.2768
20141TIP3   OH281913   4.378   6.190   2.531 -1.4223 -0.0244 -0.1777
20141TIP3    H181914   4.319   6.143   2.589 -0.1474 -0.2715  0.9851
20141TIP3    H281915   4.389   6.276   2.572  0.5798 -0.6805  0.7768
20142TIP3   OH281916   0.999   5.182   5.128  0.3562 -0.1634  0.2318
20142TIP3    H181917   0.945   5.170   5.050  0.3281  1.0312  0.0424
20142TIP3    H281918   1.060   5.108   5.128  0.1846 -0.3075 -0.7791
20143TIP3   OH281919   5.006   6.810  16.177 -0.3859 -0.1452 -0.4265
20143TIP3    H181920   4.932   6.870  16.169  1.2865  1.8851 -2.3163
20143TIP3    H281921   5.081   6.861  16.143  1.7685 -2.2532  0.8477
20144TIP3   OH281922   5.377   3.930   0.213 -0.3745  0.1445  0.2001
20144TIP3    H181923   5.433   3.943   0.137 -0.7917  0.1785 -0.1059
20144TIP3    H281924   5.299   3.886   0.179 -1.6977  2.4010  0.1328
20145TIP3   OH281925   6.259   4.908  14.130 -0.4477 -0.2288  1.2254
20145TIP3    H181926   6.252   4.893  14.035 -1.2857 -0.3741  1.3115
20145TIP3    H281927   6.333   4.853  14.157 -0.9164 -1.0583  0.8490
20146TIP3   OH281928   3.126   3.197  11.272 -0.4967 -0.1630 -0.4051
20146TIP3    H181929   3.097   3.153  11.353 -1.0073 -0.5684 -0.8007
20146TIP3    H281930   3.052   3.188  11.212  0.0351 -0.2312 -1.0631
20147TIP3   OH281931   1.909   4.281  13.524  0.1181  0.0083  0.5117
20147TIP3    H181932   1.828   4.248  13.563 -0.4492  0.1078 -0.5444
20147TIP3    H281933   1.890   4.287  13.430  1.2621  0.2926  0.2817
20148TIP3   OH281934   5.525   4.081  16.528  0.1756  0.1818 -0.7140
20148TIP3    H181935   5.472   4.085  16.449 -0.3428  0.9693 -0.3433
20148TIP3    H281936   5.533   3.988  16.548 -0.9344  0.0420 -0.8676
20149TIP3   OH281937   2.967   1.911  15.951 -0.0107 -0.6870  0.1451
20149TIP3    H181938   2.967   1.839  15.888 -0.0910 -2.5316  2.1220
20149TIP3    H281939   3.056   1.945  15.948  0.1709 -1.1879 -0.4891
20150TIP3   OH281940   3.744   6.811  14.889  0.0928 -0.1776  0.1226
20150TIP3    H181941   3.757   6.744  14.821 -1.5622  1.3696 -1.8510
20150TIP3    H281942   3.650   6.824  14.892  0.3574  1.9890  0.5317
20151TIP3   OH281943   1.426   5.811  14.075 -0.5620  0.4736 -0.4092
20151TIP3    H181944   1.409   5.888  14.130 -1.7110 -0.8073  1.1611
20151TIP3    H281945   1.349   5.805  14.019 -0.8910  0.0115  0.0779
20152TIP3   OH281946   4.692   2.453  15.052  0.3240 -0.1560 -0.1602
20152TIP3    H181947   4.678   2.548  15.055  1.1455 -0.0388  0.3688
20152TIP3    H281948   4.667   2.423  15.140 -0.3971 -0.5055 -0.4782
20153TIP3   OH281949   4.903   2.327  11.887 -0.6954 -0.2535 -0.0138
20153TIP3    H181950   4.950   2.410  11.900  1.8241 -1.9051  2.5187
20153TIP3    H281951   4.819   2.341  11.930 -0.8098  1.3385 -0.6641
20154TIP3   OH281952   1.652   4.388   0.007 -0.8778 -0.3982  0.1046
20154TIP3    H181953   1.629   4.302   0.043 -0.5220 -0.1111  1.0506
20154TIP3    H281954   1.748   4.392   0.015 -0.8456 -0.1047 -0.3859
20155TIP3   OH281955   1.950   6.807   4.678 -0.3149  0.0563 -0.2155
20155TIP3    H181956   1.993   6.747   4.739  0.0400 -0.5093 -0.9967
20155TIP3    H281957   2.018   6.870   4.654 -0.4520  0.2764 -0.0246
20156TIP3   OH281958   6.295   2.325   0.437  0.2590 -0.2383  0.5269
20156TIP3    H181959   6.218   2.287   0.479  0.5445 -0.9394  0.4388
20156TIP3    H281960   6.351   2.249   0.417  1.5921  0.3549  1.8286
20157TIP3   OH281961   4.505   4.942   5.494 -0.1057 -0.1170  0.8401
20157TIP3    H181962   4.577   4.908   5.441 -0.3825 -0.5244  0.7197
20157TIP3    H281963   4.480   5.024   5.452 -1.1074 -1.0109 -0.3854
20158TIP3   OH281964   2.989   3.082   5.190 -0.3239 -0.0285  0.6955
20158TIP3    H181965   2.953   3.141   5.257  2.6437  1.0165  1.5160
20158TIP3    H281966   3.025   3.008   5.239 -0.4727 -0.5685  0.0034
20159TIP3   OH281967   3.750   0.455   2.649  0.2219 -0.0436 -0.8403
20159TIP3    H181968   3.694   0.482   2.722 -0.1163  1.2980 -1.5665
20159TIP3    H281969   3.814   0.395   2.689  0.1907  0.8335  0.6104
20160TIP3   OH281970   6.257   3.433  14.680  0.8061  0.2167  0.1702
20160TIP3    H181971   6.221   3.372  14.745 -0.5143 -0.2356 -0.9459
20160TIP3    H281972   6.329   3.385  14.639  0.9527  0.1134  0.5384
20161TIP3   OH281973   0.781   4.853  12.762  0.0063 -0.4028 -0.1385
20161TIP3    H181974   0.793   4.760  12.744  0.9886 -0.2607 -0.2744
20161TIP3    H281975   0.747   4.856  12.851 -2.9796 -1.0180 -1.1312
20162TIP3   OH281976   0.417   1.041  12.849  0.5512  0.7121  0.2135
20162TIP3    H181977   0.477   1.045  12.775 -0.2085  0.6765 -0.4096
20162TIP3    H281978   0.330   1.042  12.810  0.1452 -0.3552  1.0499
20163TIP3   OH281979   1.010   1.899  16.214 -0.6071  0.1022 -0.1342
20163TIP3    H181980   0.915   1.900  16.227 -0.3196  1.2527  2.2602
20163TIP3    H281981   1.045   1.949  16.287  1.8104  0.5774 -1.5156
20164TIP3   OH281982   2.015   2.459   1.906 -0.4340 -0.1998  0.0082
20164TIP3    H181983   2.044   2.468   1.816  0.9403 -0.0147  0.4490
20164TIP3    H281984   1.923   2.433   1.899 -0.3303 -0.2554 -1.4306
20165TIP3   OH281985   3.914   4.708   0.743 -0.0610 -0.0712  0.6396
20165TIP3    H181986   3.861   4.752   0.676 -1.8156 -2.6935  0.1688
20165TIP3    H281987   3.981   4.662   0.693 -0.3508 -0.6758  0.7933
20166TIP3   OH281988   2.688   2.378   1.570 -0.0293  0.2042 -0.2541
20166TIP3    H181989   2.668   2.422   1.653  2.3190  0.1664  0.4002
20166TIP3    H281990   2.709   2.449   1.510 -0.2122  0.1600 -0.3694
20167TIP3   OH281991   6.289   3.888  11.670 -0.0867 -0.8497 -0.1097
20167TIP3    H181992   6.310   3.929  11.587 -3.0445  0.5689 -0.2702
20167TIP3    H281993   6.273   3.796  11.648 -1.0694 -0.4444 -1.1588
20168TIP3   OH281994   1.266   4.938   1.604 -0.0824  0.7557  0.1189
20168TIP3    H181995   1.267   4.910   1.513  0.1702 -1.3975  0.7328
20168TIP3    H281996   1.182   4.906   1.638  0.4425  0.2768  0.9946
20169TIP3   OH281997   4.280   1.282  11.696  0.1460 -0.1255 -0.0087
20169TIP3    H181998   4.362   1.233  11.705  0.2273  0.2834  1.9649
20169TIP3    H281999   4.307   1.367  11.660  0.5029 -0.2521 -0.0405
20170TIP3   OH282000   5.281   1.254  13.705  0.3031  0.4671 -0.1629
20170TIP3    H182001   5.290   1.249  13.800  0.0042  2.3806 -0.0079
20170TIP3    H282002   5.265   1.163  13.679  0.9693 -0.1897  1.5324
20171TIP3   OH282003   5.162   6.461   2.602 -0.0601 -0.1431  0.2722
20171TIP3    H182004   5.250   6.439   2.631 -0.2214 -0.8434  0.2289
20171TIP3    H282005   5.174   6.498   2.515  0.1771 -0.3647  0.2101
20172TIP3   OH282006   6.424   5.256  12.043 -0.0827 -0.3489 -0.2275
20172TIP3    H182007   6.373   5.258  11.961  0.2334 -0.5514 -0.4327
20172TIP3    H282008   6.400   5.337  12.088  0.7129  0.4215 -1.1226
20173TIP3   OH282009   4.874   0.524  14.196  0.0067 -0.8053  0.2614
20173TIP3    H182010   4.830   0.515  14.111 -0.5525 -0.0369  0.4506
20173TIP3    H282011   4.803   0.536  14.259  0.4749  1.6555  0.4212
20174TIP3   OH282012   4.769   2.737   2.220 -0.5302 -0.0121 -0.2822
20174TIP3    H182013   4.738   2.752   2.130 -3.3363 -0.1306  0.5614
20174TIP3    H282014   4.790   2.825   2.253 -0.5501  0.1601 -0.7202
20175TIP3   OH282015   0.899   1.064  13.788 -0.4095  0.1119 -0.4170
20175TIP3    H182016   0.812   1.102  13.798  0.3178  1.9422 -0.6746
20175TIP3    H282017   0.930   1.050  13.878 -1.3370 -1.5416 -0.3174
20176TIP3   OH282018   1.085   3.359  15.379  0.1542  0.6720  0.2359
20176TIP3    H182019   1.112   3.340  15.469 -1.0242  0.3638  0.5443
20176TIP3    H282020   0.993   3.333  15.376  0.3781 -0.0454 -1.2769
20177TIP3   OH282021   1.249   5.927   0.092  0.5735  0.1604  0.9967
20177TIP3    H182022   1.207   6.006   0.128 -0.1092 -0.6026  1.9498
20177TIP3    H282023   1.178   5.863   0.087  0.9669 -0.1884 -0.4540
20178TIP3   OH282024   5.341   6.755  13.283  0.5087  0.0340  0.1691
20178TIP3    H182025   5.262   6.760  13.337  0.0817  0.7917 -0.5024
20178TIP3    H282026   5.331   6.673  13.235 -0.2048  0.4409 -0.4000
20179TIP3   OH282027   4.131   1.861   0.936 -0.1032 -0.0580 -0.7031
20179TIP3    H182028   4.107   1.826   0.850  0.4079  1.3047 -1.4314
20179TIP3    H282029   4.049   1.858   0.986 -0.2003 -1.7097 -0.9082
20180TIP3   OH282030   4.386   5.161  12.889 -0.0883 -0.0435 -0.4443
20180TIP3    H182031   4.459   5.190  12.834 -0.0018  0.9530  0.1798
20180TIP3    H282032   4.308   5.188  12.841 -0.0099  1.4756  0.2236
20181TIP3   OH282033   4.065   5.703  13.703  0.2054 -0.0283 -0.6751
20181TIP3    H182034   4.024   5.687  13.618  0.5555  2.0617 -1.2898
20181TIP3    H282035   4.131   5.770  13.686  1.6748 -0.9864  0.9076
20182TIP3   OH282036   5.000   4.854  10.776  0.3951  0.3408 -0.0790
20182TIP3    H182037   4.944   4.926  10.807  0.4207  0.6242 -0.6757
20182TIP3    H282038   4.948   4.775  10.790  0.2235  0.5108  0.2472
20183TIP3   OH282039   0.373   5.065  15.620 -0.8829  0.6819 -0.1070
20183TIP3    H182040   0.357   4.988  15.675 -0.8694  1.0708  0.4471
20183TIP3    H282041   0.334   5.042  15.535 -0.1528 -0.2637 -0.2110
20184TIP3   OH282042   3.914   6.451  16.717  0.5518 -0.5033 -0.1752
20184TIP3    H182043   3.963   6.396  16.779 -1.3376 -0.9965  0.9539
20184TIP3    H282044   3.968   6.529  16.708  1.4589 -0.9302  1.1709
20185TIP3   OH282045   4.750   6.255  16.953 -0.2750 -0.6471 -0.4758
20185TIP3    H182046   4.804   6.256  17.032 -0.2848 -0.2481 -0.4689
20185TIP3    H282047   4.729   6.347  16.938  0.2619 -0.6524 -1.3097
20186TIP3   OH282048   1.907   5.408   0.221  0.4597 -0.6563 -0.3357
20186TIP3    H182049   1.892   5.402   0.126  0.5320  0.0050 -0.3991
20186TIP3    H282050   1.903   5.502   0.239 -1.2751 -0.8940  0.6223
20187TIP3   OH282051   6.298   2.996  12.700  0.0146  0.5275  0.5636
20187TIP3    H182052   6.322   2.949  12.620  0.3697 -1.9325  2.0156
20187TIP3    H282053   6.250   3.073  12.669 -2.1635 -1.6364 -2.0117
20188TIP3   OH282054   4.575   3.387   0.908  0.2234 -0.5178  0.3590
20188TIP3    H182055   4.481   3.372   0.907  0.1621 -0.2198  0.9738
20188TIP3    H282056   4.600   3.395   0.816 -0.7002  1.5521  0.2529
20189TIP3   OH282057   4.506   5.731  11.564  0.1746 -0.0335  0.4369
20189TIP3    H182058   4.491   5.756  11.655 -0.9323 -1.0375  0.5442
20189TIP3    H282059   4.546   5.809  11.525  0.6138  0.4284  1.7555
20190TIP3   OH282060   3.640   3.580   2.667 -0.0507 -0.3939  0.4040
20190TIP3    H182061   3.573   3.598   2.601  1.3893 -1.4817 -1.4592
20190TIP3    H282062   3.594   3.588   2.750 -2.4497 -0.8846 -0.7765
20191TIP3   OH282063   6.072   4.065  13.141  0.6412  0.0574 -0.0236
20191TIP3    H182064   6.018   3.987  13.131 -0.0197  0.4259  0.5369
20191TIP3    H282065   6.132   4.063  13.067  0.7760 -1.0947  0.1083
20192TIP3   OH282066   0.622   5.414   2.365 -0.8242  0.7463 -0.0411
20192TIP3    H182067   0.652   5.361   2.440 -0.9209 -2.0400 -1.8094
20192TIP3    H282068   0.527   5.411   2.370 -0.8308  0.5676 -0.2334
20193TIP3   OH282069   0.839   5.682  14.148 -0.1793 -0.1560  0.5034
20193TIP3    H182070   0.750   5.717  14.137 -0.5446 -1.0890  0.3730
20193TIP3    H282071   0.825   5.596  14.187  0.7203  0.0110  1.2027
20194TIP3   OH282072   4.555   6.431  13.635 -0.3114  0.1654  0.2508
20194TIP3    H182073   4.523   6.519  13.614  0.9041  0.3195 -1.1391
20194TIP3    H282074   4.516   6.375  13.568  1.5518  0.2388 -0.9976
20195TIP3   OH282075   0.826   0.773   4.153 -0.0355 -0.1594 -0.0186
20195TIP3    H182076   0.750   0.812   4.197 -0.6402 -1.2245 -0.0781
20195TIP3    H282077   0.867   0.846   4.107 -0.8987  0.4771  0.1967
20196TIP3   OH282078   2.609   3.608  10.457  0.1681 -0.4193 -0.1644
20196TIP3    H182079   2.691   3.571  10.426  1.4129  1.1000  1.0852
20196TIP3    H282080   2.579   3.547  10.525  0.6121 -0.6646 -0.1853
20197TIP3   OH282081   2.875   0.563  13.308  0.0041  0.0334  0.4229
20197TIP3    H182082   2.894   0.581  13.401  0.9842  1.2780  0.0111
20197TIP3    H282083   2.779   0.557  13.305 -0.0120 -0.7834  1.6357
20198TIP3   OH282084   1.045   1.313  16.441 -0.4068 -0.3178  0.2885
20198TIP3    H182085   1.069   1.299  16.350 -0.4465 -0.6876  0.3335
20198TIP3    H282086   0.986   1.241  16.462  1.3379 -1.5537  1.2571
20199TIP3   OH282087   1.999   1.090   3.946 -0.8763  0.2360 -0.8985
20199TIP3    H182088   2.082   1.042   3.937  0.2918  2.3309 -2.1143
20199TIP3    H282089   1.964   1.061   4.031  3.1989  2.1833  1.8096
20200TIP3   OH282090   2.733   6.688  12.380  0.1994 -0.6241 -0.5172
20200TIP3    H182091   2.640   6.668  12.375  0.0893 -0.0528 -0.9121
20200TIP3    H282092   2.759   6.661  12.468 -0.2418 -1.1713 -0.5497
20201TIP3   OH282093   2.924   5.754  12.924  0.1764  0.0259 -0.2072
20201TIP3    H182094   2.851   5.768  12.863  0.3466  0.8842 -0.2215
20201TIP3    H282095   3.002   5.783  12.876  0.3925  0.1097  0.1892
20202TIP3   OH282096   0.136   2.942   2.086 -0.4099 -0.2220 -0.1499
20202TIP3    H182097   0.225   2.912   2.068  0.1343  0.7208  0.8541
20202TIP3    H282098   0.087   2.918   2.008  0.4743 -1.7174 -0.2814
20203TIP3   OH282099   5.827   0.582  16.572  0.2034 -0.1578  0.0873
20203TIP3    H182100   5.865   0.520  16.510  0.4793 -0.8021  0.8828
20203TIP3    H282101   5.805   0.529  16.649  0.6074  0.7605  0.8507
20204TIP3   OH282102   1.368   2.281   5.211 -0.1178 -0.5308 -0.6417
20204TIP3    H182103   1.341   2.266   5.120 -0.6198 -0.0428 -0.5756
20204TIP3    H282104   1.461   2.303   5.205  0.4820 -2.8447 -0.8157
20205TIP3   OH282105   4.782   0.129   3.426 -0.3720 -0.1005  0.6915
20205TIP3    H182106   4.757   0.176   3.347  0.0559 -1.2577 -0.1630
20205TIP3    H282107   4.828   0.194   3.479  3.0017 -0.1778 -1.8081
20206TIP3   OH282108   3.692   1.947  15.373  0.0241  0.1551  0.0426
20206TIP3    H182109   3.607   1.941  15.417  1.1991 -1.2173  2.3175
20206TIP3    H282110   3.704   1.862  15.331  1.6150 -1.0084  2.5899
20207TIP3   OH282111   0.977   6.636  16.850  0.0383 -0.0859  0.4064
20207TIP3    H182112   0.885   6.636  16.822  0.4244  2.8654 -1.2983
20207TIP3    H282113   0.985   6.715  16.903  2.0791  1.2130 -1.6368
20208TIP3   OH282114   0.332   5.211  12.107  0.0412 -0.0466  0.2273
20208TIP3    H182115   0.394   5.194  12.036  1.4981  1.4912  1.0586
20208TIP3    H282116   0.387   5.227  12.183 -1.3602  1.5836  0.9521
20209TIP3   OH282117   1.425   0.194  14.926 -0.3230  0.0501  0.2405
20209TIP3    H182118   1.497   0.257  14.929 -1.3313  1.2537  0.1810
20209TIP3    H282119   1.349   0.246  14.899 -1.2091 -1.1831  0.2766
20210TIP3   OH282120   1.696   5.789  11.480 -0.3731  0.0198  0.2461
20210TIP3    H182121   1.771   5.812  11.535 -0.8523  2.0272  0.1702
20210TIP3    H282122   1.732   5.791  11.391  0.0156 -1.5038  0.3536
20211TIP3   OH282123   4.443   0.484   5.968 -0.0049  0.5653 -0.7064
20211TIP3    H182124   4.486   0.428   5.903 -0.2464  0.9380 -1.1941
20211TIP3    H282125   4.356   0.500   5.932 -0.2195  0.6068 -0.1854
20212TIP3   OH282126   3.955   4.041   4.575 -0.5102  0.3286 -0.6292
20212TIP3    H182127   4.031   4.097   4.557  0.2196 -0.5854 -0.4658
20212TIP3    H282128   3.880   4.092   4.544  0.2741  0.7465 -1.9045
20213TIP3   OH282129   0.273   1.969  13.259 -0.2125 -0.3018  0.7535
20213TIP3    H182130   0.196   1.914  13.274 -0.2794  0.0197  1.6806
20213TIP3    H282131   0.333   1.946  13.330  0.4637 -0.3975  0.1583
20214TIP3   OH282132   5.255   0.750   5.792 -0.8631  0.2457 -0.3611
20214TIP3    H182133   5.243   0.661   5.827 -1.5818  0.8185  0.9213
20214TIP3    H282134   5.349   0.758   5.777 -0.7050 -0.4965  0.1817
20215TIP3   OH282135   5.559   3.339  15.412 -0.3811 -0.1709  0.0736
20215TIP3    H182136   5.521   3.263  15.369 -3.1612  0.5429  1.0476
20215TIP3    H282137   5.538   3.413  15.354  0.4671  0.1217  0.1263
20216TIP3   OH282138   6.390   5.495  12.142  0.3673 -0.1111  0.0819
20216TIP3    H182139   6.422   5.575  12.101 -1.5338  0.2663 -0.7829
20216TIP3    H282140   6.317   5.523  12.197  1.3927 -0.9284  1.9647
20217TIP3   OH282141   6.536   0.277   3.756 -0.3116  0.2618 -0.5779
20217TIP3    H182142   6.482   0.275   3.835  1.3158 -1.1291  0.5636
20217TIP3    H282143   6.576   0.363   3.756 -0.8694  0.5250 -0.2808
20218TIP3   OH282144   5.929   5.967  11.445 -0.3867  0.0561  0.0176
20218TIP3    H182145   5.999   5.925  11.495 -0.6394  0.6203  0.8717
20218TIP3    H282146   5.881   6.018  11.510 -0.3197  1.3541 -0.9143
20219TIP3   OH282147   3.024   2.690   4.958  0.3295 -0.2068 -0.3290
20219TIP3    H182148   3.011   2.778   4.924  0.5412 -0.3442 -0.7729
20219TIP3    H282149   2.989   2.632   4.889  2.1976 -0.5458 -1.0359
20220TIP3   OH282150   6.574   1.436   1.564 -0.2146  0.1566 -0.4455
20220TIP3    H182151   6.643   1.394   1.513  1.1954  0.4301  1.1204
20220TIP3    H282152   6.609   1.522   1.585 -1.1285  0.3811  0.2245
20221TIP3   OH282153   0.976   2.583  11.168 -0.4113  0.6538 -0.3333
20221TIP3    H182154   1.015   2.659  11.212 -0.4614  0.2444  0.4448
20221TIP3    H282155   1.045   2.551  11.111  0.1093  0.4560  0.3836
20222TIP3   OH282156   2.380   0.232  16.261 -0.2202  0.1124  0.3047
20222TIP3    H182157   2.393   0.142  16.230  1.4829  0.7980 -1.1983
20222TIP3    H282158   2.338   0.276  16.187 -0.6121  0.6636  0.8522
20223TIP3   OH282159   2.952   5.095   1.125  0.2433 -0.3709  0.2152
20223TIP3    H182160   2.952   5.041   1.046  0.1103 -0.8738  0.5517
20223TIP3    H282161   3.035   5.073   1.168  0.4796  0.1650  0.0422
20224TIP3   OH282162   5.721   1.280   0.226 -0.4740 -0.2045  0.2098
20224TIP3    H182163   5.784   1.347   0.253  0.0040 -0.9652  1.0108
20224TIP3    H282164   5.773   1.215   0.180 -0.1954 -2.0235  2.8800
20225TIP3   OH282165   2.663   1.111  13.550  0.0678  0.1627  0.6936
20225TIP3    H182166   2.587   1.160  13.519 -0.0425 -0.6322 -0.3398
20225TIP3    H282167   2.722   1.178  13.585  0.6407  1.3042 -2.1853
20226TIP3   OH282168   5.553   1.823  12.906  0.1824 -0.1115  0.4268
20226TIP3    H182169   5.633   1.771  12.898 -0.8590 -1.8538  0.8439
20226TIP3    H282170   5.528   1.843  12.815 -1.3159 -3.5205 -0.0727
20227TIP3   OH282171   2.123   4.795   1.262  0.1766 -0.1079  0.2596
20227TIP3    H182172   2.079   4.873   1.296 -1.5024 -1.8372  2.3664
20227TIP3    H282173   2.156   4.750   1.339  2.2421 -0.9022 -1.0026
20228TIP3   OH282174   1.394   1.340   5.769 -0.1463 -0.0122  0.1918
20228TIP3    H182175   1.404   1.434   5.785 -0.5889 -0.0860  1.0150
20228TIP3    H282176   1.419   1.299   5.852 -0.9122 -0.5513  0.1718
20229TIP3   OH282177   0.665   3.489   5.787  0.1375  0.5103 -0.0135
20229TIP3    H182178   0.615   3.475   5.868  0.6261  2.0565  0.6025
20229TIP3    H282179   0.649   3.581   5.766  0.6830  0.3353 -1.2351
20230TIP3   OH282180   6.741   6.190   6.188  0.1769  0.1758  0.2011
20230TIP3    H182181   6.753   6.165   6.279 -1.4120 -0.4643  0.2818
20230TIP3    H282182   6.702   6.278   6.192 -0.8465 -0.2656  0.1977
20231TIP3   OH282183   6.108   3.057   0.435 -0.2601 -0.4013  0.8275
20231TIP3    H182184   6.117   3.051   0.530 -0.0626 -1.5367  0.7603
20231TIP3    H282185   6.067   2.974   0.410 -0.1789 -0.1751 -0.0916
20232TIP3   OH282186   0.525   4.252  15.182  0.0563  0.3265  0.6542
20232TIP3    H182187   0.621   4.247  15.179 -0.0186 -2.5077  0.0242
20232TIP3    H282188   0.502   4.297  15.100  0.8231 -0.0710  0.2020
20233TIP3   OH282189   2.856   5.749  12.427  0.1789 -0.0767  0.3221
20233TIP3    H182190   2.845   5.840  12.398 -1.2273  0.0729  1.1977
20233TIP3    H282191   2.944   5.745  12.463  1.0449  0.3738 -1.6024
20234TIP3   OH282192   4.809   3.388   3.526 -0.2223  0.9304  0.9900
20234TIP3    H182193   4.740   3.419   3.467  0.0468 -0.8921 -0.3774
20234TIP3    H282194   4.772   3.309   3.567  0.6878  0.4624  0.9356
20235TIP3   OH282195   4.620   3.259  15.738  0.7662 -0.1252 -0.2046
20235TIP3    H182196   4.568   3.181  15.718 -2.3598  1.2602  1.7212
20235TIP3    H282197   4.594   3.322  15.670 -0.7961  0.7953  1.1547
20236TIP3   OH282198   1.030   1.940   2.278 -0.1821 -0.2326 -0.4395
20236TIP3    H182199   1.112   1.896   2.252  0.7583  1.4073 -0.3706
20236TIP3    H282200   1.046   1.968   2.368 -0.9671 -0.2049 -0.3036
20237TIP3   OH282201   3.046   1.001  17.178 -0.2753  0.0277 -0.3695
20237TIP3    H182202   2.952   0.990  17.166 -0.9499  1.0702  2.8830
20237TIP3    H282203   3.062   1.094  17.164  0.1025  0.0136 -0.0634
20238TIP3   OH282204   2.872   2.269  13.880  0.0127 -0.2417  0.9062
20238TIP3    H182205   2.907   2.306  13.798  0.7891  1.1083  1.8112
20238TIP3    H282206   2.780   2.253  13.861  0.0293  0.6558 -0.0474
20239TIP3   OH282207   0.070   2.310  15.516 -0.4292 -0.6619  0.3075
20239TIP3    H182208  -0.013   2.275  15.548 -0.7725 -0.4289 -0.3139
20239TIP3    H282209   0.136   2.270  15.573 -0.7878 -2.4538 -0.4353
20240TIP3   OH282210   1.200   4.730   0.126 -0.4454 -0.0549 -0.1114
20240TIP3    H182211   1.260   4.711   0.198 -2.4094  0.0358  1.6520
20240TIP3    H282212   1.252   4.715   0.047  1.5977 -0.8701  1.2936
20241TIP3   OH282213   0.449   5.707   2.197 -0.2226  0.1144 -0.0386
20241TIP3    H182214   0.358   5.721   2.171 -1.1130 -2.4698  1.3458
20241TIP3    H282215   0.449   5.716   2.292  1.3082  1.5151 -0.1357
20242TIP3   OH282216   1.787   4.649   1.485 -0.5350 -0.0228  0.4974
20242TIP3    H182217   1.808   4.683   1.572  1.8289 -0.8091  0.3045
20242TIP3    H282218   1.821   4.559   1.486 -1.7281 -0.5175 -0.8008
20243TIP3   OH282219   5.876   6.074  13.012  0.0982  0.0688  0.3437
20243TIP3    H182220   5.971   6.063  13.021  0.2500 -0.4894 -1.4519
20243TIP3    H282221   5.839   5.997  13.055  0.4978 -0.0169  0.5412
20244TIP3   OH282222   3.990   5.921  16.663  0.0000  0.4811 -0.2632
20244TIP3    H182223   3.992   6.007  16.705  1.4907 -0.4024  1.6358
20244TIP3    H282224   3.900   5.890  16.677  0.0618  0.8206  1.0832
20245TIP3   OH282225   4.586   3.764  13.296  0.4630  0.2474  0.3938
20245TIP3    H182226   4.510   3.812  13.264  1.1275  0.4713 -0.8987
20245TIP3    H282227   4.556   3.724  13.377 -1.4976 -0.8578 -0.7982
20246TIP3   OH282228   6.236   3.011  11.208 -0.3356  0.1211 -0.1695
20246TIP3    H182229   6.168   3.049  11.152 -0.9840 -1.5880 -0.5821
20246TIP3    H282230   6.252   2.924  11.171  0.7853 -0.2058  1.0165
20247TIP3   OH282231   2.989   1.015   5.010  0.0028  0.3326  0.1465
20247TIP3    H182232   2.895   1.023   4.992  0.4799  0.4405 -2.9218
20247TIP3    H282233   3.014   0.932   4.970  0.9738 -0.5753  2.4830
20248TIP3   OH282234   6.537   3.684   1.432 -1.0861 -0.2816 -0.3104
20248TIP3    H182235   6.629   3.710   1.428 -0.7055 -1.4448  0.5967
20248TIP3    H282236   6.490   3.766   1.448 -0.3240  0.4747 -1.6815
20249TIP3   OH282237   1.871   3.139   0.555 -0.3178  0.0975  0.0659
20249TIP3    H182238   1.821   3.090   0.490 -1.7008 -0.5552  1.5365
20249TIP3    H282239   1.942   3.080   0.581 -1.7388 -1.0683  1.5361
20250LIG     O182240   3.608   3.574  16.743  0.0967  0.3329  0.2915
20250LIG     O282241   3.601   3.501  16.478  0.9429  0.0463  0.1307
20250LIG     O382242   3.381   3.766  16.685  0.1438  0.4027 -0.4173
20250LIG     O482243   3.530   3.291  16.421 -0.0676 -0.2249 -0.2859
20250LIG     O582244   3.270   3.385  16.577 -0.0619  0.2523 -0.0811
20250LIG     O682245   3.225   3.550  16.323  0.0797 -0.3677 -0.5814
20250LIG     O782246   3.371   3.431  16.118  0.2747  0.1313 -0.8632
20250LIG     O882247   3.634   3.176  16.134 -0.1682  0.5847  0.4685
20250LIG     O982248   3.711   3.387  16.167 -0.4146  0.3409 -0.3022
20250LIG      N82249   4.060   3.779  16.821  0.0500 -0.2938 -0.4393
20250LIG     C182250   3.831   3.631  16.726  0.3184 -0.1833  1.0557
20250LIG     C282251   3.944   3.657  16.628 -0.0615  0.2622  0.7028
20250LIG     C382252   3.743   3.520  16.694  0.2644  0.1576 -0.4679
20250LIG     C482253   4.019   3.784  16.680 -0.8200  0.1135  0.3514
20250LIG     C582254   3.873   3.631  16.873 -0.1531 -0.4214  0.1905
20250LIG     C682255   3.749   3.756  16.721  0.5573  0.6729 -0.6255
20250LIG     C782256   3.929   3.911  16.639  0.7599  0.9475  0.7364
20250LIG     C882257   3.945   3.768  16.908 -0.4761 -0.6437 -0.4828
20250LIG     C982258   3.730   3.479  16.537 -0.3368  0.4748 -0.2668
20250LIG    C1082259   3.779   3.884  16.673 -0.1821 -0.5281 -0.1982
20250LIG    C1182260   3.903   3.651  16.480 -0.4046  0.2287 -0.2035
20250LIG    C1282261   3.615   3.716  16.715 -0.1433 -0.3067 -1.0222
20250LIG    C1382262   3.798   3.575  16.441  0.1021 -0.4764 -0.3693
20250LIG    C1482263   4.162   3.686  16.849  0.6007  0.6013 -0.3601
20250LIG    C1582264   3.677   3.973  16.645  0.0952 -0.3405 -0.4224
20250LIG    C1682265   3.510   3.807  16.693  0.3691  0.3564  0.3163
20250LIG    C1782266   3.543   3.937  16.661  0.2673 -0.2659  0.2903
20250LIG    C1882267   3.508   3.402  16.508  0.3165  0.5086 -0.6117
20250LIG    C1982268   3.361   3.452  16.490 -0.6342 -0.6206  0.6223
20250LIG    C2082269   3.313   3.442  16.342 -0.5082  0.3008  0.0217
20250LIG    C2182270   3.421   3.440  16.248  0.1826 -1.0805 -0.2699
20250LIG    C2282271   3.501   3.314  16.282  0.2068  0.8858  0.5917
20250LIG    C2382272   3.626   3.298  16.195 -0.0722 -0.1016 -0.0040
20250LIG     H182273   4.011   3.568  16.639 -0.0122  0.0187 -1.3058
20250LIG     H282274   3.770   3.435  16.761 -0.8046  1.1259  1.2540
20250LIG     H382275   4.112   3.792  16.620 -0.4400  0.8541  1.0187
20250LIG     H482276   3.941   3.544  16.881 -0.0326 -0.9675 -4.2465
20250LIG     H582277   3.779   3.623  16.932 -0.6992 -0.6158 -0.6854
20250LIG     H682278   3.943   3.919  16.529  2.9297 -0.1017  0.8891
20250LIG     H782279   3.971   4.000  16.689  1.1475  0.9996  0.3260
20250LIG     H882280   3.874   3.853  16.920 -0.4772 -0.8877  1.8214
20250LIG     H982281   3.996   3.758  17.007 -1.5597 -0.2821  0.1291
20250LIG    H1082282   3.766   3.375  16.523 -0.2420  0.4720 -0.0195
20250LIG    H1182283   3.960   3.710  16.406 -0.0565  1.2956  0.8902
20250LIG    H1282284   3.786   3.538  16.339  0.1822 -0.4474 -0.3882
20250LIG    H1382285   4.258   3.720  16.804  1.0676 -0.8189 -0.4960
20250LIG    H1482286   4.141   3.582  16.817  1.6642  0.2654 -0.0357
20250LIG    H1582287   4.177   3.672  16.958 -0.3957 -1.9088 -0.4645
20250LIG    H1682288   3.710   4.075  16.630  1.3517 -0.2434  2.2652
20250LIG    H1782289   3.464   4.004  16.630 -0.1978 -1.2070 -0.6649
20250LIG    H1882290   3.514   3.366  16.613 -2.1657  0.5636 -0.3964
20250LIG    H1982291   3.363   3.559  16.519  1.6522 -0.5552  0.4302
20250LIG    H2082292   3.257   3.346  16.341  1.7505 -1.0968  0.8997
20250LIG    H2182293   3.343   3.821  16.616  1.1274  0.2933 -1.0758
20250LIG    H2282294   3.486   3.530  16.246 -0.0124 -0.8936  1.0253
20250LIG    H2382295   3.446   3.224  16.248 -0.3605  1.7701 -0.9087
20250LIG    H2482296   3.206   3.453  16.597  1.2989  1.3711  0.6808
20250LIG    H2582297   3.159   3.554  16.393  1.0216  0.8431  0.2733
20250LIG    H2682298   3.299   3.493  16.129 -1.3467 -2.0311  5.3948
20250LIG    H2782299   3.710   3.159  16.078  0.2558  1.8871  0.6256
   6.82528   6.82528  17.25819
