* GENERATE LIGAND
*  DATE:     4/17/25      6:47:15      CREATED BY USER: charmm-gui
*
        42  EXT
         1         1  LIG       S               0.5993277307       -1.7137456259       -0.1396406203  LIG       1               0.0000000000
         2         1  LIG       O1              3.7356095856       -0.5629550183        0.5989383779  LIG       1               0.0000000000
         3         1  LIG       O2             -3.3476406350        3.2479174391        0.3160190270  LIG       1               0.0000000000
         4         1  LIG       O3             -1.8531682498        1.7369839690        0.7626468936  LIG       1               0.0000000000
         5         1  LIG       N1              4.6460916740        2.1710706507        0.0660795880  LIG       1               0.0000000000
         6         1  LIG       N2             -2.4560146682       -0.9017629727        0.4773254407  LIG       1               0.0000000000
         7         1  LIG       N3             -4.6274237295       -1.2747362487       -0.3239491992  LIG       1               0.0000000000
         8         1  LIG       N4             -2.9714807914        2.0848860075        0.3936807474  LIG       1               0.0000000000
         9         1  LIG       N5             -5.8386652343       -0.8591684846       -0.7344146693  LIG       1               0.0000000000
        10         1  LIG       C1              5.5649383232        1.0069670009        0.0731793209  LIG       1               0.0000000000
        11         1  LIG       C2              4.8378060585       -0.3031690988       -0.1714858840  LIG       1               0.0000000000
        12         1  LIG       C3              3.2988054278       -1.7771091041        0.1613897761  LIG       1               0.0000000000
        13         1  LIG       C4              2.0425481125       -2.2777967856        0.8128196303  LIG       1               0.0000000000
        14         1  LIG       C5              5.0712166127       -1.3298510066       -1.0415779304  LIG       1               0.0000000000
        15         1  LIG       C6             -0.6461605022       -2.4760848173        0.9631610551  LIG       1               0.0000000000
        16         1  LIG       C7              4.0896922707       -2.2570562251       -0.8347306820  LIG       1               0.0000000000
        17         1  LIG       C8             -2.1066400270       -2.3422263610        0.4852136613  LIG       1               0.0000000000
        18         1  LIG       C9              3.8432647805        2.2775310666       -1.1426017910  LIG       1               0.0000000000
        19         1  LIG       C10             5.2965384531        3.4005364593        0.4832697629  LIG       1               0.0000000000
        20         1  LIG       C11            -3.6682282701       -0.3789887191        0.0593955466  LIG       1               0.0000000000
        21         1  LIG       C12            -3.9369521117        1.0405517212        0.0185845031  LIG       1               0.0000000000
        22         1  LIG       C13            -5.2474971940        1.4045863328       -0.4267752719  LIG       1               0.0000000000
        23         1  LIG       C14            -6.1752606911        0.4218280901       -0.7935855009  LIG       1               0.0000000000
        24         1  LIG       H1              6.0726697227        0.9431315526        1.0593634711  LIG       1               0.0000000000
        25         1  LIG       H2              6.3371314271        1.1561269389       -0.7113987275  LIG       1               0.0000000000
        26         1  LIG       H3              2.0768477924       -3.3850935747        0.8541925229  LIG       1               0.0000000000
        27         1  LIG       H4              2.0059470005       -1.8893146193        1.8530270982  LIG       1               0.0000000000
        28         1  LIG       H5              5.8833411899       -1.3863363796       -1.7476468296  LIG       1               0.0000000000
        29         1  LIG       H6             -0.5656687492       -2.0316686138        1.9809135191  LIG       1               0.0000000000
        30         1  LIG       H7             -0.4220634713       -3.5595127130        1.0693397052  LIG       1               0.0000000000
        31         1  LIG       H8              3.9599948250       -3.1925631870       -1.3574036468  LIG       1               0.0000000000
        32         1  LIG       H9             -2.2213383465       -2.7796869060       -0.5310445845  LIG       1               0.0000000000
        33         1  LIG       H10            -2.7839308583       -2.8918249535        1.1776891234  LIG       1               0.0000000000
        34         1  LIG       H11             3.0212114663        1.5250082097       -1.1444056319  LIG       1               0.0000000000
        35         1  LIG       H12             4.4636567492        2.1155096623       -2.0519663395  LIG       1               0.0000000000
        36         1  LIG       H13             3.3703510301        3.2820130728       -1.2207703945  LIG       1               0.0000000000
        37         1  LIG       H14             5.9437205637        3.7998827096       -0.3302829078  LIG       1               0.0000000000
        38         1  LIG       H15             5.9290764742        3.2422586285        1.3852567772  LIG       1               0.0000000000
        39         1  LIG       H16             4.5411345961        4.1797353840        0.7356543813  LIG       1               0.0000000000
        40         1  LIG       H17            -1.7057781080       -0.2548128116        0.7094295491  LIG       1               0.0000000000
        41         1  LIG       H18            -5.5403414900        2.4405717950       -0.4831827725  LIG       1               0.0000000000
        42         1  LIG       H19            -7.1710313510        0.6784139012       -1.1292510493  LIG       1               0.0000000000
