PSF EXT CMAP XPLOR

         2 !NTITLE
* GENERATE LIGAND                                                               
*  DATE:     4/17/25      6:47:15      CREATED BY USER: charmm-gui              

        42 !NATOM
         1 LIG      1        LIG      S        SG311    0.700000E-01   32.0600           0
         2 LIG      1        LIG      O1       OG2R50  -0.258000       15.9994           0
         3 LIG      1        LIG      O2       OG2N1   -0.311000       15.9994           0
         4 LIG      1        LIG      O3       OG2N1   -0.311000       15.9994           0
         5 LIG      1        LIG      N1       NG301   -0.589000       14.0070           0
         6 LIG      1        LIG      N2       NG311   -0.508000       14.0070           0
         7 LIG      1        LIG      N3       NG2R62  -0.476000       14.0070           0
         8 LIG      1        LIG      N4       NG2O1    0.375000       14.0070           0
         9 LIG      1        LIG      N5       NG2R62  -0.389000       14.0070           0
        10 LIG      1        LIG      C1       CG321    0.240000E-01   12.0110           0
        11 LIG      1        LIG      C2       CG2R51   0.246000       12.0110           0
        12 LIG      1        LIG      C3       CG2R51   0.123000       12.0110           0
        13 LIG      1        LIG      C4       CG321   -0.214000       12.0110           0
        14 LIG      1        LIG      C5       CG2R51  -0.241000       12.0110           0
        15 LIG      1        LIG      C6       CG321   -0.890000E-01   12.0110           0
        16 LIG      1        LIG      C7       CG2R51  -0.310000       12.0110           0
        17 LIG      1        LIG      C8       CG321    0.560000E-01   12.0110           0
        18 LIG      1        LIG      C9       CG331   -0.102000       12.0110           0
        19 LIG      1        LIG      C10      CG331   -0.102000       12.0110           0
        20 LIG      1        LIG      C11      CG2R64   0.327000       12.0110           0
        21 LIG      1        LIG      C12      CG2R61   0.398000       12.0110           0
        22 LIG      1        LIG      C13      CG2R61  -0.220000       12.0110           0
        23 LIG      1        LIG      C14      CG2R61   0.303000       12.0110           0
        24 LIG      1        LIG      H1       HGA2     0.900000E-01   1.00800           0
        25 LIG      1        LIG      H2       HGA2     0.900000E-01   1.00800           0
        26 LIG      1        LIG      H3       HGA2     0.900000E-01   1.00800           0
        27 LIG      1        LIG      H4       HGA2     0.900000E-01   1.00800           0
        28 LIG      1        LIG      H5       HGR51    0.175000       1.00800           0
        29 LIG      1        LIG      H6       HGA2     0.900000E-01   1.00800           0
        30 LIG      1        LIG      H7       HGA2     0.900000E-01   1.00800           0
        31 LIG      1        LIG      H8       HGR51    0.175000       1.00800           0
        32 LIG      1        LIG      H9       HGA2     0.900000E-01   1.00800           0
        33 LIG      1        LIG      H10      HGA2     0.900000E-01   1.00800           0
        34 LIG      1        LIG      H11      HGA3     0.900000E-01   1.00800           0
        35 LIG      1        LIG      H12      HGA3     0.900000E-01   1.00800           0
        36 LIG      1        LIG      H13      HGA3     0.900000E-01   1.00800           0
        37 LIG      1        LIG      H14      HGA3     0.900000E-01   1.00800           0
        38 LIG      1        LIG      H15      HGA3     0.900000E-01   1.00800           0
        39 LIG      1        LIG      H16      HGA3     0.900000E-01   1.00800           0
        40 LIG      1        LIG      H17      HGPAM1   0.336000       1.00800           0
        41 LIG      1        LIG      H18      HGR61    0.166000       1.00800           0
        42 LIG      1        LIG      H19      HGR62    0.860000E-01   1.00800           0

        43 !NBOND: bonds
         1        13         1        15         2        11         2        12
         3         8         4         8         5        10         5        18
         5        19         6        17         6        20         6        40
         7         9         7        20         8        21         9        23
        10        11        10        24        10        25        11        14
        12        13        12        16        13        26        13        27
        14        16        14        28        15        17        15        29
        15        30        16        31        17        32        17        33
        18        34        18        35        18        36        19        37
        19        38        19        39        20        21        21        22
        22        23        22        41        23        42

        73 !NTHETA: angles
        13         1        15        11         2        12        10         5        18
        10         5        19        18         5        19        17         6        20
        17         6        40        20         6        40         9         7        20
         3         8         4         3         8        21         4         8        21
         7         9        23         5        10        11         5        10        24
         5        10        25        11        10        24        11        10        25
        24        10        25         2        11        10         2        11        14
        10        11        14         2        12        13         2        12        16
        13        12        16         1        13        12         1        13        26
         1        13        27        12        13        26        12        13        27
        26        13        27        11        14        16        11        14        28
        16        14        28         1        15        17         1        15        29
         1        15        30        17        15        29        17        15        30
        29        15        30        12        16        14        12        16        31
        14        16        31         6        17        15         6        17        32
         6        17        33        15        17        32        15        17        33
        32        17        33         5        18        34         5        18        35
         5        18        36        34        18        35        34        18        36
        35        18        36         5        19        37         5        19        38
         5        19        39        37        19        38        37        19        39
        38        19        39         6        20         7         6        20        21
         7        20        21         8        21        20         8        21        22
        20        21        22        21        22        23        21        22        41
        23        22        41         9        23        22         9        23        42
        22        23        42

        92 !NPHI: dihedrals
         1        13        12         2         1        13        12        16
         1        15        17         6         1        15        17        32
         1        15        17        33         2        11        10         5
         2        11        10        24         2        11        10        25
         2        11        14        16         2        11        14        28
         2        12        13        26         2        12        13        27
         2        12        16        14         2        12        16        31
         3         8        21        20         3         8        21        22
         4         8        21        20         4         8        21        22
         5        10        11        14         6        17        15        29
         6        17        15        30         6        20         7         9
         6        20        21         8         6        20        21        22
         7         9        23        22         7         9        23        42
         7        20         6        17         7        20         6        40
         7        20        21         8         7        20        21        22
         8        21        22        23         8        21        22        41
         9         7        20        21         9        23        22        21
         9        23        22        41        10         5        18        34
        10         5        18        35        10         5        18        36
        10         5        19        37        10         5        19        38
        10         5        19        39        10        11         2        12
        10        11        14        16        10        11        14        28
        11         2        12        13        11         2        12        16
        11        10         5        18        11        10         5        19
        11        14        16        12        11        14        16        31
        12         2        11        14        12        13         1        15
        12        16        14        28        13         1        15        17
        13         1        15        29        13         1        15        30
        13        12        16        14        13        12        16        31
        14        11        10        24        14        11        10        25
        15         1        13        26        15         1        13        27
        15        17         6        20        15        17         6        40
        16        12        13        26        16        12        13        27
        17         6        20        21        18         5        10        24
        18         5        10        25        18         5        19        37
        18         5        19        38        18         5        19        39
        19         5        10        24        19         5        10        25
        19         5        18        34        19         5        18        35
        19         5        18        36        20         6        17        32
        20         6        17        33        20         7         9        23
        20        21        22        23        20        21        22        41
        21        20         6        40        21        22        23        42
        28        14        16        31        29        15        17        32
        29        15        17        33        30        15        17        32
        30        15        17        33        32        17         6        40
        33        17         6        40        41        22        23        42

         1 !NIMPHI: impropers
        20        21         7         6

         0 !NDON: donors


         0 !NACC: acceptors


         0 !NNB

         0         0         0         0         0         0         0         0
         0         0         0         0         0         0         0         0
         0         0         0         0         0         0         0         0
         0         0         0         0         0         0         0         0
         0         0         0         0         0         0         0         0
         0         0

         1         0 !NGRP NST2
         0         1         0

         0         0 !NUMLP NUMLPH

         0 !NCRTERM: cross-terms

