* GENERATED BY CHARMM-GUI (HTTP://WWW.CHARMM-GUI.ORG)
*
        23  EXT
         1         1  LIG       S               0.5423000000       -1.6736000000       -0.0987000000  LIG       1               0.0000000000
         2         1  LIG       O1              3.7393000000       -0.5100000000        0.5310000000  LIG       1               0.0000000000
         3         1  LIG       O2             -3.2816000000        3.1409000000        0.3346000000  LIG       1               0.0000000000
         4         1  LIG       O3             -1.8620000000        1.5197000000        0.7534000000  LIG       1               0.0000000000
         5         1  LIG       N1              4.5850000000        2.1136000000        0.1555000000  LIG       1               0.0000000000
         6         1  LIG       N2             -2.4583000000       -0.8598000000        0.4378000000  LIG       1               0.0000000000
         7         1  LIG       N3             -4.6509000000       -1.3087000000       -0.3422000000  LIG       1               0.0000000000
         8         1  LIG       N4             -2.9898000000        1.9220000000        0.3803000000  LIG       1               0.0000000000
         9         1  LIG       N5             -5.8786000000       -0.8871000000       -0.7484000000  LIG       1               0.0000000000
        10         1  LIG       C1              5.5429000000        1.0113000000        0.0771000000  LIG       1               0.0000000000
        11         1  LIG       C2              4.8461000000       -0.2928000000       -0.1999000000  LIG       1               0.0000000000
        12         1  LIG       C3              3.2763000000       -1.7225000000        0.1285000000  LIG       1               0.0000000000
        13         1  LIG       C4              2.0524000000       -2.2019000000        0.7857000000  LIG       1               0.0000000000
        14         1  LIG       C5              5.1210000000       -1.3039000000       -1.0543000000  LIG       1               0.0000000000
        15         1  LIG       C6             -0.6705000000       -2.4420000000        0.9963000000  LIG       1               0.0000000000
        16         1  LIG       C7              4.0911000000       -2.2518000000       -0.8451000000  LIG       1               0.0000000000
        17         1  LIG       C8             -2.0987000000       -2.2572000000        0.4990000000  LIG       1               0.0000000000
        18         1  LIG       C9              3.8544000000        2.2464000000       -1.1044000000  LIG       1               0.0000000000
        19         1  LIG       C10             5.2697000000        3.3635000000        0.4836000000  LIG       1               0.0000000000
        20         1  LIG       C11            -3.7005000000       -0.4030000000        0.0284000000  LIG       1               0.0000000000
        21         1  LIG       C12            -3.9690000000        0.9658000000       -0.0025000000  LIG       1               0.0000000000
        22         1  LIG       C13            -5.2181000000        1.3947000000       -0.4160000000  LIG       1               0.0000000000
        23         1  LIG       C14            -6.1425000000        0.4363000000       -0.7798000000  LIG       1               0.0000000000
